 Entering Gaussian System, Link 0=g16
 Input=18_addons_C84_14_Cl22_rank_2.gjf
 Output=18_addons_C84_14_Cl22_rank_2.log
 Initial command:
 /home/mkliu/g16/l1.exe "/data/scratch/Gau-184097.inp" -scrdir="/data/scratch/"
 Entering Link 1 = /home/mkliu/g16/l1.exe PID=    184098.
  
 Copyright (c) 1988,1990,1992,1993,1995,1998,2003,2009,2016,
            Gaussian, Inc.  All Rights Reserved.
  
 This is part of the Gaussian(R) 16 program.  It is based on
 the Gaussian(R) 09 system (copyright 2009, Gaussian, Inc.),
 the Gaussian(R) 03 system (copyright 2003, Gaussian, Inc.),
 the Gaussian(R) 98 system (copyright 1998, Gaussian, Inc.),
 the Gaussian(R) 94 system (copyright 1995, Gaussian, Inc.),
 the Gaussian 92(TM) system (copyright 1992, Gaussian, Inc.),
 the Gaussian 90(TM) system (copyright 1990, Gaussian, Inc.),
 the Gaussian 88(TM) system (copyright 1988, Gaussian, Inc.),
 the Gaussian 86(TM) system (copyright 1986, Carnegie Mellon
 University), and the Gaussian 82(TM) system (copyright 1983,
 Carnegie Mellon University). Gaussian is a federally registered
 trademark of Gaussian, Inc.
  
 This software contains proprietary and confidential information,
 including trade secrets, belonging to Gaussian, Inc.
  
 This software is provided under written license and may be
 used, copied, transmitted, or stored only in accord with that
 written license.
  
 The following legend is applicable only to US Government
 contracts under FAR:
  
                    RESTRICTED RIGHTS LEGEND
  
 Use, reproduction and disclosure by the US Government is
 subject to restrictions as set forth in subparagraphs (a)
 and (c) of the Commercial Computer Software - Restricted
 Rights clause in FAR 52.227-19.
  
 Gaussian, Inc.
 340 Quinnipiac St., Bldg. 40, Wallingford CT 06492
  
  
 ---------------------------------------------------------------
 Warning -- This program may not be used in any manner that
 competes with the business of Gaussian, Inc. or will provide
 assistance to any competitor of Gaussian, Inc.  The licensee
 of this program is prohibited from giving any competitor of
 Gaussian, Inc. access to this program.  By using this program,
 the user acknowledges that Gaussian, Inc. is engaged in the
 business of creating and licensing software in the field of
 computational chemistry and represents and warrants to the
 licensee that it is not a competitor of Gaussian, Inc. and that
 it will not use this program in any manner prohibited above.
 ---------------------------------------------------------------
  

 Cite this work as:
 Gaussian 16, Revision A.03,
 M. J. Frisch, G. W. Trucks, H. B. Schlegel, G. E. Scuseria, 
 M. A. Robb, J. R. Cheeseman, G. Scalmani, V. Barone, 
 G. A. Petersson, H. Nakatsuji, X. Li, M. Caricato, A. V. Marenich, 
 J. Bloino, B. G. Janesko, R. Gomperts, B. Mennucci, H. P. Hratchian, 
 J. V. Ortiz, A. F. Izmaylov, J. L. Sonnenberg, D. Williams-Young, 
 F. Ding, F. Lipparini, F. Egidi, J. Goings, B. Peng, A. Petrone, 
 T. Henderson, D. Ranasinghe, V. G. Zakrzewski, J. Gao, N. Rega, 
 G. Zheng, W. Liang, M. Hada, M. Ehara, K. Toyota, R. Fukuda, 
 J. Hasegawa, M. Ishida, T. Nakajima, Y. Honda, O. Kitao, H. Nakai, 
 T. Vreven, K. Throssell, J. A. Montgomery, Jr., J. E. Peralta, 
 F. Ogliaro, M. J. Bearpark, J. J. Heyd, E. N. Brothers, K. N. Kudin, 
 V. N. Staroverov, T. A. Keith, R. Kobayashi, J. Normand, 
 K. Raghavachari, A. P. Rendell, J. C. Burant, S. S. Iyengar, 
 J. Tomasi, M. Cossi, J. M. Millam, M. Klene, C. Adamo, R. Cammi, 
 J. W. Ochterski, R. L. Martin, K. Morokuma, O. Farkas, 
 J. B. Foresman, and D. J. Fox, Gaussian, Inc., Wallingford CT, 2016.
 
 ******************************************
 Gaussian 16:  ES64L-G16RevA.03 25-Dec-2016
                29-Jun-2022 
 ******************************************
 %mem=10GB
 %chk=18_addons_C84_14_Cl22_rank_2.chk
 %nprocshared=24
 Will use up to   24 processors via shared memory.
 ------------------------------------------------
 #P opt b3lyp/6-31G(d, p) empiricaldispersion=GD3
 ------------------------------------------------
 1/18=20,19=15,26=3,38=1/1,3;
 2/9=110,12=2,17=6,18=5,40=1/2;
 3/5=1,6=6,7=101,11=2,25=1,30=1,71=1,74=-5,124=31/1,2,3;
 4//1;
 5/5=2,38=5/2;
 6/7=2,8=2,9=2,10=2,28=1/1;
 7//1,2,3,16;
 1/18=20,19=15,26=3/3(2);
 2/9=110/2;
 99//99;
 2/9=110/2;
 3/5=1,6=6,7=101,11=2,25=1,30=1,71=1,74=-5,124=31/1,2,3;
 4/5=5,16=3,69=1/1;
 5/5=2,38=5/2;
 7//1,2,3,16;
 1/18=20,19=15,26=3/3(-5);
 2/9=110/2;
 6/7=2,8=2,9=2,10=2,19=2,28=1/1;
 99/9=1/99;
 Leave Link    1 at Wed Jun 29 22:27:30 2022, MaxMem=  1342177280 cpu:               0.6 elap:               0.1
 (Enter /home/mkliu/g16/l101.exe)
 -----
 force
 -----
 Symbolic Z-matrix:
 Charge =  0 Multiplicity = 1
 C                     8.22711   18.67002   10.60541 
 C                     12.46509   20.02401   8.9213 
 C                     8.27507   26.83703   10.53296 
 C                     12.48841   25.75471   8.92554 
 C                     7.96201   19.00949   9.16267 
 C                     11.85503   19.61188   10.22612 
 C                     7.96539   26.78443   9.15682 
 C                     11.89145   26.18731   10.23423 
 C                     8.95348   19.20295   8.1816 
 C                     12.113    20.25942   11.40276 
 C                     12.14956   25.54082   11.39835 
 C                     8.96696   26.59678   8.1773 
 C                     10.28672   19.12412   8.61813 
 C                     10.29531   26.65564   8.63857 
 C                     10.59981   19.0208   10.03131 
 C                     10.61813   26.7883   10.02131 
 C                     9.62355   19.0265   11.02172 
 C                     9.61274   26.77802   11.0035 
 C                     9.89555   19.68528   12.22852 
 C                     9.8745    26.09827   12.2349 
 C                     8.77685   20.08894   13.14861 
 C                     8.79252   25.50515   12.90677 
 C                     7.47187   20.19868   12.40652 
 C                     7.45776   25.57641   12.40889 
 C                     7.21593   19.54889   11.2839 
 C                     7.20174   26.23962   11.25707 
 C                     6.12652   19.99243   10.34614 
 C                     6.09448   25.8154   10.33485 
 C                     6.73741   19.62769   9.03486 
 C                     6.67203   26.20036   9.00573 
 C                     6.42467   20.30386   7.87269 
 C                     6.37399   25.52974   7.87601 
 C                     7.33453   20.38769   6.83551 
 C                     7.33023   25.40802   6.81799 
 C                     8.67062   19.96232   7.00148 
 C                     8.69149   25.8492   6.9916 
 C                     9.73542   20.64081   6.33404 
 C                     9.73518   25.1518   6.35267 
 C                     11.02442   20.60385   6.85102 
 C                     12.63769   22.19304   7.80119 
 C                     12.64569   23.58036   7.79997 
 C                     11.04425   25.18185   6.87283 
 C                     11.29953   19.81523   7.97441 
 C                     12.80888   21.486    8.97819 
 C                     12.82056   24.28702   8.97616 
 C                     11.32446   25.96082   7.97813 
 C                     13.03354   22.18282   10.17606 
 C                     13.03613   23.58446   10.17047 
 C                     13.06429   21.41464   11.49093 
 C                     13.06007   24.34619   11.48101 
 C                     12.43036   22.20321   12.59809 
 C                     12.39324   23.53801   12.56157 
 C                     11.1367   20.28368   12.40602 
 C                     11.14151   25.47473   12.40998 
 C                     11.42373   21.39611   13.37469 
 C                     11.29026   24.27458   13.12616 
 C                     8.9633    21.50545   13.61747 
 C                     8.94274   24.26778   13.59089 
 C                     7.7418    22.20629   13.50317 
 C                     7.72134   23.56407   13.51711 
 C                     6.69198   21.42423   12.78559 
 C                     6.66858   24.35881   12.80315 
 C                     6.23371   22.19631   11.5526 
 C                     6.22734   23.59884   11.5562 
 C                     5.94212   21.50076   10.37541 
 C                     5.93656   24.29589   10.37769 
 C                     5.62958   22.19662   9.19498 
 C                     5.63043   23.59554   9.20099 
 C                     5.43856   21.43182   7.8839 
 C                     5.43719   24.35571   7.89303 
 C                     5.92251   22.21855   6.70043 
 C                     5.96083   23.55493   6.73359 
 C                     6.87616   21.4163   5.85165 
 C                     7.01109   24.28417   6.06933 
 C                     8.02708   22.21098   5.38501 
 C                     8.03725   23.56332   5.42159 
 C                     9.40579   21.6471   5.25699 
 C                     9.41221   24.14057   5.27726 
 C                     12.0614   21.64542   6.5193 
 C                     12.06746   24.13272   6.52277 
 C                     10.24207   22.89423   5.40185 
 C                     11.44513   22.89095   5.95223 
 C                     10.1707   22.16208   13.68859 
 C                     10.17719   23.58704   13.65907 
 Cl                    4.55561   19.18464   10.68574 
 Cl                    3.71904   20.91776   7.75727 
 Cl                    3.70326   24.78906   7.72497 
 Cl                    4.51286   26.57941   10.7054 
 Cl                    5.24962   21.04766   13.79729 
 Cl                    5.22106   24.71926   13.80405 
 Cl                    14.76418   20.92264   11.83457 
 Cl                    14.76209   24.77343   11.88123 
 Cl                    13.90865   19.05608   8.46193 
 Cl                    13.33668   20.95508   5.44959 
 Cl                    13.94069   26.70677   8.45322 
 Cl                    13.33906   24.81989   5.44588 
 Cl                    9.66667   20.85618   3.64341 
 Cl                    7.92928   16.91127   10.92808 
 Cl                    8.66363   18.93722   14.53598 
 Cl                    9.62965   24.94114   3.66515 
 Cl                    12.14963   20.75154   14.91299 
 Cl                    6.02078   20.60849   4.45333 
 
 ITRead=  0  0  0  0  0  0  0  0  0  0  0  0  0  0  0  0  0  0  0  0
 ITRead=  0  0  0  0  0  0  0  0  0  0  0  0  0  0  0  0  0  0  0  0
 ITRead=  0  0  0  0  0  0  0  0  0  0  0  0  0  0  0  0  0  0  0  0
 ITRead=  0  0  0  0  0  0  0  0  0  0  0  0  0  0  0  0  0  0  0  0
 ITRead=  0  0  0  0  0  0  0  0  0  0  0  0  0  0  0  0  0  0  0  0
 ITRead=  0  0
 MicOpt= -1 -1 -1 -1 -1 -1 -1 -1 -1 -1 -1 -1 -1 -1 -1 -1 -1 -1 -1 -1
 MicOpt= -1 -1 -1 -1 -1 -1 -1 -1 -1 -1 -1 -1 -1 -1 -1 -1 -1 -1 -1 -1
 MicOpt= -1 -1 -1 -1 -1 -1 -1 -1 -1 -1 -1 -1 -1 -1 -1 -1 -1 -1 -1 -1
 MicOpt= -1 -1 -1 -1 -1 -1 -1 -1 -1 -1 -1 -1 -1 -1 -1 -1 -1 -1 -1 -1
 MicOpt= -1 -1 -1 -1 -1 -1 -1 -1 -1 -1 -1 -1 -1 -1 -1 -1 -1 -1 -1 -1
 MicOpt= -1 -1
 NAtoms=    102 NQM=      102 NQMF=       0 NMMI=      0 NMMIF=      0
                NMic=       0 NMicF=      0.
                    Isotopes and Nuclear Properties:
 (Nuclear quadrupole moments (NQMom) in fm**2, nuclear magnetic moments (NMagM)
  in nuclear magnetons)

  Atom         1           2           3           4           5           6           7           8           9          10
 IAtWgt=          12          12          12          12          12          12          12          12          12          12
 AtmWgt=  12.0000000  12.0000000  12.0000000  12.0000000  12.0000000  12.0000000  12.0000000  12.0000000  12.0000000  12.0000000
 NucSpn=           0           0           0           0           0           0           0           0           0           0
 AtZEff=  -0.0000000  -0.0000000  -0.0000000  -0.0000000  -0.0000000  -0.0000000  -0.0000000  -0.0000000  -0.0000000  -0.0000000
 NQMom=    0.0000000   0.0000000   0.0000000   0.0000000   0.0000000   0.0000000   0.0000000   0.0000000   0.0000000   0.0000000
 NMagM=    0.0000000   0.0000000   0.0000000   0.0000000   0.0000000   0.0000000   0.0000000   0.0000000   0.0000000   0.0000000
 AtZNuc=   6.0000000   6.0000000   6.0000000   6.0000000   6.0000000   6.0000000   6.0000000   6.0000000   6.0000000   6.0000000

  Atom        11          12          13          14          15          16          17          18          19          20
 IAtWgt=          12          12          12          12          12          12          12          12          12          12
 AtmWgt=  12.0000000  12.0000000  12.0000000  12.0000000  12.0000000  12.0000000  12.0000000  12.0000000  12.0000000  12.0000000
 NucSpn=           0           0           0           0           0           0           0           0           0           0
 AtZEff=  -0.0000000  -0.0000000  -0.0000000  -0.0000000  -0.0000000  -0.0000000  -0.0000000  -0.0000000  -0.0000000  -0.0000000
 NQMom=    0.0000000   0.0000000   0.0000000   0.0000000   0.0000000   0.0000000   0.0000000   0.0000000   0.0000000   0.0000000
 NMagM=    0.0000000   0.0000000   0.0000000   0.0000000   0.0000000   0.0000000   0.0000000   0.0000000   0.0000000   0.0000000
 AtZNuc=   6.0000000   6.0000000   6.0000000   6.0000000   6.0000000   6.0000000   6.0000000   6.0000000   6.0000000   6.0000000

  Atom        21          22          23          24          25          26          27          28          29          30
 IAtWgt=          12          12          12          12          12          12          12          12          12          12
 AtmWgt=  12.0000000  12.0000000  12.0000000  12.0000000  12.0000000  12.0000000  12.0000000  12.0000000  12.0000000  12.0000000
 NucSpn=           0           0           0           0           0           0           0           0           0           0
 AtZEff=  -0.0000000  -0.0000000  -0.0000000  -0.0000000  -0.0000000  -0.0000000  -0.0000000  -0.0000000  -0.0000000  -0.0000000
 NQMom=    0.0000000   0.0000000   0.0000000   0.0000000   0.0000000   0.0000000   0.0000000   0.0000000   0.0000000   0.0000000
 NMagM=    0.0000000   0.0000000   0.0000000   0.0000000   0.0000000   0.0000000   0.0000000   0.0000000   0.0000000   0.0000000
 AtZNuc=   6.0000000   6.0000000   6.0000000   6.0000000   6.0000000   6.0000000   6.0000000   6.0000000   6.0000000   6.0000000

  Atom        31          32          33          34          35          36          37          38          39          40
 IAtWgt=          12          12          12          12          12          12          12          12          12          12
 AtmWgt=  12.0000000  12.0000000  12.0000000  12.0000000  12.0000000  12.0000000  12.0000000  12.0000000  12.0000000  12.0000000
 NucSpn=           0           0           0           0           0           0           0           0           0           0
 AtZEff=  -0.0000000  -0.0000000  -0.0000000  -0.0000000  -0.0000000  -0.0000000  -0.0000000  -0.0000000  -0.0000000  -0.0000000
 NQMom=    0.0000000   0.0000000   0.0000000   0.0000000   0.0000000   0.0000000   0.0000000   0.0000000   0.0000000   0.0000000
 NMagM=    0.0000000   0.0000000   0.0000000   0.0000000   0.0000000   0.0000000   0.0000000   0.0000000   0.0000000   0.0000000
 AtZNuc=   6.0000000   6.0000000   6.0000000   6.0000000   6.0000000   6.0000000   6.0000000   6.0000000   6.0000000   6.0000000

  Atom        41          42          43          44          45          46          47          48          49          50
 IAtWgt=          12          12          12          12          12          12          12          12          12          12
 AtmWgt=  12.0000000  12.0000000  12.0000000  12.0000000  12.0000000  12.0000000  12.0000000  12.0000000  12.0000000  12.0000000
 NucSpn=           0           0           0           0           0           0           0           0           0           0
 AtZEff=  -0.0000000  -0.0000000  -0.0000000  -0.0000000  -0.0000000  -0.0000000  -0.0000000  -0.0000000  -0.0000000  -0.0000000
 NQMom=    0.0000000   0.0000000   0.0000000   0.0000000   0.0000000   0.0000000   0.0000000   0.0000000   0.0000000   0.0000000
 NMagM=    0.0000000   0.0000000   0.0000000   0.0000000   0.0000000   0.0000000   0.0000000   0.0000000   0.0000000   0.0000000
 AtZNuc=   6.0000000   6.0000000   6.0000000   6.0000000   6.0000000   6.0000000   6.0000000   6.0000000   6.0000000   6.0000000

  Atom        51          52          53          54          55          56          57          58          59          60
 IAtWgt=          12          12          12          12          12          12          12          12          12          12
 AtmWgt=  12.0000000  12.0000000  12.0000000  12.0000000  12.0000000  12.0000000  12.0000000  12.0000000  12.0000000  12.0000000
 NucSpn=           0           0           0           0           0           0           0           0           0           0
 AtZEff=  -0.0000000  -0.0000000  -0.0000000  -0.0000000  -0.0000000  -0.0000000  -0.0000000  -0.0000000  -0.0000000  -0.0000000
 NQMom=    0.0000000   0.0000000   0.0000000   0.0000000   0.0000000   0.0000000   0.0000000   0.0000000   0.0000000   0.0000000
 NMagM=    0.0000000   0.0000000   0.0000000   0.0000000   0.0000000   0.0000000   0.0000000   0.0000000   0.0000000   0.0000000
 AtZNuc=   6.0000000   6.0000000   6.0000000   6.0000000   6.0000000   6.0000000   6.0000000   6.0000000   6.0000000   6.0000000

  Atom        61          62          63          64          65          66          67          68          69          70
 IAtWgt=          12          12          12          12          12          12          12          12          12          12
 AtmWgt=  12.0000000  12.0000000  12.0000000  12.0000000  12.0000000  12.0000000  12.0000000  12.0000000  12.0000000  12.0000000
 NucSpn=           0           0           0           0           0           0           0           0           0           0
 AtZEff=  -0.0000000  -0.0000000  -0.0000000  -0.0000000  -0.0000000  -0.0000000  -0.0000000  -0.0000000  -0.0000000  -0.0000000
 NQMom=    0.0000000   0.0000000   0.0000000   0.0000000   0.0000000   0.0000000   0.0000000   0.0000000   0.0000000   0.0000000
 NMagM=    0.0000000   0.0000000   0.0000000   0.0000000   0.0000000   0.0000000   0.0000000   0.0000000   0.0000000   0.0000000
 AtZNuc=   6.0000000   6.0000000   6.0000000   6.0000000   6.0000000   6.0000000   6.0000000   6.0000000   6.0000000   6.0000000

  Atom        71          72          73          74          75          76          77          78          79          80
 IAtWgt=          12          12          12          12          12          12          12          12          12          12
 AtmWgt=  12.0000000  12.0000000  12.0000000  12.0000000  12.0000000  12.0000000  12.0000000  12.0000000  12.0000000  12.0000000
 NucSpn=           0           0           0           0           0           0           0           0           0           0
 AtZEff=  -0.0000000  -0.0000000  -0.0000000  -0.0000000  -0.0000000  -0.0000000  -0.0000000  -0.0000000  -0.0000000  -0.0000000
 NQMom=    0.0000000   0.0000000   0.0000000   0.0000000   0.0000000   0.0000000   0.0000000   0.0000000   0.0000000   0.0000000
 NMagM=    0.0000000   0.0000000   0.0000000   0.0000000   0.0000000   0.0000000   0.0000000   0.0000000   0.0000000   0.0000000
 AtZNuc=   6.0000000   6.0000000   6.0000000   6.0000000   6.0000000   6.0000000   6.0000000   6.0000000   6.0000000   6.0000000

  Atom        81          82          83          84          85          86          87          88          89          90
 IAtWgt=          12          12          12          12          35          35          35          35          35          35
 AtmWgt=  12.0000000  12.0000000  12.0000000  12.0000000  34.9688527  34.9688527  34.9688527  34.9688527  34.9688527  34.9688527
 NucSpn=           0           0           0           0           3           3           3           3           3           3
 AtZEff=  -0.0000000  -0.0000000  -0.0000000  -0.0000000  -0.0000000  -0.0000000  -0.0000000  -0.0000000  -0.0000000  -0.0000000
 NQMom=    0.0000000   0.0000000   0.0000000   0.0000000  -8.1650000  -8.1650000  -8.1650000  -8.1650000  -8.1650000  -8.1650000
 NMagM=    0.0000000   0.0000000   0.0000000   0.0000000   0.8218740   0.8218740   0.8218740   0.8218740   0.8218740   0.8218740
 AtZNuc=   6.0000000   6.0000000   6.0000000   6.0000000  17.0000000  17.0000000  17.0000000  17.0000000  17.0000000  17.0000000

  Atom        91          92          93          94          95          96          97          98          99         100
 IAtWgt=          35          35          35          35          35          35          35          35          35          35
 AtmWgt=  34.9688527  34.9688527  34.9688527  34.9688527  34.9688527  34.9688527  34.9688527  34.9688527  34.9688527  34.9688527
 NucSpn=           3           3           3           3           3           3           3           3           3           3
 AtZEff=  -0.0000000  -0.0000000  -0.0000000  -0.0000000  -0.0000000  -0.0000000  -0.0000000  -0.0000000  -0.0000000  -0.0000000
 NQMom=   -8.1650000  -8.1650000  -8.1650000  -8.1650000  -8.1650000  -8.1650000  -8.1650000  -8.1650000  -8.1650000  -8.1650000
 NMagM=    0.8218740   0.8218740   0.8218740   0.8218740   0.8218740   0.8218740   0.8218740   0.8218740   0.8218740   0.8218740
 AtZNuc=  17.0000000  17.0000000  17.0000000  17.0000000  17.0000000  17.0000000  17.0000000  17.0000000  17.0000000  17.0000000

  Atom       101         102
 IAtWgt=          35          35
 AtmWgt=  34.9688527  34.9688527
 NucSpn=           3           3
 AtZEff=  -0.0000000  -0.0000000
 NQMom=   -8.1650000  -8.1650000
 NMagM=    0.8218740   0.8218740
 AtZNuc=  17.0000000  17.0000000
 Leave Link  101 at Wed Jun 29 22:27:31 2022, MaxMem=  1342177280 cpu:               6.7 elap:               0.3
 (Enter /home/mkliu/g16/l103.exe)

 GradGradGradGradGradGradGradGradGradGradGradGradGradGradGradGradGradGrad
 Berny optimization.
 Initialization pass.
                           ----------------------------
                           !    Initial Parameters    !
                           ! (Angstroms and Degrees)  !
 --------------------------                            --------------------------
 ! Name  Definition              Value          Derivative Info.                !
 --------------------------------------------------------------------------------
 ! R1    R(1,5)                  1.5057         estimate D2E/DX2                !
 ! R2    R(1,17)                 1.5001         estimate D2E/DX2                !
 ! R3    R(1,25)                 1.5017         estimate D2E/DX2                !
 ! R4    R(1,98)                 1.8127         estimate D2E/DX2                !
 ! R5    R(2,6)                  1.4982         estimate D2E/DX2                !
 ! R6    R(2,43)                 1.5162         estimate D2E/DX2                !
 ! R7    R(2,44)                 1.5029         estimate D2E/DX2                !
 ! R8    R(2,93)                 1.7977         estimate D2E/DX2                !
 ! R9    R(3,7)                  1.4115         estimate D2E/DX2                !
 ! R10   R(3,18)                 1.4192         estimate D2E/DX2                !
 ! R11   R(3,26)                 1.4259         estimate D2E/DX2                !
 ! R12   R(4,8)                  1.5021         estimate D2E/DX2                !
 ! R13   R(4,45)                 1.5057         estimate D2E/DX2                !
 ! R14   R(4,46)                 1.5149         estimate D2E/DX2                !
 ! R15   R(4,95)                 1.7996         estimate D2E/DX2                !
 ! R16   R(5,9)                  1.4082         estimate D2E/DX2                !
 ! R17   R(5,29)                 1.3777         estimate D2E/DX2                !
 ! R18   R(6,10)                 1.3676         estimate D2E/DX2                !
 ! R19   R(6,15)                 1.401          estimate D2E/DX2                !
 ! R20   R(7,12)                 1.4134         estimate D2E/DX2                !
 ! R21   R(7,30)                 1.4271         estimate D2E/DX2                !
 ! R22   R(8,11)                 1.3564         estimate D2E/DX2                !
 ! R23   R(8,16)                 1.424          estimate D2E/DX2                !
 ! R24   R(9,13)                 1.4051         estimate D2E/DX2                !
 ! R25   R(9,35)                 1.4316         estimate D2E/DX2                !
 ! R26   R(10,49)                1.4991         estimate D2E/DX2                !
 ! R27   R(10,53)                1.4001         estimate D2E/DX2                !
 ! R28   R(11,50)                1.5043         estimate D2E/DX2                !
 ! R29   R(11,54)                1.4297         estimate D2E/DX2                !
 ! R30   R(12,14)                1.4074         estimate D2E/DX2                !
 ! R31   R(12,36)                1.4285         estimate D2E/DX2                !
 ! R32   R(13,15)                1.4511         estimate D2E/DX2                !
 ! R33   R(13,43)                1.3849         estimate D2E/DX2                !
 ! R34   R(14,16)                1.4261         estimate D2E/DX2                !
 ! R35   R(14,46)                1.4065         estimate D2E/DX2                !
 ! R36   R(15,17)                1.3907         estimate D2E/DX2                !
 ! R37   R(16,18)                1.4056         estimate D2E/DX2                !
 ! R38   R(17,19)                1.4016         estimate D2E/DX2                !
 ! R39   R(18,20)                1.4307         estimate D2E/DX2                !
 ! R40   R(19,21)                1.5037         estimate D2E/DX2                !
 ! R41   R(19,53)                1.3893         estimate D2E/DX2                !
 ! R42   R(20,22)                1.405          estimate D2E/DX2                !
 ! R43   R(20,54)                1.4229         estimate D2E/DX2                !
 ! R44   R(21,23)                1.5052         estimate D2E/DX2                !
 ! R45   R(21,57)                1.5037         estimate D2E/DX2                !
 ! R46   R(21,99)                1.8067         estimate D2E/DX2                !
 ! R47   R(22,24)                1.4264         estimate D2E/DX2                !
 ! R48   R(22,58)                1.4219         estimate D2E/DX2                !
 ! R49   R(23,25)                1.3221         estimate D2E/DX2                !
 ! R50   R(23,61)                1.5013         estimate D2E/DX2                !
 ! R51   R(24,26)                1.3536         estimate D2E/DX2                !
 ! R52   R(24,62)                1.5036         estimate D2E/DX2                !
 ! R53   R(25,27)                1.5043         estimate D2E/DX2                !
 ! R54   R(26,28)                1.5021         estimate D2E/DX2                !
 ! R55   R(27,29)                1.4919         estimate D2E/DX2                !
 ! R56   R(27,65)                1.5198         estimate D2E/DX2                !
 ! R57   R(27,85)                1.7988         estimate D2E/DX2                !
 ! R58   R(28,30)                1.4994         estimate D2E/DX2                !
 ! R59   R(28,66)                1.5283         estimate D2E/DX2                !
 ! R60   R(28,88)                1.7951         estimate D2E/DX2                !
 ! R61   R(29,31)                1.3805         estimate D2E/DX2                !
 ! R62   R(30,32)                1.3472         estimate D2E/DX2                !
 ! R63   R(31,33)                1.3823         estimate D2E/DX2                !
 ! R64   R(31,69)                1.4983         estimate D2E/DX2                !
 ! R65   R(32,34)                1.4313         estimate D2E/DX2                !
 ! R66   R(32,70)                1.5021         estimate D2E/DX2                !
 ! R67   R(33,35)                1.4119         estimate D2E/DX2                !
 ! R68   R(33,73)                1.4954         estimate D2E/DX2                !
 ! R69   R(34,36)                1.4415         estimate D2E/DX2                !
 ! R70   R(34,74)                1.3876         estimate D2E/DX2                !
 ! R71   R(35,37)                1.4282         estimate D2E/DX2                !
 ! R72   R(36,38)                1.4085         estimate D2E/DX2                !
 ! R73   R(37,39)                1.3893         estimate D2E/DX2                !
 ! R74   R(37,77)                1.5104         estimate D2E/DX2                !
 ! R75   R(38,42)                1.4089         estimate D2E/DX2                !
 ! R76   R(38,78)                1.5111         estimate D2E/DX2                !
 ! R77   R(39,43)                1.3999         estimate D2E/DX2                !
 ! R78   R(39,79)                1.5067         estimate D2E/DX2                !
 ! R79   R(40,41)                1.3874         estimate D2E/DX2                !
 ! R80   R(40,44)                1.3837         estimate D2E/DX2                !
 ! R81   R(40,79)                1.5084         estimate D2E/DX2                !
 ! R82   R(41,45)                1.3832         estimate D2E/DX2                !
 ! R83   R(41,80)                1.5069         estimate D2E/DX2                !
 ! R84   R(42,46)                1.3809         estimate D2E/DX2                !
 ! R85   R(42,80)                1.5067         estimate D2E/DX2                !
 ! R86   R(44,47)                1.4039         estimate D2E/DX2                !
 ! R87   R(45,48)                1.4023         estimate D2E/DX2                !
 ! R88   R(47,48)                1.4017         estimate D2E/DX2                !
 ! R89   R(47,49)                1.5231         estimate D2E/DX2                !
 ! R90   R(48,50)                1.516          estimate D2E/DX2                !
 ! R91   R(49,51)                1.4998         estimate D2E/DX2                !
 ! R92   R(49,91)                1.8027         estimate D2E/DX2                !
 ! R93   R(50,52)                1.5051         estimate D2E/DX2                !
 ! R94   R(50,92)                1.7999         estimate D2E/DX2                !
 ! R95   R(51,52)                1.3358         estimate D2E/DX2                !
 ! R96   R(51,55)                1.5059         estimate D2E/DX2                !
 ! R97   R(52,56)                1.4415         estimate D2E/DX2                !
 ! R98   R(53,55)                1.5027         estimate D2E/DX2                !
 ! R99   R(54,56)                1.4055         estimate D2E/DX2                !
 ! R100  R(55,83)                1.5018         estimate D2E/DX2                !
 ! R101  R(55,101)               1.819          estimate D2E/DX2                !
 ! R102  R(56,84)                1.4127         estimate D2E/DX2                !
 ! R103  R(57,59)                1.4129         estimate D2E/DX2                !
 ! R104  R(57,83)                1.3762         estimate D2E/DX2                !
 ! R105  R(58,60)                1.4115         estimate D2E/DX2                !
 ! R106  R(58,84)                1.4114         estimate D2E/DX2                !
 ! R107  R(59,60)                1.358          estimate D2E/DX2                !
 ! R108  R(59,61)                1.4929         estimate D2E/DX2                !
 ! R109  R(60,62)                1.4999         estimate D2E/DX2                !
 ! R110  R(61,63)                1.5253         estimate D2E/DX2                !
 ! R111  R(61,89)                1.8016         estimate D2E/DX2                !
 ! R112  R(62,64)                1.5255         estimate D2E/DX2                !
 ! R113  R(62,90)                1.7964         estimate D2E/DX2                !
 ! R114  R(63,64)                1.4025         estimate D2E/DX2                !
 ! R115  R(63,65)                1.3981         estimate D2E/DX2                !
 ! R116  R(64,66)                1.3998         estimate D2E/DX2                !
 ! R117  R(65,67)                1.4055         estimate D2E/DX2                !
 ! R118  R(66,68)                1.4031         estimate D2E/DX2                !
 ! R119  R(67,68)                1.3989         estimate D2E/DX2                !
 ! R120  R(67,69)                1.5298         estimate D2E/DX2                !
 ! R121  R(68,70)                1.5251         estimate D2E/DX2                !
 ! R122  R(69,71)                1.5013         estimate D2E/DX2                !
 ! R123  R(69,86)                1.7992         estimate D2E/DX2                !
 ! R124  R(70,72)                1.5033         estimate D2E/DX2                !
 ! R125  R(70,87)                1.7951         estimate D2E/DX2                !
 ! R126  R(71,72)                1.3373         estimate D2E/DX2                !
 ! R127  R(71,73)                1.5078         estimate D2E/DX2                !
 ! R128  R(72,74)                1.4409         estimate D2E/DX2                !
 ! R129  R(73,75)                1.4744         estimate D2E/DX2                !
 ! R130  R(73,102)               1.8274         estimate D2E/DX2                !
 ! R131  R(74,76)                1.4114         estimate D2E/DX2                !
 ! R132  R(75,76)                1.3529         estimate D2E/DX2                !
 ! R133  R(75,77)                1.4951         estimate D2E/DX2                !
 ! R134  R(76,78)                1.4982         estimate D2E/DX2                !
 ! R135  R(77,81)                1.5085         estimate D2E/DX2                !
 ! R136  R(77,97)                1.8158         estimate D2E/DX2                !
 ! R137  R(78,81)                1.5025         estimate D2E/DX2                !
 ! R138  R(78,100)               1.813          estimate D2E/DX2                !
 ! R139  R(79,82)                1.5009         estimate D2E/DX2                !
 ! R140  R(79,94)                1.802          estimate D2E/DX2                !
 ! R141  R(80,82)                1.5016         estimate D2E/DX2                !
 ! R142  R(80,96)                1.8025         estimate D2E/DX2                !
 ! R143  R(81,82)                1.323          estimate D2E/DX2                !
 ! R144  R(83,84)                1.4253         estimate D2E/DX2                !
 ! A1    A(5,1,17)             112.1011         estimate D2E/DX2                !
 ! A2    A(5,1,25)             100.5108         estimate D2E/DX2                !
 ! A3    A(5,1,98)             111.1235         estimate D2E/DX2                !
 ! A4    A(17,1,25)            111.244          estimate D2E/DX2                !
 ! A5    A(17,1,98)            109.5173         estimate D2E/DX2                !
 ! A6    A(25,1,98)            112.1325         estimate D2E/DX2                !
 ! A7    A(6,2,43)             101.1285         estimate D2E/DX2                !
 ! A8    A(6,2,44)             109.1337         estimate D2E/DX2                !
 ! A9    A(6,2,93)             113.6667         estimate D2E/DX2                !
 ! A10   A(43,2,44)            109.4776         estimate D2E/DX2                !
 ! A11   A(43,2,93)            112.5554         estimate D2E/DX2                !
 ! A12   A(44,2,93)            110.4716         estimate D2E/DX2                !
 ! A13   A(7,3,18)             121.9018         estimate D2E/DX2                !
 ! A14   A(7,3,26)             108.3203         estimate D2E/DX2                !
 ! A15   A(18,3,26)            121.5793         estimate D2E/DX2                !
 ! A16   A(8,4,45)             109.8235         estimate D2E/DX2                !
 ! A17   A(8,4,46)             101.5574         estimate D2E/DX2                !
 ! A18   A(8,4,95)             113.3923         estimate D2E/DX2                !
 ! A19   A(45,4,46)            108.8537         estimate D2E/DX2                !
 ! A20   A(45,4,95)            110.2731         estimate D2E/DX2                !
 ! A21   A(46,4,95)            112.5771         estimate D2E/DX2                !
 ! A22   A(1,5,9)              125.071          estimate D2E/DX2                !
 ! A23   A(1,5,29)             110.2767         estimate D2E/DX2                !
 ! A24   A(9,5,29)             119.9704         estimate D2E/DX2                !
 ! A25   A(2,6,10)             122.8377         estimate D2E/DX2                !
 ! A26   A(2,6,15)             111.0861         estimate D2E/DX2                !
 ! A27   A(10,6,15)            119.2345         estimate D2E/DX2                !
 ! A28   A(3,7,12)             121.676          estimate D2E/DX2                !
 ! A29   A(3,7,30)             108.4991         estimate D2E/DX2                !
 ! A30   A(12,7,30)            120.9625         estimate D2E/DX2                !
 ! A31   A(4,8,11)             122.335          estimate D2E/DX2                !
 ! A32   A(4,8,16)             110.2822         estimate D2E/DX2                !
 ! A33   A(11,8,16)            119.976          estimate D2E/DX2                !
 ! A34   A(5,9,13)             116.3543         estimate D2E/DX2                !
 ! A35   A(5,9,35)             120.5365         estimate D2E/DX2                !
 ! A36   A(13,9,35)            118.2524         estimate D2E/DX2                !
 ! A37   A(6,10,49)            122.3556         estimate D2E/DX2                !
 ! A38   A(6,10,53)            119.5497         estimate D2E/DX2                !
 ! A39   A(49,10,53)           112.7682         estimate D2E/DX2                !
 ! A40   A(8,11,50)            122.7412         estimate D2E/DX2                !
 ! A41   A(8,11,54)            119.6804         estimate D2E/DX2                !
 ! A42   A(50,11,54)           110.5593         estimate D2E/DX2                !
 ! A43   A(7,12,14)            115.8569         estimate D2E/DX2                !
 ! A44   A(7,12,36)            120.5337         estimate D2E/DX2                !
 ! A45   A(14,12,36)           118.42           estimate D2E/DX2                !
 ! A46   A(9,13,15)            120.7483         estimate D2E/DX2                !
 ! A47   A(9,13,43)            121.4357         estimate D2E/DX2                !
 ! A48   A(15,13,43)           109.2941         estimate D2E/DX2                !
 ! A49   A(12,14,16)           122.3654         estimate D2E/DX2                !
 ! A50   A(12,14,46)           121.0692         estimate D2E/DX2                !
 ! A51   A(16,14,46)           109.6105         estimate D2E/DX2                !
 ! A52   A(6,15,13)            107.378          estimate D2E/DX2                !
 ! A53   A(6,15,17)            121.8825         estimate D2E/DX2                !
 ! A54   A(13,15,17)           122.8059         estimate D2E/DX2                !
 ! A55   A(8,16,14)            107.9457         estimate D2E/DX2                !
 ! A56   A(8,16,18)            122.1421         estimate D2E/DX2                !
 ! A57   A(14,16,18)           120.9938         estimate D2E/DX2                !
 ! A58   A(1,17,15)            117.0555         estimate D2E/DX2                !
 ! A59   A(1,17,19)            122.0936         estimate D2E/DX2                !
 ! A60   A(15,17,19)           118.6135         estimate D2E/DX2                !
 ! A61   A(3,18,16)            116.244          estimate D2E/DX2                !
 ! A62   A(3,18,20)            118.526          estimate D2E/DX2                !
 ! A63   A(16,18,20)           118.297          estimate D2E/DX2                !
 ! A64   A(17,19,21)           120.5756         estimate D2E/DX2                !
 ! A65   A(17,19,53)           119.0685         estimate D2E/DX2                !
 ! A66   A(21,19,53)           118.0897         estimate D2E/DX2                !
 ! A67   A(18,20,22)           118.1164         estimate D2E/DX2                !
 ! A68   A(18,20,54)           118.4903         estimate D2E/DX2                !
 ! A69   A(22,20,54)           116.2248         estimate D2E/DX2                !
 ! A70   A(19,21,23)           111.2787         estimate D2E/DX2                !
 ! A71   A(19,21,57)           110.5749         estimate D2E/DX2                !
 ! A72   A(19,21,99)           110.2052         estimate D2E/DX2                !
 ! A73   A(23,21,57)           101.1011         estimate D2E/DX2                !
 ! A74   A(23,21,99)           111.7605         estimate D2E/DX2                !
 ! A75   A(57,21,99)           111.6449         estimate D2E/DX2                !
 ! A76   A(20,22,24)           122.1848         estimate D2E/DX2                !
 ! A77   A(20,22,58)           121.0719         estimate D2E/DX2                !
 ! A78   A(24,22,58)           108.0765         estimate D2E/DX2                !
 ! A79   A(21,23,25)           123.409          estimate D2E/DX2                !
 ! A80   A(21,23,61)           112.6686         estimate D2E/DX2                !
 ! A81   A(25,23,61)           120.9999         estimate D2E/DX2                !
 ! A82   A(22,24,26)           119.9015         estimate D2E/DX2                !
 ! A83   A(22,24,62)           111.0494         estimate D2E/DX2                !
 ! A84   A(26,24,62)           121.3745         estimate D2E/DX2                !
 ! A85   A(1,25,23)            122.7453         estimate D2E/DX2                !
 ! A86   A(1,25,27)            112.2429         estimate D2E/DX2                !
 ! A87   A(23,25,27)           121.6415         estimate D2E/DX2                !
 ! A88   A(3,26,24)            119.6721         estimate D2E/DX2                !
 ! A89   A(3,26,28)            111.1861         estimate D2E/DX2                !
 ! A90   A(24,26,28)           121.5666         estimate D2E/DX2                !
 ! A91   A(25,27,29)           100.3289         estimate D2E/DX2                !
 ! A92   A(25,27,65)           111.6213         estimate D2E/DX2                !
 ! A93   A(25,27,85)           112.4794         estimate D2E/DX2                !
 ! A94   A(29,27,65)           108.0137         estimate D2E/DX2                !
 ! A95   A(29,27,85)           114.4412         estimate D2E/DX2                !
 ! A96   A(65,27,85)           109.638          estimate D2E/DX2                !
 ! A97   A(26,28,30)           100.8229         estimate D2E/DX2                !
 ! A98   A(26,28,66)           109.861          estimate D2E/DX2                !
 ! A99   A(26,28,88)           113.7361         estimate D2E/DX2                !
 ! A100  A(30,28,66)           108.6571         estimate D2E/DX2                !
 ! A101  A(30,28,88)           114.3975         estimate D2E/DX2                !
 ! A102  A(66,28,88)           109.0459         estimate D2E/DX2                !
 ! A103  A(5,29,27)            113.0871         estimate D2E/DX2                !
 ! A104  A(5,29,31)            119.9502         estimate D2E/DX2                !
 ! A105  A(27,29,31)           121.8333         estimate D2E/DX2                !
 ! A106  A(7,30,28)            111.1182         estimate D2E/DX2                !
 ! A107  A(7,30,32)            119.5385         estimate D2E/DX2                !
 ! A108  A(28,30,32)           122.0272         estimate D2E/DX2                !
 ! A109  A(29,31,33)           120.8164         estimate D2E/DX2                !
 ! A110  A(29,31,69)           120.7676         estimate D2E/DX2                !
 ! A111  A(33,31,69)           113.1535         estimate D2E/DX2                !
 ! A112  A(30,32,34)           120.9584         estimate D2E/DX2                !
 ! A113  A(30,32,70)           121.169          estimate D2E/DX2                !
 ! A114  A(34,32,70)           111.0132         estimate D2E/DX2                !
 ! A115  A(31,33,35)           121.0917         estimate D2E/DX2                !
 ! A116  A(31,33,73)           109.489          estimate D2E/DX2                !
 ! A117  A(35,33,73)           125.0733         estimate D2E/DX2                !
 ! A118  A(32,34,36)           121.0554         estimate D2E/DX2                !
 ! A119  A(32,34,74)           108.3033         estimate D2E/DX2                !
 ! A120  A(36,34,74)           122.0105         estimate D2E/DX2                !
 ! A121  A(9,35,33)            116.3389         estimate D2E/DX2                !
 ! A122  A(9,35,37)            119.337          estimate D2E/DX2                !
 ! A123  A(33,35,37)           120.4952         estimate D2E/DX2                !
 ! A124  A(12,36,34)           116.2473         estimate D2E/DX2                !
 ! A125  A(12,36,38)           119.5209         estimate D2E/DX2                !
 ! A126  A(34,36,38)           119.5769         estimate D2E/DX2                !
 ! A127  A(35,37,39)           120.3457         estimate D2E/DX2                !
 ! A128  A(35,37,77)           119.1472         estimate D2E/DX2                !
 ! A129  A(39,37,77)           119.049          estimate D2E/DX2                !
 ! A130  A(36,38,42)           120.693          estimate D2E/DX2                !
 ! A131  A(36,38,78)           119.7227         estimate D2E/DX2                !
 ! A132  A(42,38,78)           118.398          estimate D2E/DX2                !
 ! A133  A(37,39,43)           119.7322         estimate D2E/DX2                !
 ! A134  A(37,39,79)           122.5639         estimate D2E/DX2                !
 ! A135  A(43,39,79)           115.5215         estimate D2E/DX2                !
 ! A136  A(41,40,44)           120.7311         estimate D2E/DX2                !
 ! A137  A(41,40,79)           111.3771         estimate D2E/DX2                !
 ! A138  A(44,40,79)           125.7788         estimate D2E/DX2                !
 ! A139  A(40,41,45)           120.7202         estimate D2E/DX2                !
 ! A140  A(40,41,80)           111.4122         estimate D2E/DX2                !
 ! A141  A(45,41,80)           125.5884         estimate D2E/DX2                !
 ! A142  A(38,42,46)           119.7391         estimate D2E/DX2                !
 ! A143  A(38,42,80)           122.0279         estimate D2E/DX2                !
 ! A144  A(46,42,80)           116.1639         estimate D2E/DX2                !
 ! A145  A(2,43,13)            109.9165         estimate D2E/DX2                !
 ! A146  A(2,43,39)            125.0785         estimate D2E/DX2                !
 ! A147  A(13,43,39)           120.6931         estimate D2E/DX2                !
 ! A148  A(2,44,40)            115.8853         estimate D2E/DX2                !
 ! A149  A(2,44,47)            123.4851         estimate D2E/DX2                !
 ! A150  A(40,44,47)           119.4704         estimate D2E/DX2                !
 ! A151  A(4,45,41)            116.2002         estimate D2E/DX2                !
 ! A152  A(4,45,48)            123.43           estimate D2E/DX2                !
 ! A153  A(41,45,48)           119.1884         estimate D2E/DX2                !
 ! A154  A(4,46,14)            109.6186         estimate D2E/DX2                !
 ! A155  A(4,46,42)            125.4318         estimate D2E/DX2                !
 ! A156  A(14,46,42)           120.4009         estimate D2E/DX2                !
 ! A157  A(44,47,48)           119.5534         estimate D2E/DX2                !
 ! A158  A(44,47,49)           119.3064         estimate D2E/DX2                !
 ! A159  A(48,47,49)           120.5138         estimate D2E/DX2                !
 ! A160  A(45,48,47)           120.2724         estimate D2E/DX2                !
 ! A161  A(45,48,50)           119.1398         estimate D2E/DX2                !
 ! A162  A(47,48,50)           119.9359         estimate D2E/DX2                !
 ! A163  A(10,49,47)           108.9702         estimate D2E/DX2                !
 ! A164  A(10,49,51)           100.3911         estimate D2E/DX2                !
 ! A165  A(10,49,91)           113.5333         estimate D2E/DX2                !
 ! A166  A(47,49,51)           111.3181         estimate D2E/DX2                !
 ! A167  A(47,49,91)           108.7382         estimate D2E/DX2                !
 ! A168  A(51,49,91)           113.6614         estimate D2E/DX2                !
 ! A169  A(11,50,48)           109.9959         estimate D2E/DX2                !
 ! A170  A(11,50,52)           101.4024         estimate D2E/DX2                !
 ! A171  A(11,50,92)           113.3324         estimate D2E/DX2                !
 ! A172  A(48,50,52)           110.1099         estimate D2E/DX2                !
 ! A173  A(48,50,92)           109.052          estimate D2E/DX2                !
 ! A174  A(52,50,92)           112.7536         estimate D2E/DX2                !
 ! A175  A(49,51,52)           121.127          estimate D2E/DX2                !
 ! A176  A(49,51,55)           112.4215         estimate D2E/DX2                !
 ! A177  A(52,51,55)           122.0778         estimate D2E/DX2                !
 ! A178  A(50,52,51)           122.9466         estimate D2E/DX2                !
 ! A179  A(50,52,56)           110.2317         estimate D2E/DX2                !
 ! A180  A(51,52,56)           121.4093         estimate D2E/DX2                !
 ! A181  A(10,53,19)           121.5977         estimate D2E/DX2                !
 ! A182  A(10,53,55)           109.9704         estimate D2E/DX2                !
 ! A183  A(19,53,55)           124.8803         estimate D2E/DX2                !
 ! A184  A(11,54,20)           121.3663         estimate D2E/DX2                !
 ! A185  A(11,54,56)           108.9904         estimate D2E/DX2                !
 ! A186  A(20,54,56)           122.0815         estimate D2E/DX2                !
 ! A187  A(51,55,53)           101.0699         estimate D2E/DX2                !
 ! A188  A(51,55,83)           113.089          estimate D2E/DX2                !
 ! A189  A(51,55,101)          111.0561         estimate D2E/DX2                !
 ! A190  A(53,55,83)           110.6668         estimate D2E/DX2                !
 ! A191  A(53,55,101)          111.0411         estimate D2E/DX2                !
 ! A192  A(83,55,101)          109.6903         estimate D2E/DX2                !
 ! A193  A(52,56,54)           108.526          estimate D2E/DX2                !
 ! A194  A(52,56,84)           120.1293         estimate D2E/DX2                !
 ! A195  A(54,56,84)           121.6292         estimate D2E/DX2                !
 ! A196  A(21,57,59)           109.563          estimate D2E/DX2                !
 ! A197  A(21,57,83)           125.0539         estimate D2E/DX2                !
 ! A198  A(59,57,83)           121.7351         estimate D2E/DX2                !
 ! A199  A(22,58,60)           108.4985         estimate D2E/DX2                !
 ! A200  A(22,58,84)           122.3708         estimate D2E/DX2                !
 ! A201  A(60,58,84)           121.2589         estimate D2E/DX2                !
 ! A202  A(57,59,60)           120.5399         estimate D2E/DX2                !
 ! A203  A(57,59,61)           112.768          estimate D2E/DX2                !
 ! A204  A(60,59,61)           121.2059         estimate D2E/DX2                !
 ! A205  A(58,60,59)           119.0746         estimate D2E/DX2                !
 ! A206  A(58,60,62)           111.5963         estimate D2E/DX2                !
 ! A207  A(59,60,62)           122.3757         estimate D2E/DX2                !
 ! A208  A(23,61,59)           100.5853         estimate D2E/DX2                !
 ! A209  A(23,61,63)           111.419          estimate D2E/DX2                !
 ! A210  A(23,61,89)           112.7712         estimate D2E/DX2                !
 ! A211  A(59,61,63)           109.5527         estimate D2E/DX2                !
 ! A212  A(59,61,89)           113.7399         estimate D2E/DX2                !
 ! A213  A(63,61,89)           108.6157         estimate D2E/DX2                !
 ! A214  A(24,62,60)           100.6904         estimate D2E/DX2                !
 ! A215  A(24,62,64)           109.9326         estimate D2E/DX2                !
 ! A216  A(24,62,90)           113.9877         estimate D2E/DX2                !
 ! A217  A(60,62,64)           109.1561         estimate D2E/DX2                !
 ! A218  A(60,62,90)           113.996          estimate D2E/DX2                !
 ! A219  A(64,62,90)           108.8033         estimate D2E/DX2                !
 ! A220  A(61,63,64)           120.363          estimate D2E/DX2                !
 ! A221  A(61,63,65)           119.4391         estimate D2E/DX2                !
 ! A222  A(64,63,65)           119.9155         estimate D2E/DX2                !
 ! A223  A(62,64,63)           119.9316         estimate D2E/DX2                !
 ! A224  A(62,64,66)           120.0134         estimate D2E/DX2                !
 ! A225  A(63,64,66)           119.7855         estimate D2E/DX2                !
 ! A226  A(27,65,63)           118.9901         estimate D2E/DX2                !
 ! A227  A(27,65,67)           120.1432         estimate D2E/DX2                !
 ! A228  A(63,65,67)           120.4809         estimate D2E/DX2                !
 ! A229  A(28,66,64)           119.8183         estimate D2E/DX2                !
 ! A230  A(28,66,68)           119.6892         estimate D2E/DX2                !
 ! A231  A(64,66,68)           120.1874         estimate D2E/DX2                !
 ! A232  A(65,67,68)           119.4302         estimate D2E/DX2                !
 ! A233  A(65,67,69)           120.0029         estimate D2E/DX2                !
 ! A234  A(68,67,69)           120.2442         estimate D2E/DX2                !
 ! A235  A(66,68,67)           120.1891         estimate D2E/DX2                !
 ! A236  A(66,68,70)           119.8725         estimate D2E/DX2                !
 ! A237  A(67,68,70)           119.648          estimate D2E/DX2                !
 ! A238  A(31,69,67)           107.4934         estimate D2E/DX2                !
 ! A239  A(31,69,71)           100.1635         estimate D2E/DX2                !
 ! A240  A(31,69,86)           114.4187         estimate D2E/DX2                !
 ! A241  A(67,69,71)           111.9229         estimate D2E/DX2                !
 ! A242  A(67,69,86)           108.8139         estimate D2E/DX2                !
 ! A243  A(71,69,86)           113.7246         estimate D2E/DX2                !
 ! A244  A(32,70,68)           108.6797         estimate D2E/DX2                !
 ! A245  A(32,70,72)           100.9746         estimate D2E/DX2                !
 ! A246  A(32,70,87)           114.3724         estimate D2E/DX2                !
 ! A247  A(68,70,72)           110.5985         estimate D2E/DX2                !
 ! A248  A(68,70,87)           108.8442         estimate D2E/DX2                !
 ! A249  A(72,70,87)           113.1317         estimate D2E/DX2                !
 ! A250  A(69,71,72)           120.8886         estimate D2E/DX2                !
 ! A251  A(69,71,73)           111.643          estimate D2E/DX2                !
 ! A252  A(72,71,73)           121.8378         estimate D2E/DX2                !
 ! A253  A(70,72,71)           122.7831         estimate D2E/DX2                !
 ! A254  A(70,72,74)           109.869          estimate D2E/DX2                !
 ! A255  A(71,72,74)           121.0114         estimate D2E/DX2                !
 ! A256  A(33,73,71)           100.9233         estimate D2E/DX2                !
 ! A257  A(33,73,75)           109.8586         estimate D2E/DX2                !
 ! A258  A(33,73,102)          110.0503         estimate D2E/DX2                !
 ! A259  A(71,73,75)           112.65           estimate D2E/DX2                !
 ! A260  A(71,73,102)          111.709          estimate D2E/DX2                !
 ! A261  A(75,73,102)          111.1897         estimate D2E/DX2                !
 ! A262  A(34,74,72)           109.1979         estimate D2E/DX2                !
 ! A263  A(34,74,76)           119.6062         estimate D2E/DX2                !
 ! A264  A(72,74,76)           118.883          estimate D2E/DX2                !
 ! A265  A(73,75,76)           122.4167         estimate D2E/DX2                !
 ! A266  A(73,75,77)           122.9339         estimate D2E/DX2                !
 ! A267  A(76,75,77)           111.8637         estimate D2E/DX2                !
 ! A268  A(74,76,75)           121.162          estimate D2E/DX2                !
 ! A269  A(74,76,78)           120.975          estimate D2E/DX2                !
 ! A270  A(75,76,78)           112.9193         estimate D2E/DX2                !
 ! A271  A(37,77,75)           113.0466         estimate D2E/DX2                !
 ! A272  A(37,77,81)           111.182          estimate D2E/DX2                !
 ! A273  A(37,77,97)           108.1868         estimate D2E/DX2                !
 ! A274  A(75,77,81)           101.0227         estimate D2E/DX2                !
 ! A275  A(75,77,97)           111.8921         estimate D2E/DX2                !
 ! A276  A(81,77,97)           111.455          estimate D2E/DX2                !
 ! A277  A(38,78,76)           112.6705         estimate D2E/DX2                !
 ! A278  A(38,78,81)           112.2128         estimate D2E/DX2                !
 ! A279  A(38,78,100)          108.1605         estimate D2E/DX2                !
 ! A280  A(76,78,81)           100.3285         estimate D2E/DX2                !
 ! A281  A(76,78,100)          111.4604         estimate D2E/DX2                !
 ! A282  A(81,78,100)          111.9485         estimate D2E/DX2                !
 ! A283  A(39,79,40)           109.0757         estimate D2E/DX2                !
 ! A284  A(39,79,82)           111.9777         estimate D2E/DX2                !
 ! A285  A(39,79,94)           110.6669         estimate D2E/DX2                !
 ! A286  A(40,79,82)           100.1765         estimate D2E/DX2                !
 ! A287  A(40,79,94)           111.9123         estimate D2E/DX2                !
 ! A288  A(82,79,94)           112.5949         estimate D2E/DX2                !
 ! A289  A(41,80,42)           108.5965         estimate D2E/DX2                !
 ! A290  A(41,80,82)           100.2501         estimate D2E/DX2                !
 ! A291  A(41,80,96)           112.0504         estimate D2E/DX2                !
 ! A292  A(42,80,82)           112.4981         estimate D2E/DX2                !
 ! A293  A(42,80,96)           110.6368         estimate D2E/DX2                !
 ! A294  A(82,80,96)           112.3739         estimate D2E/DX2                !
 ! A295  A(77,81,78)           111.8154         estimate D2E/DX2                !
 ! A296  A(77,81,82)           122.8207         estimate D2E/DX2                !
 ! A297  A(78,81,82)           122.602          estimate D2E/DX2                !
 ! A298  A(79,82,80)           111.8722         estimate D2E/DX2                !
 ! A299  A(79,82,81)           122.1827         estimate D2E/DX2                !
 ! A300  A(80,82,81)           122.2009         estimate D2E/DX2                !
 ! A301  A(55,83,57)           118.5457         estimate D2E/DX2                !
 ! A302  A(55,83,84)           120.119          estimate D2E/DX2                !
 ! A303  A(57,83,84)           118.6807         estimate D2E/DX2                !
 ! A304  A(56,84,58)           115.8612         estimate D2E/DX2                !
 ! A305  A(56,84,83)           119.867          estimate D2E/DX2                !
 ! A306  A(58,84,83)           118.6356         estimate D2E/DX2                !
 ! D1    D(17,1,5,9)            20.3668         estimate D2E/DX2                !
 ! D2    D(17,1,5,29)         -135.148          estimate D2E/DX2                !
 ! D3    D(25,1,5,9)           138.602          estimate D2E/DX2                !
 ! D4    D(25,1,5,29)          -16.9128         estimate D2E/DX2                !
 ! D5    D(98,1,5,9)          -102.5518         estimate D2E/DX2                !
 ! D6    D(98,1,5,29)          101.9335         estimate D2E/DX2                !
 ! D7    D(5,1,17,15)          -27.9297         estimate D2E/DX2                !
 ! D8    D(5,1,17,19)          134.8277         estimate D2E/DX2                !
 ! D9    D(25,1,17,15)        -139.5904         estimate D2E/DX2                !
 ! D10   D(25,1,17,19)          23.167          estimate D2E/DX2                !
 ! D11   D(98,1,17,15)          95.892          estimate D2E/DX2                !
 ! D12   D(98,1,17,19)        -101.3506         estimate D2E/DX2                !
 ! D13   D(5,1,25,23)         -140.5127         estimate D2E/DX2                !
 ! D14   D(5,1,25,27)           19.0203         estimate D2E/DX2                !
 ! D15   D(17,1,25,23)         -21.6515         estimate D2E/DX2                !
 ! D16   D(17,1,25,27)         137.8816         estimate D2E/DX2                !
 ! D17   D(98,1,25,23)         101.3785         estimate D2E/DX2                !
 ! D18   D(98,1,25,27)         -99.0884         estimate D2E/DX2                !
 ! D19   D(43,2,6,10)         -141.2427         estimate D2E/DX2                !
 ! D20   D(43,2,6,15)            9.4299         estimate D2E/DX2                !
 ! D21   D(44,2,6,10)          -25.9054         estimate D2E/DX2                !
 ! D22   D(44,2,6,15)          124.7672         estimate D2E/DX2                !
 ! D23   D(93,2,6,10)           97.8909         estimate D2E/DX2                !
 ! D24   D(93,2,6,15)         -111.4365         estimate D2E/DX2                !
 ! D25   D(6,2,43,13)          -10.9636         estimate D2E/DX2                !
 ! D26   D(6,2,43,39)          145.6499         estimate D2E/DX2                !
 ! D27   D(44,2,43,13)        -126.0449         estimate D2E/DX2                !
 ! D28   D(44,2,43,39)          30.5686         estimate D2E/DX2                !
 ! D29   D(93,2,43,13)         110.6842         estimate D2E/DX2                !
 ! D30   D(93,2,43,39)         -92.7023         estimate D2E/DX2                !
 ! D31   D(6,2,44,40)         -144.0342         estimate D2E/DX2                !
 ! D32   D(6,2,44,47)           23.5631         estimate D2E/DX2                !
 ! D33   D(43,2,44,40)         -34.1937         estimate D2E/DX2                !
 ! D34   D(43,2,44,47)         133.4036         estimate D2E/DX2                !
 ! D35   D(93,2,44,40)          90.3005         estimate D2E/DX2                !
 ! D36   D(93,2,44,47)        -102.1022         estimate D2E/DX2                !
 ! D37   D(18,3,7,12)            3.5074         estimate D2E/DX2                !
 ! D38   D(18,3,7,30)          151.0636         estimate D2E/DX2                !
 ! D39   D(26,3,7,12)         -145.3517         estimate D2E/DX2                !
 ! D40   D(26,3,7,30)            2.2044         estimate D2E/DX2                !
 ! D41   D(7,3,18,16)            5.6475         estimate D2E/DX2                !
 ! D42   D(7,3,18,20)         -144.7562         estimate D2E/DX2                !
 ! D43   D(26,3,18,16)         150.4589         estimate D2E/DX2                !
 ! D44   D(26,3,18,20)           0.0553         estimate D2E/DX2                !
 ! D45   D(7,3,26,24)          147.7086         estimate D2E/DX2                !
 ! D46   D(7,3,26,28)           -2.4031         estimate D2E/DX2                !
 ! D47   D(18,3,26,24)          -1.2707         estimate D2E/DX2                !
 ! D48   D(18,3,26,28)        -151.3824         estimate D2E/DX2                !
 ! D49   D(45,4,8,11)           25.5997         estimate D2E/DX2                !
 ! D50   D(45,4,8,16)         -124.2102         estimate D2E/DX2                !
 ! D51   D(46,4,8,11)          140.7083         estimate D2E/DX2                !
 ! D52   D(46,4,8,16)           -9.1017         estimate D2E/DX2                !
 ! D53   D(95,4,8,11)          -98.2657         estimate D2E/DX2                !
 ! D54   D(95,4,8,16)          111.9243         estimate D2E/DX2                !
 ! D55   D(8,4,45,41)          144.5971         estimate D2E/DX2                !
 ! D56   D(8,4,45,48)          -22.8516         estimate D2E/DX2                !
 ! D57   D(46,4,45,41)          34.2235         estimate D2E/DX2                !
 ! D58   D(46,4,45,48)        -133.2253         estimate D2E/DX2                !
 ! D59   D(95,4,45,41)         -89.7368         estimate D2E/DX2                !
 ! D60   D(95,4,45,48)         102.8145         estimate D2E/DX2                !
 ! D61   D(8,4,46,14)            9.7602         estimate D2E/DX2                !
 ! D62   D(8,4,46,42)         -146.1566         estimate D2E/DX2                !
 ! D63   D(45,4,46,14)         125.5835         estimate D2E/DX2                !
 ! D64   D(45,4,46,42)         -30.3333         estimate D2E/DX2                !
 ! D65   D(95,4,46,14)        -111.8343         estimate D2E/DX2                !
 ! D66   D(95,4,46,42)          92.2489         estimate D2E/DX2                !
 ! D67   D(1,5,9,13)            -2.8323         estimate D2E/DX2                !
 ! D68   D(1,5,9,35)          -157.7326         estimate D2E/DX2                !
 ! D69   D(29,5,9,13)          150.502          estimate D2E/DX2                !
 ! D70   D(29,5,9,35)           -4.3983         estimate D2E/DX2                !
 ! D71   D(1,5,29,27)            9.5689         estimate D2E/DX2                !
 ! D72   D(1,5,29,31)          164.7112         estimate D2E/DX2                !
 ! D73   D(9,5,29,27)         -147.379          estimate D2E/DX2                !
 ! D74   D(9,5,29,31)            7.7634         estimate D2E/DX2                !
 ! D75   D(2,6,10,49)           -1.9044         estimate D2E/DX2                !
 ! D76   D(2,6,10,53)          150.4452         estimate D2E/DX2                !
 ! D77   D(15,6,10,49)        -150.3231         estimate D2E/DX2                !
 ! D78   D(15,6,10,53)           2.0265         estimate D2E/DX2                !
 ! D79   D(2,6,15,13)           -4.7931         estimate D2E/DX2                !
 ! D80   D(2,6,15,17)         -154.4754         estimate D2E/DX2                !
 ! D81   D(10,6,15,13)         147.0685         estimate D2E/DX2                !
 ! D82   D(10,6,15,17)          -2.6138         estimate D2E/DX2                !
 ! D83   D(3,7,12,14)           -8.6241         estimate D2E/DX2                !
 ! D84   D(3,7,12,36)          145.519          estimate D2E/DX2                !
 ! D85   D(30,7,12,14)        -152.233          estimate D2E/DX2                !
 ! D86   D(30,7,12,36)           1.9102         estimate D2E/DX2                !
 ! D87   D(3,7,30,28)           -1.2342         estimate D2E/DX2                !
 ! D88   D(3,7,30,32)         -151.9608         estimate D2E/DX2                !
 ! D89   D(12,7,30,28)         146.5965         estimate D2E/DX2                !
 ! D90   D(12,7,30,32)          -4.1301         estimate D2E/DX2                !
 ! D91   D(4,8,11,50)            0.4691         estimate D2E/DX2                !
 ! D92   D(4,8,11,54)         -147.4212         estimate D2E/DX2                !
 ! D93   D(16,8,11,50)         147.4765         estimate D2E/DX2                !
 ! D94   D(16,8,11,54)          -0.4137         estimate D2E/DX2                !
 ! D95   D(4,8,16,14)            5.3958         estimate D2E/DX2                !
 ! D96   D(4,8,16,18)          152.8278         estimate D2E/DX2                !
 ! D97   D(11,8,16,14)        -145.2304         estimate D2E/DX2                !
 ! D98   D(11,8,16,18)           2.2016         estimate D2E/DX2                !
 ! D99   D(5,9,13,15)           -7.6108         estimate D2E/DX2                !
 ! D100  D(5,9,13,43)         -152.1228         estimate D2E/DX2                !
 ! D101  D(35,9,13,15)         147.8842         estimate D2E/DX2                !
 ! D102  D(35,9,13,43)           3.3721         estimate D2E/DX2                !
 ! D103  D(5,9,35,33)           -5.4494         estimate D2E/DX2                !
 ! D104  D(5,9,35,37)          152.6446         estimate D2E/DX2                !
 ! D105  D(13,9,35,33)        -159.8858         estimate D2E/DX2                !
 ! D106  D(13,9,35,37)          -1.7918         estimate D2E/DX2                !
 ! D107  D(6,10,49,47)          31.4226         estimate D2E/DX2                !
 ! D108  D(6,10,49,51)         148.4148         estimate D2E/DX2                !
 ! D109  D(6,10,49,91)         -89.9239         estimate D2E/DX2                !
 ! D110  D(53,10,49,47)       -122.6119         estimate D2E/DX2                !
 ! D111  D(53,10,49,51)         -5.6198         estimate D2E/DX2                !
 ! D112  D(53,10,49,91)        116.0415         estimate D2E/DX2                !
 ! D113  D(6,10,53,19)          -1.2185         estimate D2E/DX2                !
 ! D114  D(6,10,53,55)        -160.9189         estimate D2E/DX2                !
 ! D115  D(49,10,53,19)        153.6212         estimate D2E/DX2                !
 ! D116  D(49,10,53,55)         -6.0792         estimate D2E/DX2                !
 ! D117  D(8,11,50,48)         -29.1373         estimate D2E/DX2                !
 ! D118  D(8,11,50,52)        -145.6652         estimate D2E/DX2                !
 ! D119  D(8,11,50,92)          93.2244         estimate D2E/DX2                !
 ! D120  D(54,11,50,48)        121.3103         estimate D2E/DX2                !
 ! D121  D(54,11,50,52)          4.7825         estimate D2E/DX2                !
 ! D122  D(54,11,50,92)       -116.3279         estimate D2E/DX2                !
 ! D123  D(8,11,54,20)          -1.296          estimate D2E/DX2                !
 ! D124  D(8,11,54,56)         148.8873         estimate D2E/DX2                !
 ! D125  D(50,11,54,20)       -152.7734         estimate D2E/DX2                !
 ! D126  D(50,11,54,56)         -2.5901         estimate D2E/DX2                !
 ! D127  D(7,12,14,16)           4.8669         estimate D2E/DX2                !
 ! D128  D(7,12,14,46)         152.6199         estimate D2E/DX2                !
 ! D129  D(36,12,14,16)       -149.8479         estimate D2E/DX2                !
 ! D130  D(36,12,14,46)         -2.095          estimate D2E/DX2                !
 ! D131  D(7,12,36,34)           4.8458         estimate D2E/DX2                !
 ! D132  D(7,12,36,38)        -150.8889         estimate D2E/DX2                !
 ! D133  D(14,12,36,34)        158.3429         estimate D2E/DX2                !
 ! D134  D(14,12,36,38)          2.6082         estimate D2E/DX2                !
 ! D135  D(9,13,15,6)         -150.9389         estimate D2E/DX2                !
 ! D136  D(9,13,15,17)          -1.601          estimate D2E/DX2                !
 ! D137  D(43,13,15,6)          -2.5937         estimate D2E/DX2                !
 ! D138  D(43,13,15,17)        146.7442         estimate D2E/DX2                !
 ! D139  D(9,13,43,2)          156.938          estimate D2E/DX2                !
 ! D140  D(9,13,43,39)          -0.8674         estimate D2E/DX2                !
 ! D141  D(15,13,43,2)           8.8497         estimate D2E/DX2                !
 ! D142  D(15,13,43,39)       -148.9558         estimate D2E/DX2                !
 ! D143  D(12,14,16,8)         152.1315         estimate D2E/DX2                !
 ! D144  D(12,14,16,18)          4.2526         estimate D2E/DX2                !
 ! D145  D(46,14,16,8)           1.155          estimate D2E/DX2                !
 ! D146  D(46,14,16,18)       -146.7238         estimate D2E/DX2                !
 ! D147  D(12,14,46,4)        -158.6018         estimate D2E/DX2                !
 ! D148  D(12,14,46,42)         -1.2763         estimate D2E/DX2                !
 ! D149  D(16,14,46,4)          -7.1848         estimate D2E/DX2                !
 ! D150  D(16,14,46,42)        150.1407         estimate D2E/DX2                !
 ! D151  D(6,15,17,1)          165.6399         estimate D2E/DX2                !
 ! D152  D(6,15,17,19)           2.2619         estimate D2E/DX2                !
 ! D153  D(13,15,17,1)          20.6114         estimate D2E/DX2                !
 ! D154  D(13,15,17,19)       -142.7667         estimate D2E/DX2                !
 ! D155  D(8,16,18,3)         -152.6625         estimate D2E/DX2                !
 ! D156  D(8,16,18,20)          -2.1885         estimate D2E/DX2                !
 ! D157  D(14,16,18,3)          -9.3468         estimate D2E/DX2                !
 ! D158  D(14,16,18,20)        141.1271         estimate D2E/DX2                !
 ! D159  D(1,17,19,21)          -1.2861         estimate D2E/DX2                !
 ! D160  D(1,17,19,53)        -163.8651         estimate D2E/DX2                !
 ! D161  D(15,17,19,21)        161.214          estimate D2E/DX2                !
 ! D162  D(15,17,19,53)         -1.365          estimate D2E/DX2                !
 ! D163  D(3,18,20,22)           0.9313         estimate D2E/DX2                !
 ! D164  D(3,18,20,54)         150.2534         estimate D2E/DX2                !
 ! D165  D(16,18,20,22)       -148.8637         estimate D2E/DX2                !
 ! D166  D(16,18,20,54)          0.4584         estimate D2E/DX2                !
 ! D167  D(17,19,21,23)        -22.1444         estimate D2E/DX2                !
 ! D168  D(17,19,21,57)       -133.6689         estimate D2E/DX2                !
 ! D169  D(17,19,21,99)        102.4157         estimate D2E/DX2                !
 ! D170  D(53,19,21,23)        140.6011         estimate D2E/DX2                !
 ! D171  D(53,19,21,57)         29.0766         estimate D2E/DX2                !
 ! D172  D(53,19,21,99)        -94.8388         estimate D2E/DX2                !
 ! D173  D(17,19,53,10)          0.8744         estimate D2E/DX2                !
 ! D174  D(17,19,53,55)        157.4539         estimate D2E/DX2                !
 ! D175  D(21,19,53,10)       -162.1372         estimate D2E/DX2                !
 ! D176  D(21,19,53,55)         -5.5577         estimate D2E/DX2                !
 ! D177  D(18,20,22,24)         -0.784          estimate D2E/DX2                !
 ! D178  D(18,20,22,58)        143.0465         estimate D2E/DX2                !
 ! D179  D(54,20,22,24)       -150.792          estimate D2E/DX2                !
 ! D180  D(54,20,22,58)         -6.9616         estimate D2E/DX2                !
 ! D181  D(18,20,54,11)          1.2587         estimate D2E/DX2                !
 ! D182  D(18,20,54,56)       -145.0373         estimate D2E/DX2                !
 ! D183  D(22,20,54,11)        151.1503         estimate D2E/DX2                !
 ! D184  D(22,20,54,56)          4.8543         estimate D2E/DX2                !
 ! D185  D(19,21,23,25)         24.5901         estimate D2E/DX2                !
 ! D186  D(19,21,23,61)       -136.1676         estimate D2E/DX2                !
 ! D187  D(57,21,23,25)        142.0256         estimate D2E/DX2                !
 ! D188  D(57,21,23,61)        -18.732          estimate D2E/DX2                !
 ! D189  D(99,21,23,25)        -99.0897         estimate D2E/DX2                !
 ! D190  D(99,21,23,61)        100.1527         estimate D2E/DX2                !
 ! D191  D(19,21,57,59)        133.6729         estimate D2E/DX2                !
 ! D192  D(19,21,57,83)        -24.954          estimate D2E/DX2                !
 ! D193  D(23,21,57,59)         15.7246         estimate D2E/DX2                !
 ! D194  D(23,21,57,83)       -142.9023         estimate D2E/DX2                !
 ! D195  D(99,21,57,59)       -103.2434         estimate D2E/DX2                !
 ! D196  D(99,21,57,83)         98.1297         estimate D2E/DX2                !
 ! D197  D(20,22,24,26)         -0.4225         estimate D2E/DX2                !
 ! D198  D(20,22,24,62)        149.441          estimate D2E/DX2                !
 ! D199  D(58,22,24,26)       -148.2992         estimate D2E/DX2                !
 ! D200  D(58,22,24,62)          1.5643         estimate D2E/DX2                !
 ! D201  D(20,22,58,60)       -147.9016         estimate D2E/DX2                !
 ! D202  D(20,22,58,84)          1.4078         estimate D2E/DX2                !
 ! D203  D(24,22,58,60)          0.4019         estimate D2E/DX2                !
 ! D204  D(24,22,58,84)        149.7113         estimate D2E/DX2                !
 ! D205  D(21,23,25,1)          -2.347          estimate D2E/DX2                !
 ! D206  D(21,23,25,27)       -160.0035         estimate D2E/DX2                !
 ! D207  D(61,23,25,1)         156.8731         estimate D2E/DX2                !
 ! D208  D(61,23,25,27)         -0.7834         estimate D2E/DX2                !
 ! D209  D(21,23,61,59)         14.2208         estimate D2E/DX2                !
 ! D210  D(21,23,61,63)        130.2632         estimate D2E/DX2                !
 ! D211  D(21,23,61,89)       -107.2874         estimate D2E/DX2                !
 ! D212  D(25,23,61,59)       -147.0588         estimate D2E/DX2                !
 ! D213  D(25,23,61,63)        -31.0164         estimate D2E/DX2                !
 ! D214  D(25,23,61,89)         91.4329         estimate D2E/DX2                !
 ! D215  D(22,24,26,3)           1.4308         estimate D2E/DX2                !
 ! D216  D(22,24,26,28)        148.3842         estimate D2E/DX2                !
 ! D217  D(62,24,26,3)        -145.2841         estimate D2E/DX2                !
 ! D218  D(62,24,26,28)          1.6693         estimate D2E/DX2                !
 ! D219  D(22,24,62,60)         -2.6929         estimate D2E/DX2                !
 ! D220  D(22,24,62,64)       -117.7599         estimate D2E/DX2                !
 ! D221  D(22,24,62,90)        119.7853         estimate D2E/DX2                !
 ! D222  D(26,24,62,60)        146.6588         estimate D2E/DX2                !
 ! D223  D(26,24,62,64)         31.5919         estimate D2E/DX2                !
 ! D224  D(26,24,62,90)        -90.863          estimate D2E/DX2                !
 ! D225  D(1,25,27,29)         -13.9382         estimate D2E/DX2                !
 ! D226  D(1,25,27,65)        -128.1661         estimate D2E/DX2                !
 ! D227  D(1,25,27,85)         108.106          estimate D2E/DX2                !
 ! D228  D(23,25,27,29)        145.8525         estimate D2E/DX2                !
 ! D229  D(23,25,27,65)         31.6246         estimate D2E/DX2                !
 ! D230  D(23,25,27,85)        -92.1033         estimate D2E/DX2                !
 ! D231  D(3,26,28,30)           1.5571         estimate D2E/DX2                !
 ! D232  D(3,26,28,66)         116.0985         estimate D2E/DX2                !
 ! D233  D(3,26,28,88)        -121.3632         estimate D2E/DX2                !
 ! D234  D(24,26,28,30)       -147.9016         estimate D2E/DX2                !
 ! D235  D(24,26,28,66)        -33.3601         estimate D2E/DX2                !
 ! D236  D(24,26,28,88)         89.1782         estimate D2E/DX2                !
 ! D237  D(25,27,29,5)           2.5055         estimate D2E/DX2                !
 ! D238  D(25,27,29,31)       -152.1085         estimate D2E/DX2                !
 ! D239  D(65,27,29,5)         119.4489         estimate D2E/DX2                !
 ! D240  D(65,27,29,31)        -35.1651         estimate D2E/DX2                !
 ! D241  D(85,27,29,5)        -118.1408         estimate D2E/DX2                !
 ! D242  D(85,27,29,31)         87.2452         estimate D2E/DX2                !
 ! D243  D(25,27,65,63)        -29.4863         estimate D2E/DX2                !
 ! D244  D(25,27,65,67)        143.4189         estimate D2E/DX2                !
 ! D245  D(29,27,65,63)       -138.8583         estimate D2E/DX2                !
 ! D246  D(29,27,65,67)         34.047          estimate D2E/DX2                !
 ! D247  D(85,27,65,63)         95.8323         estimate D2E/DX2                !
 ! D248  D(85,27,65,67)        -91.2625         estimate D2E/DX2                !
 ! D249  D(26,28,30,7)          -0.1873         estimate D2E/DX2                !
 ! D250  D(26,28,30,32)        149.6937         estimate D2E/DX2                !
 ! D251  D(66,28,30,7)        -115.6311         estimate D2E/DX2                !
 ! D252  D(66,28,30,32)         34.2499         estimate D2E/DX2                !
[...]
 Alpha virt. eigenvalues --    1.57720   1.58336   1.58864   1.59255   1.59971
 Alpha virt. eigenvalues --    1.60346   1.60638   1.61157   1.61568   1.61714
 Alpha virt. eigenvalues --    1.62172   1.62439   1.62595   1.62852   1.63025
 Alpha virt. eigenvalues --    1.63298   1.63497   1.63717   1.63800   1.63949
 Alpha virt. eigenvalues --    1.64510   1.64603   1.65049   1.65089   1.65240
 Alpha virt. eigenvalues --    1.65685   1.65795   1.66221   1.66527   1.66725
 Alpha virt. eigenvalues --    1.66846   1.67268   1.67456   1.67665   1.67721
 Alpha virt. eigenvalues --    1.68011   1.68193   1.68260   1.68603   1.68809
 Alpha virt. eigenvalues --    1.68972   1.69093   1.69321   1.69665   1.69859
 Alpha virt. eigenvalues --    1.70182   1.70534   1.70592   1.70796   1.71147
 Alpha virt. eigenvalues --    1.71362   1.71543   1.72079   1.72183   1.72286
 Alpha virt. eigenvalues --    1.72643   1.72822   1.72954   1.73536   1.73621
 Alpha virt. eigenvalues --    1.73999   1.74201   1.74435   1.74712   1.74875
 Alpha virt. eigenvalues --    1.75149   1.75200   1.75462   1.75663   1.75844
 Alpha virt. eigenvalues --    1.76161   1.76387   1.76450   1.76699   1.76841
 Alpha virt. eigenvalues --    1.77289   1.77496   1.77522   1.77753   1.78029
 Alpha virt. eigenvalues --    1.78116   1.78486   1.78788   1.78850   1.78996
 Alpha virt. eigenvalues --    1.79303   1.79642   1.79843   1.80057   1.80467
 Alpha virt. eigenvalues --    1.80587   1.80743   1.81013   1.81357   1.81579
 Alpha virt. eigenvalues --    1.81743   1.81964   1.82108   1.82340   1.82438
 Alpha virt. eigenvalues --    1.82793   1.83078   1.83445   1.83592   1.83877
 Alpha virt. eigenvalues --    1.84075   1.84405   1.84880   1.84952   1.85051
 Alpha virt. eigenvalues --    1.85634   1.85837   1.86094   1.86572   1.86781
 Alpha virt. eigenvalues --    1.87263   1.87385   1.87735   1.87919   1.88105
 Alpha virt. eigenvalues --    1.88434   1.88614   1.88974   1.89456   1.89573
 Alpha virt. eigenvalues --    1.89878   1.90446   1.90722   1.91210   1.91687
 Alpha virt. eigenvalues --    1.92017   1.92336   1.92551   1.93118   1.93539
 Alpha virt. eigenvalues --    1.93668   1.94031   1.94316   1.94695   1.95061
 Alpha virt. eigenvalues --    1.95248   1.95798   1.96030   1.96456   1.96747
 Alpha virt. eigenvalues --    1.96916   1.97400   1.97929   1.98152   1.98314
 Alpha virt. eigenvalues --    1.98418   1.98727   1.99146   1.99899   2.00103
 Alpha virt. eigenvalues --    2.00661   2.00836   2.01056   2.01403   2.01987
 Alpha virt. eigenvalues --    2.02017   2.02321   2.02402   2.03164   2.03404
 Alpha virt. eigenvalues --    2.03655   2.04300   2.04405   2.04853   2.05687
 Alpha virt. eigenvalues --    2.05894   2.06397   2.06772   2.06982   2.07296
 Alpha virt. eigenvalues --    2.07547   2.08106   2.08558   2.08625   2.09169
 Alpha virt. eigenvalues --    2.09468   2.09757   2.10043   2.10689   2.11006
 Alpha virt. eigenvalues --    2.11501   2.11651   2.11780   2.12636   2.12967
 Alpha virt. eigenvalues --    2.13190   2.13304   2.13824   2.14103   2.14472
 Alpha virt. eigenvalues --    2.15106   2.15311   2.15769   2.16296   2.16765
 Alpha virt. eigenvalues --    2.16997   2.17656   2.17894   2.18454   2.18895
 Alpha virt. eigenvalues --    2.19015   2.19457   2.19670   2.20181   2.20567
 Alpha virt. eigenvalues --    2.20819   2.21431   2.21502   2.21979   2.22058
 Alpha virt. eigenvalues --    2.22473   2.23008   2.23652   2.23695   2.23954
 Alpha virt. eigenvalues --    2.24704   2.24952   2.25517   2.25631   2.26248
 Alpha virt. eigenvalues --    2.26394   2.26757   2.26839   2.27491   2.28222
 Alpha virt. eigenvalues --    2.28478   2.29130   2.29597   2.30111   2.30477
 Alpha virt. eigenvalues --    2.30793   2.31129   2.31540   2.31985   2.33371
 Alpha virt. eigenvalues --    2.33592   2.34008   2.34309   2.34672   2.34950
 Alpha virt. eigenvalues --    2.35502   2.36222   2.36947   2.37389   2.37556
 Alpha virt. eigenvalues --    2.37983   2.38405   2.38972   2.39361   2.39852
 Alpha virt. eigenvalues --    2.40313   2.40670   2.41165   2.41387   2.41615
 Alpha virt. eigenvalues --    2.43103   2.43213   2.43748   2.44266   2.44594
 Alpha virt. eigenvalues --    2.45178   2.45593   2.46366   2.46420   2.46799
 Alpha virt. eigenvalues --    2.47377   2.47571   2.48341   2.48682   2.48879
 Alpha virt. eigenvalues --    2.49438   2.49817   2.50197   2.50608   2.51528
 Alpha virt. eigenvalues --    2.51679   2.52242   2.52464   2.52973   2.53356
 Alpha virt. eigenvalues --    2.53529   2.53972   2.54334   2.54797   2.55024
 Alpha virt. eigenvalues --    2.55328   2.56135   2.56591   2.56796   2.56885
 Alpha virt. eigenvalues --    2.57029   2.57267   2.57671   2.58457   2.58556
 Alpha virt. eigenvalues --    2.58834   2.59188   2.59831   2.59885   2.60249
 Alpha virt. eigenvalues --    2.60375   2.60819   2.60931   2.61238   2.62043
 Alpha virt. eigenvalues --    2.62458   2.62819   2.63231   2.63316   2.64120
 Alpha virt. eigenvalues --    2.64435   2.65037   2.65381   2.65425   2.65531
 Alpha virt. eigenvalues --    2.66014   2.66493   2.66712   2.67215   2.67721
 Alpha virt. eigenvalues --    2.67849   2.68295   2.68653   2.69058   2.69208
 Alpha virt. eigenvalues --    2.69307   2.69556   2.69760   2.70327   2.70521
 Alpha virt. eigenvalues --    2.71433   2.71469   2.71599   2.72165   2.72461
 Alpha virt. eigenvalues --    2.72779   2.73545   2.73880   2.74037   2.74496
 Alpha virt. eigenvalues --    2.74781   2.75243   2.75673   2.75930   2.76386
 Alpha virt. eigenvalues --    2.76444   2.77017   2.77148   2.77611   2.78089
 Alpha virt. eigenvalues --    2.78459   2.79452   2.79715   2.80425   2.80647
 Alpha virt. eigenvalues --    2.81012   2.81640   2.82095   2.82575   2.83178
 Alpha virt. eigenvalues --    2.83461   2.83827   2.84093   2.84536   2.85502
 Alpha virt. eigenvalues --    2.86043   2.86472   2.86595   2.87523   2.87849
 Alpha virt. eigenvalues --    2.88377   2.88732   2.89646   2.90002   2.90680
 Alpha virt. eigenvalues --    2.91665   2.91857   2.92746   2.92882   2.93468
 Alpha virt. eigenvalues --    2.93840   2.95489   2.95880   2.96086   2.97197
 Alpha virt. eigenvalues --    2.97346   2.97863   3.00082   3.00953   3.02029
 Alpha virt. eigenvalues --    3.04019   3.05574   3.06544   3.07509   3.07887
 Alpha virt. eigenvalues --    3.09235   3.09732   3.10065   3.11104   3.11543
 Alpha virt. eigenvalues --    3.13547   3.16050   3.16663   3.17198   3.18640
 Alpha virt. eigenvalues --    3.19267   3.20540   3.20607   3.22793   3.25181
 Alpha virt. eigenvalues --    3.26100   3.26737   3.28408   3.30407   3.31169
 Alpha virt. eigenvalues --    3.34704   3.37906   3.38692   3.40752   3.42256
 Alpha virt. eigenvalues --    3.44559   3.47314   3.49997   3.50842   3.55349
 Alpha virt. eigenvalues --    4.00465   4.01766   4.01939   4.02494   4.03648
 Alpha virt. eigenvalues --    4.03920   4.05945   4.06591   4.07018   4.07444
 Alpha virt. eigenvalues --    4.08021   4.08282   4.08751   4.09301   4.10286
 Alpha virt. eigenvalues --    4.10919   4.11856   4.12153   4.14086   4.14969
 Alpha virt. eigenvalues --    4.15144   4.16197   4.16291   4.17717   4.18268
 Alpha virt. eigenvalues --    4.18833   4.19415   4.19739   4.20269   4.20798
 Alpha virt. eigenvalues --    4.20920   4.22538   4.23122   4.24105   4.24731
 Alpha virt. eigenvalues --    4.25120   4.25384   4.25580   4.26481   4.26964
 Alpha virt. eigenvalues --    4.27286   4.27733   4.27928   4.28090   4.28780
 Alpha virt. eigenvalues --    4.29196   4.29624   4.30102   4.30590   4.31220
 Alpha virt. eigenvalues --    4.33134   4.33580   4.34311   4.35389   4.36118
 Alpha virt. eigenvalues --    4.37329   4.38331   4.38480   4.38978   4.39808
 Alpha virt. eigenvalues --    4.41339   4.41807   4.41960   4.42229   4.43426
 Alpha virt. eigenvalues --    4.44204   4.44308   4.45089   4.46347   4.48795
 Alpha virt. eigenvalues --    4.48983   4.49856   4.51673   4.54023   4.54304
 Alpha virt. eigenvalues --    4.55927   4.56330   4.57253   4.58378   4.59880
 Alpha virt. eigenvalues --    4.62144   4.63962   4.65636   4.66387   4.68079
 Alpha virt. eigenvalues --    4.70511   4.72583   4.78098   4.79772   4.80318
 Alpha virt. eigenvalues --    4.82134   4.83934   4.86041   4.90590   4.92892
 Alpha virt. eigenvalues --    4.93756   4.97181   4.99834   5.01413   5.07070
 Alpha virt. eigenvalues --    5.11050   5.19918
          Condensed to atoms (all electrons):
 Mulliken charges:
               1
     1  C   -0.364426
     2  C   -0.394768
     3  C    0.009842
     4  C   -0.389727
     5  C    0.081687
     6  C    0.084500
     7  C    0.008705
     8  C    0.089047
     9  C    0.056713
    10  C    0.129330
    11  C    0.096177
    12  C    0.039057
    13  C   -0.016435
    14  C    0.010297
    15  C    0.044645
    16  C    0.009525
    17  C    0.117858
    18  C    0.045592
    19  C    0.151034
    20  C    0.045133
    21  C   -0.382879
    22  C    0.008299
    23  C    0.178480
    24  C    0.091650
    25  C    0.188254
    26  C    0.091287
    27  C   -0.374787
    28  C   -0.376992
    29  C    0.129762
    30  C    0.085594
    31  C    0.127794
    32  C    0.099930
    33  C    0.057239
    34  C    0.001314
    35  C    0.089787
    36  C    0.072256
    37  C    0.077242
    38  C    0.083174
    39  C    0.155254
    40  C    0.114546
    41  C    0.114811
    42  C    0.158554
    43  C    0.085580
    44  C    0.148552
    45  C    0.148220
    46  C    0.081461
    47  C    0.123930
    48  C    0.121280
    49  C   -0.367696
    50  C   -0.386490
    51  C    0.154477
    52  C    0.112300
    53  C    0.107064
    54  C    0.015658
    55  C   -0.358442
    56  C   -0.013343
    57  C    0.108797
    58  C    0.011549
    59  C    0.131283
    60  C    0.081865
    61  C   -0.369904
    62  C   -0.380936
    63  C    0.123740
    64  C    0.126246
    65  C    0.128954
    66  C    0.129257
    67  C    0.127216
    68  C    0.119325
    69  C   -0.362197
    70  C   -0.377102
    71  C    0.158187
    72  C    0.105861
    73  C   -0.333077
    74  C    0.012329
    75  C    0.184761
    76  C    0.121803
    77  C   -0.341781
    78  C   -0.358487
    79  C   -0.377401
    80  C   -0.379601
    81  C    0.185702
    82  C    0.181687
    83  C    0.121171
    84  C    0.070308
    85  Cl   0.036866
    86  Cl   0.026292
    87  Cl   0.030266
    88  Cl   0.032695
    89  Cl   0.031531
    90  Cl   0.032033
    91  Cl   0.024747
    92  Cl   0.028825
    93  Cl   0.034378
    94  Cl   0.032636
    95  Cl   0.031631
    96  Cl   0.029140
    97  Cl   0.017192
    98  Cl   0.010172
    99  Cl   0.027785
   100  Cl   0.013550
   101  Cl  -0.001265
   102  Cl  -0.004935
 Sum of Mulliken charges =  -0.00000
 Mulliken charges with hydrogens summed into heavy atoms:
               1
     1  C   -0.364426
     2  C   -0.394768
     3  C    0.009842
     4  C   -0.389727
     5  C    0.081687
     6  C    0.084500
     7  C    0.008705
     8  C    0.089047
     9  C    0.056713
    10  C    0.129330
    11  C    0.096177
    12  C    0.039057
    13  C   -0.016435
    14  C    0.010297
    15  C    0.044645
    16  C    0.009525
    17  C    0.117858
    18  C    0.045592
    19  C    0.151034
    20  C    0.045133
    21  C   -0.382879
    22  C    0.008299
    23  C    0.178480
    24  C    0.091650
    25  C    0.188254
    26  C    0.091287
    27  C   -0.374787
    28  C   -0.376992
    29  C    0.129762
    30  C    0.085594
    31  C    0.127794
    32  C    0.099930
    33  C    0.057239
    34  C    0.001314
    35  C    0.089787
    36  C    0.072256
    37  C    0.077242
    38  C    0.083174
    39  C    0.155254
    40  C    0.114546
    41  C    0.114811
    42  C    0.158554
    43  C    0.085580
    44  C    0.148552
    45  C    0.148220
    46  C    0.081461
    47  C    0.123930
    48  C    0.121280
    49  C   -0.367696
    50  C   -0.386490
    51  C    0.154477
    52  C    0.112300
    53  C    0.107064
    54  C    0.015658
    55  C   -0.358442
    56  C   -0.013343
    57  C    0.108797
    58  C    0.011549
    59  C    0.131283
    60  C    0.081865
    61  C   -0.369904
    62  C   -0.380936
    63  C    0.123740
    64  C    0.126246
    65  C    0.128954
    66  C    0.129257
    67  C    0.127216
    68  C    0.119325
    69  C   -0.362197
    70  C   -0.377102
    71  C    0.158187
    72  C    0.105861
    73  C   -0.333077
    74  C    0.012329
    75  C    0.184761
    76  C    0.121803
    77  C   -0.341781
    78  C   -0.358487
    79  C   -0.377401
    80  C   -0.379601
    81  C    0.185702
    82  C    0.181687
    83  C    0.121171
    84  C    0.070308
    85  Cl   0.036866
    86  Cl   0.026292
    87  Cl   0.030266
    88  Cl   0.032695
    89  Cl   0.031531
    90  Cl   0.032033
    91  Cl   0.024747
    92  Cl   0.028825
    93  Cl   0.034378
    94  Cl   0.032636
    95  Cl   0.031631
    96  Cl   0.029140
    97  Cl   0.017192
    98  Cl   0.010172
    99  Cl   0.027785
   100  Cl   0.013550
   101  Cl  -0.001265
   102  Cl  -0.004935
 Electronic spatial extent (au):  <R**2>=          76816.1035
 Charge=              0.0000 electrons
 Dipole moment (field-independent basis, Debye):
    X=              0.7609    Y=             -0.9599    Z=              5.0030  Tot=              5.1507
 Quadrupole moment (field-independent basis, Debye-Ang):
   XX=           -744.2457   YY=           -732.6065   ZZ=           -692.3338
   XY=              1.1329   XZ=              0.0939   YZ=             -0.8345
 Traceless Quadrupole moment (field-independent basis, Debye-Ang):
   XX=            -21.1837   YY=             -9.5445   ZZ=             30.7282
   XY=              1.1329   XZ=              0.0939   YZ=             -0.8345
 Octapole moment (field-independent basis, Debye-Ang**2):
  XXX=             -8.5173  YYY=             -0.1976  ZZZ=              8.8593  XYY=            -21.2191
  XXY=             -8.2393  XXZ=            -20.6263  XZZ=             25.8758  YZZ=            -10.1035
  YYZ=             64.2270  XYZ=             18.4459
 Hexadecapole moment (field-independent basis, Debye-Ang**3):
 XXXX=         -40213.4442 YYYY=         -38976.9866 ZZZZ=         -27958.3169 XXXY=            -58.5122
 XXXZ=            -64.5389 YYYX=             80.6042 YYYZ=             93.1664 ZZZX=              0.1500
 ZZZY=            -17.6818 XXYY=         -13312.2808 XXZZ=         -11565.6926 YYZZ=         -11068.0800
 XXYZ=             10.3735 YYXZ=            -40.7556 ZZXY=             11.9129
 N-N= 3.012757996018D+04 E-N=-8.732933781988D+04  KE= 1.142939829214D+04
 Leave Link  601 at Thu Jun 30 00:11:40 2022, MaxMem=  1342177280 cpu:              18.7 elap:               1.1
 (Enter /home/mkliu/g16/l9999.exe)
 1\1\GINC-NODE04\FOpt\RB3LYP\6-31G(d,p)\C84Cl18\MKLIU\30-Jun-2022\0\\#P
  opt b3lyp/6-31G(d, p) empiricaldispersion=GD3\\force\\0,1\C,8.2255956
 358,18.6562589966,10.61541114\C,12.4838229301,20.0057528416,8.92006303
 82\C,8.2664426142,26.85813483,10.5316493971\C,12.5106358486,25.7689489
 502,8.9261757707\C,7.9555235966,19.002511473,9.1652484308\C,11.8707436
 867,19.5859945421,10.2346582184\C,7.9556813008,26.8085562514,9.1534969
 304\C,11.9064489044,26.2033889167,10.2436123144\C,8.9580982337,19.1840
 153553,8.1743893079\C,12.1329587388,20.2345080812,11.4171196284\C,12.1
 642957327,25.5553014117,11.4068676159\C,8.968798816,26.6231559391,8.17
 02684033\C,10.2966158736,19.0982014976,8.6093540688\C,10.3058527765,26
 .6860754238,8.63023524\C,10.6173581189,18.9933646393,10.0371521663\C,1
 0.6275231256,26.809314022,10.0239211308\C,9.6357678754,18.9995755333,1
 1.033861017\C,9.6158040942,26.7984935527,11.0063953523\C,9.9089449972,
 19.6597033166,12.2492194699\C,9.8762794935,26.11273396,12.2516161322\C
 ,8.7770022088,20.0775853951,13.1655265576\C,8.7873114206,25.5210702347
 ,12.9244281941\C,7.4591156117,20.1838656278,12.4253647425\C,7.44474643
 31,25.5981700557,12.4207439202\C,7.2043487014,19.5325529868,11.3003429
 295\C,7.18936202,26.258059406,11.2676335023\C,6.1072238061,19.97004035
 85,10.3538281842\C,6.0717018139,25.8344018714,10.3375442111\C,6.727740
 58,19.6144463432,9.0339611509\C,6.6543775208,26.217527401,8.9945550315
 \C,6.4083631433,20.290459171,7.8640186749\C,6.35078216,25.5486097905,7
 .8675073983\C,7.3194186408,20.3794833368,6.8256766423\C,7.3134726096,2
 5.4140201276,6.799578194\C,8.6685742167,19.9469101448,6.9879279751\C,8
 .6906428351,25.8680092078,6.9769043731\C,9.7411155176,20.6273100189,6.
 3102800243\C,9.74320313,25.1735608409,6.3324164652\C,11.0381161635,20.
 5815745113,6.830767609\C,12.6801136966,22.1911439804,7.7781157977\C,12
 .6928975785,23.5816130647,7.7771113932\C,11.0649493613,25.2092484111,6
 .853440501\C,11.3123402416,19.7821849843,7.9574315952\C,12.8507544505,
 21.4746484708,8.9611975248\C,12.8705050334,24.2944374979,8.9598277247\
 C,11.3388783273,25.9888786251,7.9657500483\C,13.0789305525,22.17374702
 81,10.1671509062\C,13.0845509823,23.5879678041,10.1613725831\C,13.0851
 603363,21.402926689,11.4990252137\C,13.0808842191,24.3502515818,11.486
 4011868\C,12.4530583233,22.1985116263,12.6142921952\C,12.4109406715,23
 .5350130546,12.5773582585\C,11.1591680545,20.2602499621,12.4279855827\
 C,11.154829066,25.4845085931,12.4304763044\C,11.4407105149,21.38789091
 71,13.396868395\C,11.3053674048,24.2820695593,13.1489187441\C,8.960664
 3589,21.5050093603,13.6383263761\C,8.9373471762,24.2784346218,13.61747
 94067\C,7.7338492621,22.2080520335,13.5274740694\C,7.7140896794,23.569
 4232041,13.542752015\C,6.6748051034,21.4159402046,12.8135627867\C,6.65
 07128696,24.371028588,12.8251535523\C,6.1666178243,22.1898240079,11.57
 98871642\C,6.1600120828,23.6037878595,11.5817161694\C,5.8722898398,21.
 4879089945,10.3958783663\C,5.8658868107,24.3049077774,10.3949989779\C,
 5.557163483,22.1900814793,9.2043280395\C,5.5578534762,23.5984940026,9.
 2097556894\C,5.4117201124,21.422991252,7.8672316784\C,5.4066015496,24.
 3639027767,7.8808441195\C,5.9012537721,22.2193496934,6.6830524771\C,5.
 9389599571,23.5569178553,6.714549413\C,6.8679495728,21.4169317177,5.83
 75692651\C,6.9946365277,24.2955269757,6.0475963671\C,8.0279139683,22.2
 154417053,5.3695241076\C,8.0349417665,23.5696523704,5.4082827288\C,9.4
 111740253,21.6460531878,5.2273323582\C,9.4147208111,24.1502331144,5.25
 189777\C,12.0746827489,21.6412606592,6.4951035209\C,12.0866016509,24.1
 406236362,6.5004930655\C,10.256383561,22.8999334301,5.3642123714\C,11.
 4581545638,22.8950755511,5.9247508833\C,10.1775613148,22.1612386176,13
 .7126060265\C,10.1828709929,23.596404058,13.6866840175\Cl,4.5427487842
 ,19.0633572174,10.6899035512\Cl,3.6674731278,20.8665709097,7.663381701
 4\Cl,3.6519813853,24.8379104573,7.6255699077\Cl,4.503094873,26.7088470
 055,10.7108996154\Cl,5.2521692784,21.0040212448,13.9109613435\Cl,5.230
 8668057,24.7835820835,13.9136044778\Cl,14.8105033813,20.8714655893,11.
 8790692966\Cl,14.797887258,24.8226455359,11.9439674284\Cl,13.945451253
 7,18.9803707165,8.4881581361\Cl,13.3659437815,20.9510443862,5.37600744
 01\Cl,13.9705278182,26.7936350096,8.4804108694\Cl,13.374792388,24.8259
 345614,5.3718442549\Cl,9.6622809998,20.8496807815,3.566376384\Cl,7.909
 0766371,16.8529688909,10.9276141712\Cl,8.6475229621,18.9183451063,14.5
 984008855\Cl,9.5968820826,24.9714103211,3.5976743386\Cl,12.188906832,2
 0.7417487294,14.9792779852\Cl,6.0125289101,20.5885026195,4.3885851389\
 \Version=ES64L-G16RevA.03\State=1-A\HF=-11484.6129019\RMSD=8.653e-09\R
 MSF=2.460e-05\Dipole=0.3072297,1.8748969,0.7048778\Quadrupole=-14.9735
 979,20.6663772,-5.6927793,-2.4191987,1.9214439,7.7370414\PG=C01 [X(C84
 Cl18)]\\@


 BE LIKE A POSTAGE STAMP.  STICK TO ONE THING UNTIL
 YOU GET THERE -- JOSH BILLINGS
 Job cpu time:       1 days 17 hours 26 minutes 31.2 seconds.
 Elapsed time:       0 days  1 hours 43 minutes 44.9 seconds.
 File lengths (MBytes):  RWF=   1574 Int=      0 D2E=      0 Chk=    196 Scr=      1
 Normal termination of Gaussian 16 at Thu Jun 30 00:11:42 2022.
