 Entering Gaussian System, Link 0=g16
 Input=18_addons_C84_14_Cl22_rank_3.gjf
 Output=18_addons_C84_14_Cl22_rank_3.log
 Initial command:
 /home/mkliu/g16/l1.exe "/data/scratch/Gau-192837.inp" -scrdir="/data/scratch/"
 Entering Link 1 = /home/mkliu/g16/l1.exe PID=    192838.
  
 Copyright (c) 1988,1990,1992,1993,1995,1998,2003,2009,2016,
            Gaussian, Inc.  All Rights Reserved.
  
 This is part of the Gaussian(R) 16 program.  It is based on
 the Gaussian(R) 09 system (copyright 2009, Gaussian, Inc.),
 the Gaussian(R) 03 system (copyright 2003, Gaussian, Inc.),
 the Gaussian(R) 98 system (copyright 1998, Gaussian, Inc.),
 the Gaussian(R) 94 system (copyright 1995, Gaussian, Inc.),
 the Gaussian 92(TM) system (copyright 1992, Gaussian, Inc.),
 the Gaussian 90(TM) system (copyright 1990, Gaussian, Inc.),
 the Gaussian 88(TM) system (copyright 1988, Gaussian, Inc.),
 the Gaussian 86(TM) system (copyright 1986, Carnegie Mellon
 University), and the Gaussian 82(TM) system (copyright 1983,
 Carnegie Mellon University). Gaussian is a federally registered
 trademark of Gaussian, Inc.
  
 This software contains proprietary and confidential information,
 including trade secrets, belonging to Gaussian, Inc.
  
 This software is provided under written license and may be
 used, copied, transmitted, or stored only in accord with that
 written license.
  
 The following legend is applicable only to US Government
 contracts under FAR:
  
                    RESTRICTED RIGHTS LEGEND
  
 Use, reproduction and disclosure by the US Government is
 subject to restrictions as set forth in subparagraphs (a)
 and (c) of the Commercial Computer Software - Restricted
 Rights clause in FAR 52.227-19.
  
 Gaussian, Inc.
 340 Quinnipiac St., Bldg. 40, Wallingford CT 06492
  
  
 ---------------------------------------------------------------
 Warning -- This program may not be used in any manner that
 competes with the business of Gaussian, Inc. or will provide
 assistance to any competitor of Gaussian, Inc.  The licensee
 of this program is prohibited from giving any competitor of
 Gaussian, Inc. access to this program.  By using this program,
 the user acknowledges that Gaussian, Inc. is engaged in the
 business of creating and licensing software in the field of
 computational chemistry and represents and warrants to the
 licensee that it is not a competitor of Gaussian, Inc. and that
 it will not use this program in any manner prohibited above.
 ---------------------------------------------------------------
  

 Cite this work as:
 Gaussian 16, Revision A.03,
 M. J. Frisch, G. W. Trucks, H. B. Schlegel, G. E. Scuseria, 
 M. A. Robb, J. R. Cheeseman, G. Scalmani, V. Barone, 
 G. A. Petersson, H. Nakatsuji, X. Li, M. Caricato, A. V. Marenich, 
 J. Bloino, B. G. Janesko, R. Gomperts, B. Mennucci, H. P. Hratchian, 
 J. V. Ortiz, A. F. Izmaylov, J. L. Sonnenberg, D. Williams-Young, 
 F. Ding, F. Lipparini, F. Egidi, J. Goings, B. Peng, A. Petrone, 
 T. Henderson, D. Ranasinghe, V. G. Zakrzewski, J. Gao, N. Rega, 
 G. Zheng, W. Liang, M. Hada, M. Ehara, K. Toyota, R. Fukuda, 
 J. Hasegawa, M. Ishida, T. Nakajima, Y. Honda, O. Kitao, H. Nakai, 
 T. Vreven, K. Throssell, J. A. Montgomery, Jr., J. E. Peralta, 
 F. Ogliaro, M. J. Bearpark, J. J. Heyd, E. N. Brothers, K. N. Kudin, 
 V. N. Staroverov, T. A. Keith, R. Kobayashi, J. Normand, 
 K. Raghavachari, A. P. Rendell, J. C. Burant, S. S. Iyengar, 
 J. Tomasi, M. Cossi, J. M. Millam, M. Klene, C. Adamo, R. Cammi, 
 J. W. Ochterski, R. L. Martin, K. Morokuma, O. Farkas, 
 J. B. Foresman, and D. J. Fox, Gaussian, Inc., Wallingford CT, 2016.
 
 ******************************************
 Gaussian 16:  ES64L-G16RevA.03 25-Dec-2016
                27-Jun-2022 
 ******************************************
 %mem=10GB
 %chk=18_addons_C84_14_Cl22_rank_3.chk
 %nprocshared=24
 Will use up to   24 processors via shared memory.
 ------------------------------------------------
 #P opt b3lyp/6-31G(d, p) empiricaldispersion=GD3
 ------------------------------------------------
 1/18=20,19=15,26=3,38=1/1,3;
 2/9=110,12=2,17=6,18=5,40=1/2;
 3/5=1,6=6,7=101,11=2,25=1,30=1,71=1,74=-5,124=31/1,2,3;
 4//1;
 5/5=2,38=5/2;
 6/7=2,8=2,9=2,10=2,28=1/1;
 7//1,2,3,16;
 1/18=20,19=15,26=3/3(2);
 2/9=110/2;
 99//99;
 2/9=110/2;
 3/5=1,6=6,7=101,11=2,25=1,30=1,71=1,74=-5,124=31/1,2,3;
 4/5=5,16=3,69=1/1;
 5/5=2,38=5/2;
 7//1,2,3,16;
 1/18=20,19=15,26=3/3(-5);
 2/9=110/2;
 6/7=2,8=2,9=2,10=2,19=2,28=1/1;
 99/9=1/99;
 Leave Link    1 at Mon Jun 27 11:01:51 2022, MaxMem=  1342177280 cpu:               0.7 elap:               0.1
 (Enter /home/mkliu/g16/l101.exe)
 -----
 force
 -----
 Symbolic Z-matrix:
 Charge =  0 Multiplicity = 1
 C                     8.22754   18.65194   10.59793 
 C                     12.46102   20.01849   8.91611 
 C                     8.2764    26.85189   10.53772 
 C                     12.47632   25.75089   8.91005 
 C                     7.95808   18.97089   9.15137 
 C                     11.85332   19.60504   10.2214 
 C                     7.96536   26.78354   9.15964 
 C                     11.87848   26.1827   10.21768 
 C                     8.95479   19.16184   8.17225 
 C                     12.10755   20.25626   11.39653 
 C                     12.12501   25.53219   11.38761 
 C                     8.96216   26.60681   8.16393 
 C                     10.28825   19.10146   8.61368 
 C                     10.28726   26.65244   8.62268 
 C                     10.60112   19.00661   10.02632 
 C                     10.61137   26.7699   10.0141 
 C                     9.62299   19.01273   11.01496 
 C                     9.61187   26.76044   11.01052 
 C                     9.89233   19.67453   12.22073 
 C                     9.88415   26.11866   12.24212 
 C                     8.77265   20.07656   13.13963 
 C                     8.76324   25.68448   13.13606 
 C                     7.46787   20.18316   12.39556 
 C                     7.44499   25.58998   12.42661 
 C                     7.21613   19.53326   11.27192 
 C                     7.21943   26.21254   11.26107 
 C                     6.12846   19.97505   10.33249 
 C                     6.11603   25.79256   10.32807 
 C                     6.72443   19.58281   9.02084 
 C                     6.68617   26.20038   9.00563 
 C                     6.40313   20.24757   7.85893 
 C                     6.38515   25.53628   7.85635 
 C                     7.33432   20.34499   6.82588 
 C                     7.3289    25.43799   6.81188 
 C                     8.67508   19.91403   6.98835 
 C                     8.67656   25.86166   6.98031 
 C                     9.7277    20.61914   6.32908 
 C                     9.72831   25.15243   6.32925 
 C                     11.01769   20.59024   6.84832 
 C                     12.62282   22.18827   7.79549 
 C                     12.62757   23.57551   7.79231 
 C                     11.02638   25.17588   6.85261 
 C                     11.29686   19.80082   7.96882 
 C                     12.79674   21.48244   8.97248 
 C                     12.80205   24.28319   8.96762 
 C                     11.31122   25.95966   7.96435 
 C                     13.0183   22.18143   10.17003 
 C                     13.01613   23.58279   10.16432 
 C                     13.05197   21.41667   11.48453 
 C                     13.04078   24.34537   11.47463 
 C                     12.4242   22.19957   12.59718 
 C                     12.37647   23.54399   12.56153 
 C                     11.13099   20.27904   12.39948 
 C                     11.11874   25.48223   12.39524 
 C                     11.41417   21.39681   13.36304 
 C                     11.29845   24.2769   13.13933 
 C                     8.95642   21.4986   13.59353 
 C                     8.93777   24.26977   13.59624 
 C                     7.75124   22.19781   13.46778 
 C                     7.74544   23.56748   13.47078 
 C                     6.69354   21.41586   12.76582 
 C                     6.67704   24.35134   12.78043 
 C                     6.24161   22.18426   11.53246 
 C                     6.23819   23.5873   11.53505 
 C                     5.95928   21.48784   10.35359 
 C                     5.95532   24.27963   10.35289 
 C                     5.65634   22.18345   9.17154 
 C                     5.65527   23.58457   9.17116 
 C                     5.45111   21.41105   7.87004 
 C                     5.44491   24.36105   7.8693 
 C                     5.96605   22.20706   6.70474 
 C                     5.96436   23.57004   6.70449 
 C                     7.01883   21.51771   6.05724 
 C                     7.02072   24.26161   6.06055 
 C                     8.01986   22.19208   5.38517 
 C                     8.02077   23.58393   5.38389 
 C                     9.40099   21.63158   5.25038 
 C                     9.40335   24.13885   5.25454 
 C                     12.04768   21.63792   6.5154 
 C                     12.05208   24.1252   6.51257 
 C                     10.22668   22.88432   5.39688 
 C                     11.42986   22.88225   5.94654 
 C                     10.16381   22.16638   13.66711 
 C                     10.16384   23.58743   13.64675 
 Cl                    4.54749   19.19519   10.69125 
 Cl                    3.71946   20.95913   7.73085 
 Cl                    3.70892   24.79663   7.73509 
 Cl                    4.53923   26.56128   10.71379 
 Cl                    5.25444   21.05559   13.78938 
 Cl                    5.22696   24.66818   13.80164 
 Cl                    14.75736   20.93066   11.82514 
 Cl                    14.74091   24.78848   11.86362 
 Cl                    13.91082   19.05979   8.45664 
 Cl                    13.32467   20.95183   5.44344 
 Cl                    13.92776   26.69874   8.42881 
 Cl                    13.32536   24.80952   5.43545 
 Cl                    9.66456   20.85383   3.63272 
 Cl                    7.93247   16.89407   10.93889 
 Cl                    8.66394   18.93285   14.53173 
 Cl                    9.67633   24.93136   3.64164 
 Cl                    12.12311   20.75299   14.9178 
 Cl                    8.65013   26.82338   14.58015 
 
 ITRead=  0  0  0  0  0  0  0  0  0  0  0  0  0  0  0  0  0  0  0  0
 ITRead=  0  0  0  0  0  0  0  0  0  0  0  0  0  0  0  0  0  0  0  0
 ITRead=  0  0  0  0  0  0  0  0  0  0  0  0  0  0  0  0  0  0  0  0
 ITRead=  0  0  0  0  0  0  0  0  0  0  0  0  0  0  0  0  0  0  0  0
 ITRead=  0  0  0  0  0  0  0  0  0  0  0  0  0  0  0  0  0  0  0  0
 ITRead=  0  0
 MicOpt= -1 -1 -1 -1 -1 -1 -1 -1 -1 -1 -1 -1 -1 -1 -1 -1 -1 -1 -1 -1
 MicOpt= -1 -1 -1 -1 -1 -1 -1 -1 -1 -1 -1 -1 -1 -1 -1 -1 -1 -1 -1 -1
 MicOpt= -1 -1 -1 -1 -1 -1 -1 -1 -1 -1 -1 -1 -1 -1 -1 -1 -1 -1 -1 -1
 MicOpt= -1 -1 -1 -1 -1 -1 -1 -1 -1 -1 -1 -1 -1 -1 -1 -1 -1 -1 -1 -1
 MicOpt= -1 -1 -1 -1 -1 -1 -1 -1 -1 -1 -1 -1 -1 -1 -1 -1 -1 -1 -1 -1
 MicOpt= -1 -1
 NAtoms=    102 NQM=      102 NQMF=       0 NMMI=      0 NMMIF=      0
                NMic=       0 NMicF=      0.
                    Isotopes and Nuclear Properties:
 (Nuclear quadrupole moments (NQMom) in fm**2, nuclear magnetic moments (NMagM)
  in nuclear magnetons)

  Atom         1           2           3           4           5           6           7           8           9          10
 IAtWgt=          12          12          12          12          12          12          12          12          12          12
 AtmWgt=  12.0000000  12.0000000  12.0000000  12.0000000  12.0000000  12.0000000  12.0000000  12.0000000  12.0000000  12.0000000
 NucSpn=           0           0           0           0           0           0           0           0           0           0
 AtZEff=  -0.0000000  -0.0000000  -0.0000000  -0.0000000  -0.0000000  -0.0000000  -0.0000000  -0.0000000  -0.0000000  -0.0000000
 NQMom=    0.0000000   0.0000000   0.0000000   0.0000000   0.0000000   0.0000000   0.0000000   0.0000000   0.0000000   0.0000000
 NMagM=    0.0000000   0.0000000   0.0000000   0.0000000   0.0000000   0.0000000   0.0000000   0.0000000   0.0000000   0.0000000
 AtZNuc=   6.0000000   6.0000000   6.0000000   6.0000000   6.0000000   6.0000000   6.0000000   6.0000000   6.0000000   6.0000000

  Atom        11          12          13          14          15          16          17          18          19          20
 IAtWgt=          12          12          12          12          12          12          12          12          12          12
 AtmWgt=  12.0000000  12.0000000  12.0000000  12.0000000  12.0000000  12.0000000  12.0000000  12.0000000  12.0000000  12.0000000
 NucSpn=           0           0           0           0           0           0           0           0           0           0
 AtZEff=  -0.0000000  -0.0000000  -0.0000000  -0.0000000  -0.0000000  -0.0000000  -0.0000000  -0.0000000  -0.0000000  -0.0000000
 NQMom=    0.0000000   0.0000000   0.0000000   0.0000000   0.0000000   0.0000000   0.0000000   0.0000000   0.0000000   0.0000000
 NMagM=    0.0000000   0.0000000   0.0000000   0.0000000   0.0000000   0.0000000   0.0000000   0.0000000   0.0000000   0.0000000
 AtZNuc=   6.0000000   6.0000000   6.0000000   6.0000000   6.0000000   6.0000000   6.0000000   6.0000000   6.0000000   6.0000000

  Atom        21          22          23          24          25          26          27          28          29          30
 IAtWgt=          12          12          12          12          12          12          12          12          12          12
 AtmWgt=  12.0000000  12.0000000  12.0000000  12.0000000  12.0000000  12.0000000  12.0000000  12.0000000  12.0000000  12.0000000
 NucSpn=           0           0           0           0           0           0           0           0           0           0
 AtZEff=  -0.0000000  -0.0000000  -0.0000000  -0.0000000  -0.0000000  -0.0000000  -0.0000000  -0.0000000  -0.0000000  -0.0000000
 NQMom=    0.0000000   0.0000000   0.0000000   0.0000000   0.0000000   0.0000000   0.0000000   0.0000000   0.0000000   0.0000000
 NMagM=    0.0000000   0.0000000   0.0000000   0.0000000   0.0000000   0.0000000   0.0000000   0.0000000   0.0000000   0.0000000
 AtZNuc=   6.0000000   6.0000000   6.0000000   6.0000000   6.0000000   6.0000000   6.0000000   6.0000000   6.0000000   6.0000000

  Atom        31          32          33          34          35          36          37          38          39          40
 IAtWgt=          12          12          12          12          12          12          12          12          12          12
 AtmWgt=  12.0000000  12.0000000  12.0000000  12.0000000  12.0000000  12.0000000  12.0000000  12.0000000  12.0000000  12.0000000
 NucSpn=           0           0           0           0           0           0           0           0           0           0
 AtZEff=  -0.0000000  -0.0000000  -0.0000000  -0.0000000  -0.0000000  -0.0000000  -0.0000000  -0.0000000  -0.0000000  -0.0000000
 NQMom=    0.0000000   0.0000000   0.0000000   0.0000000   0.0000000   0.0000000   0.0000000   0.0000000   0.0000000   0.0000000
 NMagM=    0.0000000   0.0000000   0.0000000   0.0000000   0.0000000   0.0000000   0.0000000   0.0000000   0.0000000   0.0000000
 AtZNuc=   6.0000000   6.0000000   6.0000000   6.0000000   6.0000000   6.0000000   6.0000000   6.0000000   6.0000000   6.0000000

  Atom        41          42          43          44          45          46          47          48          49          50
 IAtWgt=          12          12          12          12          12          12          12          12          12          12
 AtmWgt=  12.0000000  12.0000000  12.0000000  12.0000000  12.0000000  12.0000000  12.0000000  12.0000000  12.0000000  12.0000000
 NucSpn=           0           0           0           0           0           0           0           0           0           0
 AtZEff=  -0.0000000  -0.0000000  -0.0000000  -0.0000000  -0.0000000  -0.0000000  -0.0000000  -0.0000000  -0.0000000  -0.0000000
 NQMom=    0.0000000   0.0000000   0.0000000   0.0000000   0.0000000   0.0000000   0.0000000   0.0000000   0.0000000   0.0000000
 NMagM=    0.0000000   0.0000000   0.0000000   0.0000000   0.0000000   0.0000000   0.0000000   0.0000000   0.0000000   0.0000000
 AtZNuc=   6.0000000   6.0000000   6.0000000   6.0000000   6.0000000   6.0000000   6.0000000   6.0000000   6.0000000   6.0000000

  Atom        51          52          53          54          55          56          57          58          59          60
 IAtWgt=          12          12          12          12          12          12          12          12          12          12
 AtmWgt=  12.0000000  12.0000000  12.0000000  12.0000000  12.0000000  12.0000000  12.0000000  12.0000000  12.0000000  12.0000000
 NucSpn=           0           0           0           0           0           0           0           0           0           0
 AtZEff=  -0.0000000  -0.0000000  -0.0000000  -0.0000000  -0.0000000  -0.0000000  -0.0000000  -0.0000000  -0.0000000  -0.0000000
 NQMom=    0.0000000   0.0000000   0.0000000   0.0000000   0.0000000   0.0000000   0.0000000   0.0000000   0.0000000   0.0000000
 NMagM=    0.0000000   0.0000000   0.0000000   0.0000000   0.0000000   0.0000000   0.0000000   0.0000000   0.0000000   0.0000000
 AtZNuc=   6.0000000   6.0000000   6.0000000   6.0000000   6.0000000   6.0000000   6.0000000   6.0000000   6.0000000   6.0000000

  Atom        61          62          63          64          65          66          67          68          69          70
 IAtWgt=          12          12          12          12          12          12          12          12          12          12
 AtmWgt=  12.0000000  12.0000000  12.0000000  12.0000000  12.0000000  12.0000000  12.0000000  12.0000000  12.0000000  12.0000000
 NucSpn=           0           0           0           0           0           0           0           0           0           0
 AtZEff=  -0.0000000  -0.0000000  -0.0000000  -0.0000000  -0.0000000  -0.0000000  -0.0000000  -0.0000000  -0.0000000  -0.0000000
 NQMom=    0.0000000   0.0000000   0.0000000   0.0000000   0.0000000   0.0000000   0.0000000   0.0000000   0.0000000   0.0000000
 NMagM=    0.0000000   0.0000000   0.0000000   0.0000000   0.0000000   0.0000000   0.0000000   0.0000000   0.0000000   0.0000000
 AtZNuc=   6.0000000   6.0000000   6.0000000   6.0000000   6.0000000   6.0000000   6.0000000   6.0000000   6.0000000   6.0000000

  Atom        71          72          73          74          75          76          77          78          79          80
 IAtWgt=          12          12          12          12          12          12          12          12          12          12
 AtmWgt=  12.0000000  12.0000000  12.0000000  12.0000000  12.0000000  12.0000000  12.0000000  12.0000000  12.0000000  12.0000000
 NucSpn=           0           0           0           0           0           0           0           0           0           0
 AtZEff=  -0.0000000  -0.0000000  -0.0000000  -0.0000000  -0.0000000  -0.0000000  -0.0000000  -0.0000000  -0.0000000  -0.0000000
 NQMom=    0.0000000   0.0000000   0.0000000   0.0000000   0.0000000   0.0000000   0.0000000   0.0000000   0.0000000   0.0000000
 NMagM=    0.0000000   0.0000000   0.0000000   0.0000000   0.0000000   0.0000000   0.0000000   0.0000000   0.0000000   0.0000000
 AtZNuc=   6.0000000   6.0000000   6.0000000   6.0000000   6.0000000   6.0000000   6.0000000   6.0000000   6.0000000   6.0000000

  Atom        81          82          83          84          85          86          87          88          89          90
 IAtWgt=          12          12          12          12          35          35          35          35          35          35
 AtmWgt=  12.0000000  12.0000000  12.0000000  12.0000000  34.9688527  34.9688527  34.9688527  34.9688527  34.9688527  34.9688527
 NucSpn=           0           0           0           0           3           3           3           3           3           3
 AtZEff=  -0.0000000  -0.0000000  -0.0000000  -0.0000000  -0.0000000  -0.0000000  -0.0000000  -0.0000000  -0.0000000  -0.0000000
 NQMom=    0.0000000   0.0000000   0.0000000   0.0000000  -8.1650000  -8.1650000  -8.1650000  -8.1650000  -8.1650000  -8.1650000
 NMagM=    0.0000000   0.0000000   0.0000000   0.0000000   0.8218740   0.8218740   0.8218740   0.8218740   0.8218740   0.8218740
 AtZNuc=   6.0000000   6.0000000   6.0000000   6.0000000  17.0000000  17.0000000  17.0000000  17.0000000  17.0000000  17.0000000

  Atom        91          92          93          94          95          96          97          98          99         100
 IAtWgt=          35          35          35          35          35          35          35          35          35          35
 AtmWgt=  34.9688527  34.9688527  34.9688527  34.9688527  34.9688527  34.9688527  34.9688527  34.9688527  34.9688527  34.9688527
 NucSpn=           3           3           3           3           3           3           3           3           3           3
 AtZEff=  -0.0000000  -0.0000000  -0.0000000  -0.0000000  -0.0000000  -0.0000000  -0.0000000  -0.0000000  -0.0000000  -0.0000000
 NQMom=   -8.1650000  -8.1650000  -8.1650000  -8.1650000  -8.1650000  -8.1650000  -8.1650000  -8.1650000  -8.1650000  -8.1650000
 NMagM=    0.8218740   0.8218740   0.8218740   0.8218740   0.8218740   0.8218740   0.8218740   0.8218740   0.8218740   0.8218740
 AtZNuc=  17.0000000  17.0000000  17.0000000  17.0000000  17.0000000  17.0000000  17.0000000  17.0000000  17.0000000  17.0000000

  Atom       101         102
 IAtWgt=          35          35
 AtmWgt=  34.9688527  34.9688527
 NucSpn=           3           3
 AtZEff=  -0.0000000  -0.0000000
 NQMom=   -8.1650000  -8.1650000
 NMagM=    0.8218740   0.8218740
 AtZNuc=  17.0000000  17.0000000
 Leave Link  101 at Mon Jun 27 11:01:51 2022, MaxMem=  1342177280 cpu:               6.7 elap:               0.3
 (Enter /home/mkliu/g16/l103.exe)

 GradGradGradGradGradGradGradGradGradGradGradGradGradGradGradGradGradGrad
 Berny optimization.
 Initialization pass.
                           ----------------------------
                           !    Initial Parameters    !
                           ! (Angstroms and Degrees)  !
 --------------------------                            --------------------------
 ! Name  Definition              Value          Derivative Info.                !
 --------------------------------------------------------------------------------
 ! R1    R(1,5)                  1.5056         estimate D2E/DX2                !
 ! R2    R(1,17)                 1.5005         estimate D2E/DX2                !
 ! R3    R(1,25)                 1.5013         estimate D2E/DX2                !
 ! R4    R(1,98)                 1.8148         estimate D2E/DX2                !
 ! R5    R(2,6)                  1.498          estimate D2E/DX2                !
 ! R6    R(2,43)                 1.5166         estimate D2E/DX2                !
 ! R7    R(2,44)                 1.503          estimate D2E/DX2                !
 ! R8    R(2,93)                 1.7978         estimate D2E/DX2                !
 ! R9    R(3,7)                  1.4144         estimate D2E/DX2                !
 ! R10   R(3,18)                 1.4196         estimate D2E/DX2                !
 ! R11   R(3,26)                 1.4315         estimate D2E/DX2                !
 ! R12   R(4,8)                  1.5013         estimate D2E/DX2                !
 ! R13   R(4,45)                 1.5045         estimate D2E/DX2                !
 ! R14   R(4,46)                 1.5151         estimate D2E/DX2                !
 ! R15   R(4,95)                 1.7991         estimate D2E/DX2                !
 ! R16   R(5,9)                  1.4102         estimate D2E/DX2                !
 ! R17   R(5,29)                 1.3833         estimate D2E/DX2                !
 ! R18   R(6,10)                 1.3673         estimate D2E/DX2                !
 ! R19   R(6,15)                 1.4015         estimate D2E/DX2                !
 ! R20   R(7,12)                 1.42           estimate D2E/DX2                !
 ! R21   R(7,30)                 1.4143         estimate D2E/DX2                !
 ! R22   R(8,11)                 1.3611         estimate D2E/DX2                !
 ! R23   R(8,16)                 1.4113         estimate D2E/DX2                !
 ! R24   R(9,13)                 1.4059         estimate D2E/DX2                !
 ! R25   R(9,35)                 1.4303         estimate D2E/DX2                !
 ! R26   R(10,49)                1.4987         estimate D2E/DX2                !
 ! R27   R(10,53)                1.4            estimate D2E/DX2                !
 ! R28   R(11,50)                1.5016         estimate D2E/DX2                !
 ! R29   R(11,54)                1.4249         estimate D2E/DX2                !
 ! R30   R(12,14)                1.403          estimate D2E/DX2                !
 ! R31   R(12,36)                1.4275         estimate D2E/DX2                !
 ! R32   R(13,15)                1.45           estimate D2E/DX2                !
 ! R33   R(13,43)                1.3865         estimate D2E/DX2                !
 ! R34   R(14,16)                1.4335         estimate D2E/DX2                !
 ! R35   R(14,46)                1.4007         estimate D2E/DX2                !
 ! R36   R(15,17)                1.3907         estimate D2E/DX2                !
 ! R37   R(16,18)                1.4114         estimate D2E/DX2                !
 ! R38   R(17,19)                1.4016         estimate D2E/DX2                !
 ! R39   R(18,20)                1.4152         estimate D2E/DX2                !
 ! R40   R(19,21)                1.5032         estimate D2E/DX2                !
 ! R41   R(19,53)                1.3898         estimate D2E/DX2                !
 ! R42   R(20,22)                1.498          estimate D2E/DX2                !
 ! R43   R(20,54)                1.3974         estimate D2E/DX2                !
 ! R44   R(21,23)                1.5058         estimate D2E/DX2                !
 ! R45   R(21,57)                1.504          estimate D2E/DX2                !
 ! R46   R(21,99)                1.8049         estimate D2E/DX2                !
 ! R47   R(22,24)                1.5            estimate D2E/DX2                !
 ! R48   R(22,58)                1.4979         estimate D2E/DX2                !
 ! R49   R(22,102)               1.8426         estimate D2E/DX2                !
 ! R50   R(23,25)                1.3222         estimate D2E/DX2                !
 ! R51   R(23,61)                1.5021         estimate D2E/DX2                !
 ! R52   R(24,26)                1.3405         estimate D2E/DX2                !
 ! R53   R(24,62)                1.4997         estimate D2E/DX2                !
 ! R54   R(25,27)                1.5036         estimate D2E/DX2                !
 ! R55   R(26,28)                1.5048         estimate D2E/DX2                !
 ! R56   R(27,29)                1.4931         estimate D2E/DX2                !
 ! R57   R(27,65)                1.5224         estimate D2E/DX2                !
 ! R58   R(27,85)                1.799          estimate D2E/DX2                !
 ! R59   R(28,30)                1.4967         estimate D2E/DX2                !
 ! R60   R(28,66)                1.5216         estimate D2E/DX2                !
 ! R61   R(28,88)                1.7961         estimate D2E/DX2                !
 ! R62   R(29,31)                1.3767         estimate D2E/DX2                !
 ! R63   R(30,32)                1.3611         estimate D2E/DX2                !
 ! R64   R(31,33)                1.3942         estimate D2E/DX2                !
 ! R65   R(31,69)                1.5034         estimate D2E/DX2                !
 ! R66   R(32,34)                1.4111         estimate D2E/DX2                !
 ! R67   R(32,70)                1.5051         estimate D2E/DX2                !
 ! R68   R(33,35)                1.4177         estimate D2E/DX2                !
 ! R69   R(33,73)                1.4372         estimate D2E/DX2                !
 ! R70   R(34,36)                1.4227         estimate D2E/DX2                !
 ! R71   R(34,74)                1.4295         estimate D2E/DX2                !
 ! R72   R(35,37)                1.4282         estimate D2E/DX2                !
 ! R73   R(36,38)                1.4259         estimate D2E/DX2                !
 ! R74   R(37,39)                1.3909         estimate D2E/DX2                !
 ! R75   R(37,77)                1.5151         estimate D2E/DX2                !
 ! R76   R(38,42)                1.3998         estimate D2E/DX2                !
 ! R77   R(38,78)                1.5126         estimate D2E/DX2                !
 ! R78   R(39,43)                1.3988         estimate D2E/DX2                !
 ! R79   R(39,79)                1.5064         estimate D2E/DX2                !
 ! R80   R(40,41)                1.3873         estimate D2E/DX2                !
 ! R81   R(40,44)                1.3834         estimate D2E/DX2                !
 ! R82   R(40,79)                1.5074         estimate D2E/DX2                !
 ! R83   R(41,45)                1.383          estimate D2E/DX2                !
 ! R84   R(41,80)                1.507          estimate D2E/DX2                !
 ! R85   R(42,46)                1.3898         estimate D2E/DX2                !
 ! R86   R(42,80)                1.5072         estimate D2E/DX2                !
 ! R87   R(44,47)                1.4042         estimate D2E/DX2                !
 ! R88   R(45,48)                1.403          estimate D2E/DX2                !
 ! R89   R(47,48)                1.4014         estimate D2E/DX2                !
 ! R90   R(47,49)                1.5211         estimate D2E/DX2                !
 ! R91   R(48,50)                1.5163         estimate D2E/DX2                !
 ! R92   R(49,51)                1.4983         estimate D2E/DX2                !
 ! R93   R(49,91)                1.8057         estimate D2E/DX2                !
 ! R94   R(50,52)                1.505          estimate D2E/DX2                !
 ! R95   R(50,92)                1.7995         estimate D2E/DX2                !
 ! R96   R(51,52)                1.3457         estimate D2E/DX2                !
 ! R97   R(51,55)                1.5004         estimate D2E/DX2                !
 ! R98   R(52,56)                1.4259         estimate D2E/DX2                !
 ! R99   R(53,55)                1.5027         estimate D2E/DX2                !
 ! R100  R(54,56)                1.4279         estimate D2E/DX2                !
 ! R101  R(55,83)                1.4994         estimate D2E/DX2                !
 ! R102  R(55,101)               1.826          estimate D2E/DX2                !
 ! R103  R(56,84)                1.4213         estimate D2E/DX2                !
 ! R104  R(57,59)                1.399          estimate D2E/DX2                !
 ! R105  R(57,83)                1.3817         estimate D2E/DX2                !
 ! R106  R(58,60)                1.3895         estimate D2E/DX2                !
 ! R107  R(58,84)                1.4041         estimate D2E/DX2                !
 ! R108  R(59,60)                1.3697         estimate D2E/DX2                !
 ! R109  R(59,61)                1.4909         estimate D2E/DX2                !
 ! R110  R(60,62)                1.4942         estimate D2E/DX2                !
 ! R111  R(61,63)                1.5218         estimate D2E/DX2                !
 ! R112  R(61,89)                1.8024         estimate D2E/DX2                !
 ! R113  R(62,64)                1.5256         estimate D2E/DX2                !
 ! R114  R(62,90)                1.8017         estimate D2E/DX2                !
 ! R115  R(63,64)                1.403          estimate D2E/DX2                !
 ! R116  R(63,65)                1.398          estimate D2E/DX2                !
 ! R117  R(64,66)                1.3989         estimate D2E/DX2                !
 ! R118  R(65,67)                1.4046         estimate D2E/DX2                !
 ! R119  R(66,68)                1.4034         estimate D2E/DX2                !
 ! R120  R(67,68)                1.4011         estimate D2E/DX2                !
 ! R121  R(67,69)                1.5273         estimate D2E/DX2                !
 ! R122  R(68,70)                1.5304         estimate D2E/DX2                !
 ! R123  R(69,71)                1.5022         estimate D2E/DX2                !
 ! R124  R(69,86)                1.7951         estimate D2E/DX2                !
 ! R125  R(70,72)                1.5008         estimate D2E/DX2                !
 ! R126  R(70,87)                1.7948         estimate D2E/DX2                !
 ! R127  R(71,72)                1.363          estimate D2E/DX2                !
 ! R128  R(71,73)                1.4152         estimate D2E/DX2                !
 ! R129  R(72,74)                1.4173         estimate D2E/DX2                !
 ! R130  R(73,75)                1.3815         estimate D2E/DX2                !
 ! R131  R(74,76)                1.3846         estimate D2E/DX2                !
 ! R132  R(75,76)                1.3919         estimate D2E/DX2                !
 ! R133  R(75,77)                1.4966         estimate D2E/DX2                !
 ! R134  R(76,78)                1.4954         estimate D2E/DX2                !
 ! R135  R(77,81)                1.5075         estimate D2E/DX2                !
 ! R136  R(77,97)                1.8142         estimate D2E/DX2                !
 ! R137  R(78,81)                1.5073         estimate D2E/DX2                !
 ! R138  R(78,100)               1.8177         estimate D2E/DX2                !
 ! R139  R(79,82)                1.5012         estimate D2E/DX2                !
 ! R140  R(79,94)                1.8029         estimate D2E/DX2                !
 ! R141  R(80,82)                1.5008         estimate D2E/DX2                !
 ! R142  R(80,96)                1.8027         estimate D2E/DX2                !
 ! R143  R(81,82)                1.3228         estimate D2E/DX2                !
 ! R144  R(83,84)                1.4212         estimate D2E/DX2                !
 ! A1    A(5,1,17)             112.4908         estimate D2E/DX2                !
 ! A2    A(5,1,25)             100.7431         estimate D2E/DX2                !
 ! A3    A(5,1,98)             110.8919         estimate D2E/DX2                !
 ! A4    A(17,1,25)            111.1378         estimate D2E/DX2                !
 ! A5    A(17,1,98)            109.3845         estimate D2E/DX2                !
 ! A6    A(25,1,98)            112.0087         estimate D2E/DX2                !
 ! A7    A(6,2,43)             101.1428         estimate D2E/DX2                !
 ! A8    A(6,2,44)             109.0721         estimate D2E/DX2                !
 ! A9    A(6,2,93)             113.7447         estimate D2E/DX2                !
 ! A10   A(43,2,44)            109.5531         estimate D2E/DX2                !
 ! A11   A(43,2,93)            112.5107         estimate D2E/DX2                !
 ! A12   A(44,2,93)            110.4174         estimate D2E/DX2                !
 ! A13   A(7,3,18)             121.8873         estimate D2E/DX2                !
 ! A14   A(7,3,26)             107.9615         estimate D2E/DX2                !
 ! A15   A(18,3,26)            119.8363         estimate D2E/DX2                !
 ! A16   A(8,4,45)             109.48           estimate D2E/DX2                !
 ! A17   A(8,4,46)             101.4095         estimate D2E/DX2                !
 ! A18   A(8,4,95)             113.749          estimate D2E/DX2                !
 ! A19   A(45,4,46)            108.9535         estimate D2E/DX2                !
 ! A20   A(45,4,95)            110.4585         estimate D2E/DX2                !
 ! A21   A(46,4,95)            112.3867         estimate D2E/DX2                !
 ! A22   A(1,5,9)              124.7008         estimate D2E/DX2                !
 ! A23   A(1,5,29)             110.1197         estimate D2E/DX2                !
 ! A24   A(9,5,29)             120.3273         estimate D2E/DX2                !
 ! A25   A(2,6,10)             122.8188         estimate D2E/DX2                !
 ! A26   A(2,6,15)             111.04           estimate D2E/DX2                !
 ! A27   A(10,6,15)            119.2821         estimate D2E/DX2                !
 ! A28   A(3,7,12)             122.3346         estimate D2E/DX2                !
 ! A29   A(3,7,30)             108.9614         estimate D2E/DX2                !
 ! A30   A(12,7,30)            120.482          estimate D2E/DX2                !
 ! A31   A(4,8,11)             122.6211         estimate D2E/DX2                !
 ! A32   A(4,8,16)             110.583          estimate D2E/DX2                !
 ! A33   A(11,8,16)            119.0418         estimate D2E/DX2                !
 ! A34   A(5,9,13)             116.5226         estimate D2E/DX2                !
 ! A35   A(5,9,35)             120.5127         estimate D2E/DX2                !
 ! A36   A(13,9,35)            117.9023         estimate D2E/DX2                !
 ! A37   A(6,10,49)            122.4371         estimate D2E/DX2                !
 ! A38   A(6,10,53)            119.5859         estimate D2E/DX2                !
 ! A39   A(49,10,53)           112.6363         estimate D2E/DX2                !
 ! A40   A(8,11,50)            122.5481         estimate D2E/DX2                !
 ! A41   A(8,11,54)            119.7793         estimate D2E/DX2                !
 ! A42   A(50,11,54)           111.2231         estimate D2E/DX2                !
 ! A43   A(7,12,14)            115.4472         estimate D2E/DX2                !
 ! A44   A(7,12,36)            120.3942         estimate D2E/DX2                !
 ! A45   A(14,12,36)           118.4928         estimate D2E/DX2                !
 ! A46   A(9,13,15)            120.8877         estimate D2E/DX2                !
 ! A47   A(9,13,43)            121.4852         estimate D2E/DX2                !
 ! A48   A(15,13,43)           109.2181         estimate D2E/DX2                !
 ! A49   A(12,14,16)           122.2482         estimate D2E/DX2                !
 ! A50   A(12,14,46)           121.3789         estimate D2E/DX2                !
 ! A51   A(16,14,46)           109.357          estimate D2E/DX2                !
 ! A52   A(6,15,13)            107.4857         estimate D2E/DX2                !
 ! A53   A(6,15,17)            121.841          estimate D2E/DX2                !
 ! A54   A(13,15,17)           122.719          estimate D2E/DX2                !
 ! A55   A(8,16,14)            107.9943         estimate D2E/DX2                !
 ! A56   A(8,16,18)            122.086          estimate D2E/DX2                !
 ! A57   A(14,16,18)           121.6421         estimate D2E/DX2                !
 ! A58   A(1,17,15)            117.0947         estimate D2E/DX2                !
 ! A59   A(1,17,19)            122.0972         estimate D2E/DX2                !
 ! A60   A(15,17,19)           118.5866         estimate D2E/DX2                !
 ! A61   A(3,18,16)            115.5076         estimate D2E/DX2                !
 ! A62   A(3,18,20)            120.0022         estimate D2E/DX2                !
 ! A63   A(16,18,20)           118.7625         estimate D2E/DX2                !
 ! A64   A(17,19,21)           120.5996         estimate D2E/DX2                !
 ! A65   A(17,19,53)           119.1618         estimate D2E/DX2                !
 ! A66   A(21,19,53)           117.9625         estimate D2E/DX2                !
 ! A67   A(18,20,22)           120.4502         estimate D2E/DX2                !
 ! A68   A(18,20,54)           118.1562         estimate D2E/DX2                !
 ! A69   A(22,20,54)           117.6257         estimate D2E/DX2                !
 ! A70   A(19,21,23)           111.2409         estimate D2E/DX2                !
 ! A71   A(19,21,57)           110.2635         estimate D2E/DX2                !
 ! A72   A(19,21,99)           110.2957         estimate D2E/DX2                !
 ! A73   A(23,21,57)           100.8399         estimate D2E/DX2                !
 ! A74   A(23,21,99)           111.949          estimate D2E/DX2                !
 ! A75   A(57,21,99)           111.9451         estimate D2E/DX2                !
 ! A76   A(20,22,24)           113.1796         estimate D2E/DX2                !
 ! A77   A(20,22,58)           111.7087         estimate D2E/DX2                !
 ! A78   A(20,22,102)          109.5398         estimate D2E/DX2                !
 ! A79   A(24,22,58)           100.8482         estimate D2E/DX2                !
 ! A80   A(24,22,102)          110.8337         estimate D2E/DX2                !
 ! A81   A(58,22,102)          110.4962         estimate D2E/DX2                !
 ! A82   A(21,23,25)           123.3734         estimate D2E/DX2                !
 ! A83   A(21,23,61)           112.5181         estimate D2E/DX2                !
 ! A84   A(25,23,61)           120.9777         estimate D2E/DX2                !
 ! A85   A(22,24,26)           121.9952         estimate D2E/DX2                !
 ! A86   A(22,24,62)           112.9835         estimate D2E/DX2                !
 ! A87   A(26,24,62)           120.1681         estimate D2E/DX2                !
 ! A88   A(1,25,23)            122.8051         estimate D2E/DX2                !
 ! A89   A(1,25,27)            112.292          estimate D2E/DX2                !
 ! A90   A(23,25,27)           121.6182         estimate D2E/DX2                !
 ! A91   A(3,26,24)            121.503          estimate D2E/DX2                !
 ! A92   A(3,26,28)            110.6564         estimate D2E/DX2                !
 ! A93   A(24,26,28)           122.1992         estimate D2E/DX2                !
 ! A94   A(25,27,29)           100.5408         estimate D2E/DX2                !
 ! A95   A(25,27,65)           111.3285         estimate D2E/DX2                !
 ! A96   A(25,27,85)           112.5659         estimate D2E/DX2                !
 ! A97   A(29,27,65)           108.5166         estimate D2E/DX2                !
 ! A98   A(29,27,85)           114.335          estimate D2E/DX2                !
 ! A99   A(65,27,85)           109.2897         estimate D2E/DX2                !
 ! A100  A(26,28,30)           101.0963         estimate D2E/DX2                !
 ! A101  A(26,28,66)           110.1714         estimate D2E/DX2                !
 ! A102  A(26,28,88)           113.0243         estimate D2E/DX2                !
 ! A103  A(30,28,66)           108.9996         estimate D2E/DX2                !
 ! A104  A(30,28,88)           114.0503         estimate D2E/DX2                !
 ! A105  A(66,28,88)           109.2273         estimate D2E/DX2                !
 ! A106  A(5,29,27)            112.9105         estimate D2E/DX2                !
 ! A107  A(5,29,31)            120.0931         estimate D2E/DX2                !
 ! A108  A(27,29,31)           121.4273         estimate D2E/DX2                !
 ! A109  A(7,30,28)            111.1422         estimate D2E/DX2                !
 ! A110  A(7,30,32)            119.5502         estimate D2E/DX2                !
 ! A111  A(28,30,32)           121.9292         estimate D2E/DX2                !
 ! A112  A(29,31,33)           120.2146         estimate D2E/DX2                !
 ! A113  A(29,31,69)           121.0151         estimate D2E/DX2                !
 ! A114  A(33,31,69)           111.9843         estimate D2E/DX2                !
 ! A115  A(30,32,34)           120.7355         estimate D2E/DX2                !
 ! A116  A(30,32,70)           120.7895         estimate D2E/DX2                !
 ! A117  A(34,32,70)           111.7015         estimate D2E/DX2                !
 ! A118  A(31,33,35)           121.7029         estimate D2E/DX2                !
 ! A119  A(31,33,73)           107.8591         estimate D2E/DX2                !
 ! A120  A(35,33,73)           121.1273         estimate D2E/DX2                !
 ! A121  A(32,34,36)           121.6788         estimate D2E/DX2                !
 ! A122  A(32,34,74)           107.5884         estimate D2E/DX2                !
 ! A123  A(36,34,74)           120.7654         estimate D2E/DX2                !
 ! A124  A(9,35,33)            116.0839         estimate D2E/DX2                !
 ! A125  A(9,35,37)            119.8415         estimate D2E/DX2                !
 ! A126  A(33,35,37)           119.6072         estimate D2E/DX2                !
 ! A127  A(12,36,34)           116.3035         estimate D2E/DX2                !
 ! A128  A(12,36,38)           119.3842         estimate D2E/DX2                !
 ! A129  A(34,36,38)           119.7716         estimate D2E/DX2                !
 ! A130  A(35,37,39)           120.0646         estimate D2E/DX2                !
 ! A131  A(35,37,77)           119.9766         estimate D2E/DX2                !
 ! A132  A(39,37,77)           118.6646         estimate D2E/DX2                !
 ! A133  A(36,38,42)           120.3299         estimate D2E/DX2                !
 ! A134  A(36,38,78)           119.9511         estimate D2E/DX2                !
 ! A135  A(42,38,78)           118.4304         estimate D2E/DX2                !
 ! A136  A(37,39,43)           119.7272         estimate D2E/DX2                !
 ! A137  A(37,39,79)           122.4919         estimate D2E/DX2                !
 ! A138  A(43,39,79)           115.6626         estimate D2E/DX2                !
 ! A139  A(41,40,44)           120.7797         estimate D2E/DX2                !
 ! A140  A(41,40,79)           111.3735         estimate D2E/DX2                !
 ! A141  A(44,40,79)           125.746          estimate D2E/DX2                !
 ! A142  A(40,41,45)           120.6762         estimate D2E/DX2                !
 ! A143  A(40,41,80)           111.432          estimate D2E/DX2                !
 ! A144  A(45,41,80)           125.6765         estimate D2E/DX2                !
 ! A145  A(38,42,46)           119.9071         estimate D2E/DX2                !
 ! A146  A(38,42,80)           122.3477         estimate D2E/DX2                !
 ! A147  A(46,42,80)           115.731          estimate D2E/DX2                !
 ! A148  A(2,43,13)            109.8951         estimate D2E/DX2                !
 ! A149  A(2,43,39)            124.9285         estimate D2E/DX2                !
 ! A150  A(13,43,39)           120.8016         estimate D2E/DX2                !
 ! A151  A(2,44,40)            115.9107         estimate D2E/DX2                !
 ! A152  A(2,44,47)            123.5096         estimate D2E/DX2                !
 ! A153  A(40,44,47)           119.4358         estimate D2E/DX2                !
 ! A154  A(4,45,41)            116.0626         estimate D2E/DX2                !
 ! A155  A(4,45,48)            123.5502         estimate D2E/DX2                !
 ! A156  A(41,45,48)           119.2532         estimate D2E/DX2                !
 ! A157  A(4,46,14)            109.6922         estimate D2E/DX2                !
 ! A158  A(4,46,42)            125.397          estimate D2E/DX2                !
 ! A159  A(14,46,42)           120.3381         estimate D2E/DX2                !
 ! A160  A(44,47,48)           119.6075         estimate D2E/DX2                !
 ! A161  A(44,47,49)           119.3538         estimate D2E/DX2                !
 ! A162  A(48,47,49)           120.4181         estimate D2E/DX2                !
 ! A163  A(45,48,47)           120.1934         estimate D2E/DX2                !
 ! A164  A(45,48,50)           119.2419         estimate D2E/DX2                !
 ! A165  A(47,48,50)           119.959          estimate D2E/DX2                !
 ! A166  A(10,49,47)           108.9395         estimate D2E/DX2                !
 ! A167  A(10,49,51)           100.6113         estimate D2E/DX2                !
 ! A168  A(10,49,91)           113.4416         estimate D2E/DX2                !
 ! A169  A(47,49,51)           111.6996         estimate D2E/DX2                !
 ! A170  A(47,49,91)           108.6162         estimate D2E/DX2                !
 ! A171  A(51,49,91)           113.3448         estimate D2E/DX2                !
 ! A172  A(11,50,48)           109.7255         estimate D2E/DX2                !
 ! A173  A(11,50,52)           101.1582         estimate D2E/DX2                !
 ! A174  A(11,50,92)           113.2102         estimate D2E/DX2                !
 ! A175  A(48,50,52)           110.4341         estimate D2E/DX2                !
 ! A176  A(48,50,92)           109.027          estimate D2E/DX2                !
 ! A177  A(52,50,92)           113.0822         estimate D2E/DX2                !
 ! A178  A(49,51,52)           121.144          estimate D2E/DX2                !
 ! A179  A(49,51,55)           112.4289         estimate D2E/DX2                !
 ! A180  A(52,51,55)           121.6117         estimate D2E/DX2                !
 ! A181  A(50,52,51)           122.3743         estimate D2E/DX2                !
 ! A182  A(50,52,56)           110.6511         estimate D2E/DX2                !
 ! A183  A(51,52,56)           121.9774         estimate D2E/DX2                !
 ! A184  A(10,53,19)           121.4964         estimate D2E/DX2                !
 ! A185  A(10,53,55)           109.8776         estimate D2E/DX2                !
 ! A186  A(19,53,55)           125.0263         estimate D2E/DX2                !
 ! A187  A(11,54,20)           122.0371         estimate D2E/DX2                !
 ! A188  A(11,54,56)           108.0124         estimate D2E/DX2                !
 ! A189  A(20,54,56)           123.5568         estimate D2E/DX2                !
 ! A190  A(51,55,53)           101.3931         estimate D2E/DX2                !
 ! A191  A(51,55,83)           112.9724         estimate D2E/DX2                !
 ! A192  A(51,55,101)          111.217          estimate D2E/DX2                !
 ! A193  A(53,55,83)           110.774          estimate D2E/DX2                !
 ! A194  A(53,55,101)          110.908          estimate D2E/DX2                !
 ! A195  A(83,55,101)          109.3935         estimate D2E/DX2                !
 ! A196  A(52,56,54)           108.5352         estimate D2E/DX2                !
 ! A197  A(52,56,84)           119.9239         estimate D2E/DX2                !
 ! A198  A(54,56,84)           119.6735         estimate D2E/DX2                !
 ! A199  A(21,57,59)           109.8877         estimate D2E/DX2                !
 ! A200  A(21,57,83)           125.4369         estimate D2E/DX2                !
 ! A201  A(59,57,83)           121.0655         estimate D2E/DX2                !
 ! A202  A(22,58,60)           110.4656         estimate D2E/DX2                !
 ! A203  A(22,58,84)           124.8757         estimate D2E/DX2                !
 ! A204  A(60,58,84)           120.4614         estimate D2E/DX2                !
 ! A205  A(57,59,60)           120.2148         estimate D2E/DX2                !
 ! A206  A(57,59,61)           113.0371         estimate D2E/DX2                !
 ! A207  A(60,59,61)           121.4991         estimate D2E/DX2                !
 ! A208  A(58,60,59)           120.1322         estimate D2E/DX2                !
 ! A209  A(58,60,62)           112.9646         estimate D2E/DX2                !
 ! A210  A(59,60,62)           121.778          estimate D2E/DX2                !
 ! A211  A(23,61,59)           100.4142         estimate D2E/DX2                !
 ! A212  A(23,61,63)           111.573          estimate D2E/DX2                !
 ! A213  A(23,61,89)           112.8025         estimate D2E/DX2                !
 ! A214  A(59,61,63)           109.1137         estimate D2E/DX2                !
 ! A215  A(59,61,89)           113.8218         estimate D2E/DX2                !
 ! A216  A(63,61,89)           108.9092         estimate D2E/DX2                !
 ! A217  A(24,62,60)           100.1449         estimate D2E/DX2                !
 ! A218  A(24,62,64)           111.6141         estimate D2E/DX2                !
 ! A219  A(24,62,90)           113.6168         estimate D2E/DX2                !
 ! A220  A(60,62,64)           108.6709         estimate D2E/DX2                !
 ! A221  A(60,62,90)           113.9464         estimate D2E/DX2                !
 ! A222  A(64,62,90)           108.6185         estimate D2E/DX2                !
 ! A223  A(61,63,64)           120.275          estimate D2E/DX2                !
 ! A224  A(61,63,65)           119.4633         estimate D2E/DX2                !
 ! A225  A(64,63,65)           119.948          estimate D2E/DX2                !
 ! A226  A(62,64,63)           120.1082         estimate D2E/DX2                !
 ! A227  A(62,64,66)           120.0116         estimate D2E/DX2                !
 ! A228  A(63,64,66)           119.594          estimate D2E/DX2                !
 ! A229  A(27,65,63)           118.9641         estimate D2E/DX2                !
 ! A230  A(27,65,67)           120.2934         estimate D2E/DX2                !
 ! A231  A(63,65,67)           120.4305         estimate D2E/DX2                !
 ! A232  A(28,66,64)           118.9807         estimate D2E/DX2                !
 ! A233  A(28,66,68)           120.0837         estimate D2E/DX2                !
 ! A234  A(64,66,68)           120.644          estimate D2E/DX2                !
 ! A235  A(65,67,68)           119.7114         estimate D2E/DX2                !
 ! A236  A(65,67,69)           119.7136         estimate D2E/DX2                !
 ! A237  A(68,67,69)           120.358          estimate D2E/DX2                !
 ! A238  A(66,68,67)           119.6609         estimate D2E/DX2                !
 ! A239  A(66,68,70)           119.6307         estimate D2E/DX2                !
 ! A240  A(67,68,70)           120.5117         estimate D2E/DX2                !
 ! A241  A(31,69,67)           108.2157         estimate D2E/DX2                !
 ! A242  A(31,69,71)           100.7942         estimate D2E/DX2                !
 ! A243  A(31,69,86)           114.5496         estimate D2E/DX2                !
 ! A244  A(67,69,71)           110.3029         estimate D2E/DX2                !
 ! A245  A(67,69,86)           108.8461         estimate D2E/DX2                !
 ! A246  A(71,69,86)           113.8238         estimate D2E/DX2                !
 ! A247  A(32,70,68)           108.5191         estimate D2E/DX2                !
 ! A248  A(32,70,72)           100.8741         estimate D2E/DX2                !
 ! A249  A(32,70,87)           114.4612         estimate D2E/DX2                !
 ! A250  A(68,70,72)           110.1971         estimate D2E/DX2                !
 ! A251  A(68,70,87)           108.6443         estimate D2E/DX2                !
 ! A252  A(72,70,87)           113.8698         estimate D2E/DX2                !
 ! A253  A(69,71,72)           121.9788         estimate D2E/DX2                !
 ! A254  A(69,71,73)           110.5972         estimate D2E/DX2                !
 ! A255  A(72,71,73)           119.2052         estimate D2E/DX2                !
 ! A256  A(70,72,71)           121.827          estimate D2E/DX2                !
 ! A257  A(70,72,74)           110.6966         estimate D2E/DX2                !
 ! A258  A(71,72,74)           119.1504         estimate D2E/DX2                !
 ! A259  A(33,73,71)           108.4249         estimate D2E/DX2                !
 ! A260  A(33,73,75)           119.9623         estimate D2E/DX2                !
 ! A261  A(71,73,75)           121.59           estimate D2E/DX2                !
 ! A262  A(34,74,72)           108.8709         estimate D2E/DX2                !
 ! A263  A(34,74,76)           120.26           estimate D2E/DX2                !
 ! A264  A(72,74,76)           121.4341         estimate D2E/DX2                !
 ! A265  A(73,75,76)           119.2792         estimate D2E/DX2                !
 ! A266  A(73,75,77)           121.9845         estimate D2E/DX2                !
 ! A267  A(76,75,77)           111.9514         estimate D2E/DX2                !
 ! A268  A(74,76,75)           119.2427         estimate D2E/DX2                !
 ! A269  A(74,76,78)           121.8982         estimate D2E/DX2                !
 ! A270  A(75,76,78)           111.8249         estimate D2E/DX2                !
 ! A271  A(37,77,75)           112.6525         estimate D2E/DX2                !
 ! A272  A(37,77,81)           111.5935         estimate D2E/DX2                !
 ! A273  A(37,77,97)           108.4845         estimate D2E/DX2                !
 ! A274  A(75,77,81)           100.6896         estimate D2E/DX2                !
 ! A275  A(75,77,97)           112.0203         estimate D2E/DX2                !
 ! A276  A(81,77,97)           111.3059         estimate D2E/DX2                !
 ! A277  A(38,78,76)           112.6955         estimate D2E/DX2                !
 ! A278  A(38,78,81)           111.9173         estimate D2E/DX2                !
 ! A279  A(38,78,100)          107.8205         estimate D2E/DX2                !
 ! A280  A(76,78,81)           100.8357         estimate D2E/DX2                !
 ! A281  A(76,78,100)          112.1726         estimate D2E/DX2                !
 ! A282  A(81,78,100)          111.3854         estimate D2E/DX2                !
 ! A283  A(39,79,40)           109.0929         estimate D2E/DX2                !
 ! A284  A(39,79,82)           112.2606         estimate D2E/DX2                !
 ! A285  A(39,79,94)           110.5497         estimate D2E/DX2                !
 ! A286  A(40,79,82)           100.148          estimate D2E/DX2                !
 ! A287  A(40,79,94)           111.9378         estimate D2E/DX2                !
 ! A288  A(82,79,94)           112.434          estimate D2E/DX2                !
 ! A289  A(41,80,42)           108.8184         estimate D2E/DX2                !
 ! A290  A(41,80,82)           100.1662         estimate D2E/DX2                !
 ! A291  A(41,80,96)           112.0947         estimate D2E/DX2                !
 ! A292  A(42,80,82)           112.3509         estimate D2E/DX2                !
 ! A293  A(42,80,96)           110.5394         estimate D2E/DX2                !
 ! A294  A(82,80,96)           112.4493         estimate D2E/DX2                !
 ! A295  A(77,81,78)           112.5373         estimate D2E/DX2                !
 ! A296  A(77,81,82)           122.4981         estimate D2E/DX2                !
 ! A297  A(78,81,82)           122.5056         estimate D2E/DX2                !
 ! A298  A(79,82,80)           111.8961         estimate D2E/DX2                !
 ! A299  A(79,82,81)           122.2146         estimate D2E/DX2                !
 ! A300  A(80,82,81)           122.1755         estimate D2E/DX2                !
 ! A301  A(55,83,57)           118.0248         estimate D2E/DX2                !
 ! A302  A(55,83,84)           120.6834         estimate D2E/DX2                !
 ! A303  A(57,83,84)           118.8486         estimate D2E/DX2                !
 ! A304  A(56,84,58)           116.6467         estimate D2E/DX2                !
 ! A305  A(56,84,83)           119.3515         estimate D2E/DX2                !
 ! A306  A(58,84,83)           119.1062         estimate D2E/DX2                !
 ! D1    D(17,1,5,9)            19.8            estimate D2E/DX2                !
 ! D2    D(17,1,5,29)         -135.3985         estimate D2E/DX2                !
 ! D3    D(25,1,5,9)           138.2123         estimate D2E/DX2                !
 ! D4    D(25,1,5,29)          -16.9862         estimate D2E/DX2                !
 ! D5    D(98,1,5,9)          -103.0568         estimate D2E/DX2                !
 ! D6    D(98,1,5,29)          101.7447         estimate D2E/DX2                !
 ! D7    D(5,1,17,15)          -27.3769         estimate D2E/DX2                !
 ! D8    D(5,1,17,19)          135.4358         estimate D2E/DX2                !
 ! D9    D(25,1,17,15)        -139.4864         estimate D2E/DX2                !
 ! D10   D(25,1,17,19)          23.3264         estimate D2E/DX2                !
 ! D11   D(98,1,17,15)          96.3221         estimate D2E/DX2                !
 ! D12   D(98,1,17,19)        -100.8651         estimate D2E/DX2                !
 ! D13   D(5,1,25,23)         -141.4067         estimate D2E/DX2                !
 ! D14   D(5,1,25,27)           18.3727         estimate D2E/DX2                !
 ! D15   D(17,1,25,23)         -22.0135         estimate D2E/DX2                !
 ! D16   D(17,1,25,27)         137.7659         estimate D2E/DX2                !
 ! D17   D(98,1,25,23)         100.6766         estimate D2E/DX2                !
 ! D18   D(98,1,25,27)         -99.544          estimate D2E/DX2                !
 ! D19   D(43,2,6,10)         -141.2611         estimate D2E/DX2                !
 ! D20   D(43,2,6,15)            9.3909         estimate D2E/DX2                !
 ! D21   D(44,2,6,10)          -25.8557         estimate D2E/DX2                !
 ! D22   D(44,2,6,15)          124.7963         estimate D2E/DX2                !
 ! D23   D(93,2,6,10)           97.8786         estimate D2E/DX2                !
 ! D24   D(93,2,6,15)         -111.4693         estimate D2E/DX2                !
 ! D25   D(6,2,43,13)          -11.0838         estimate D2E/DX2                !
 ! D26   D(6,2,43,39)          145.4001         estimate D2E/DX2                !
 ! D27   D(44,2,43,13)        -126.1315         estimate D2E/DX2                !
 ! D28   D(44,2,43,39)          30.3524         estimate D2E/DX2                !
 ! D29   D(93,2,43,13)         110.6434         estimate D2E/DX2                !
 ! D30   D(93,2,43,39)         -92.8727         estimate D2E/DX2                !
 ! D31   D(6,2,44,40)         -144.0731         estimate D2E/DX2                !
 ! D32   D(6,2,44,47)           23.6002         estimate D2E/DX2                !
 ! D33   D(43,2,44,40)         -34.2094         estimate D2E/DX2                !
 ! D34   D(43,2,44,47)         133.4639         estimate D2E/DX2                !
 ! D35   D(93,2,44,40)          90.2435         estimate D2E/DX2                !
 ! D36   D(93,2,44,47)        -102.0832         estimate D2E/DX2                !
 ! D37   D(18,3,7,12)            0.6224         estimate D2E/DX2                !
 ! D38   D(18,3,7,30)          149.0845         estimate D2E/DX2                !
 ! D39   D(26,3,7,12)         -144.2282         estimate D2E/DX2                !
 ! D40   D(26,3,7,30)            4.2339         estimate D2E/DX2                !
 ! D41   D(7,3,18,16)            7.7688         estimate D2E/DX2                !
 ! D42   D(7,3,18,20)         -145.248          estimate D2E/DX2                !
 ! D43   D(26,3,18,16)         148.6201         estimate D2E/DX2                !
 ! D44   D(26,3,18,20)          -4.3967         estimate D2E/DX2                !
 ! D45   D(7,3,26,24)          149.7435         estimate D2E/DX2                !
 ! D46   D(7,3,26,28)           -4.2795         estimate D2E/DX2                !
 ! D47   D(18,3,26,24)           4.0433         estimate D2E/DX2                !
 ! D48   D(18,3,26,28)        -149.9796         estimate D2E/DX2                !
 ! D49   D(45,4,8,11)           25.2629         estimate D2E/DX2                !
 ! D50   D(45,4,8,16)         -123.6107         estimate D2E/DX2                !
 ! D51   D(46,4,8,11)          140.2777         estimate D2E/DX2                !
 ! D52   D(46,4,8,16)           -8.5959         estimate D2E/DX2                !
 ! D53   D(95,4,8,11)          -98.8403         estimate D2E/DX2                !
 ! D54   D(95,4,8,16)          112.2861         estimate D2E/DX2                !
 ! D55   D(8,4,45,41)          144.6394         estimate D2E/DX2                !
 ! D56   D(8,4,45,48)          -23.0657         estimate D2E/DX2                !
 ! D57   D(46,4,45,41)          34.5592         estimate D2E/DX2                !
 ! D58   D(46,4,45,48)        -133.1459         estimate D2E/DX2                !
 ! D59   D(95,4,45,41)         -89.3524         estimate D2E/DX2                !
 ! D60   D(95,4,45,48)         102.9425         estimate D2E/DX2                !
 ! D61   D(8,4,46,14)            9.8002         estimate D2E/DX2                !
 ! D62   D(8,4,46,42)         -146.045          estimate D2E/DX2                !
 ! D63   D(45,4,46,14)         125.2048         estimate D2E/DX2                !
 ! D64   D(45,4,46,42)         -30.6405         estimate D2E/DX2                !
 ! D65   D(95,4,46,14)        -112.0338         estimate D2E/DX2                !
 ! D66   D(95,4,46,42)          92.1209         estimate D2E/DX2                !
 ! D67   D(1,5,9,13)            -2.8226         estimate D2E/DX2                !
 ! D68   D(1,5,9,35)          -157.1393         estimate D2E/DX2                !
 ! D69   D(29,5,9,13)          150.0273         estimate D2E/DX2                !
 ! D70   D(29,5,9,35)           -4.2894         estimate D2E/DX2                !
 ! D71   D(1,5,29,27)           10.3516         estimate D2E/DX2                !
 ! D72   D(1,5,29,31)          164.4022         estimate D2E/DX2                !
 ! D73   D(9,5,29,27)         -146.0989         estimate D2E/DX2                !
 ! D74   D(9,5,29,31)            7.9517         estimate D2E/DX2                !
 ! D75   D(2,6,10,49)           -1.9336         estimate D2E/DX2                !
 ! D76   D(2,6,10,53)          150.3459         estimate D2E/DX2                !
 ! D77   D(15,6,10,49)        -150.3024         estimate D2E/DX2                !
 ! D78   D(15,6,10,53)           1.9771         estimate D2E/DX2                !
 ! D79   D(2,6,15,13)           -4.6202         estimate D2E/DX2                !
 ! D80   D(2,6,15,17)         -154.2446         estimate D2E/DX2                !
 ! D81   D(10,6,15,13)         147.201          estimate D2E/DX2                !
 ! D82   D(10,6,15,17)          -2.4234         estimate D2E/DX2                !
 ! D83   D(3,7,12,14)           -6.7553         estimate D2E/DX2                !
 ! D84   D(3,7,12,36)          146.3187         estimate D2E/DX2                !
 ! D85   D(30,7,12,14)        -151.7246         estimate D2E/DX2                !
 ! D86   D(30,7,12,36)           1.3494         estimate D2E/DX2                !
 ! D87   D(3,7,30,28)           -2.6686         estimate D2E/DX2                !
 ! D88   D(3,7,30,32)         -153.2514         estimate D2E/DX2                !
 ! D89   D(12,7,30,28)         146.4784         estimate D2E/DX2                !
 ! D90   D(12,7,30,32)          -4.1044         estimate D2E/DX2                !
 ! D91   D(4,8,11,50)            1.4072         estimate D2E/DX2                !
 ! D92   D(4,8,11,54)         -147.9107         estimate D2E/DX2                !
 ! D93   D(16,8,11,50)         147.7979         estimate D2E/DX2                !
 ! D94   D(16,8,11,54)          -1.52           estimate D2E/DX2                !
 ! D95   D(4,8,16,14)            4.5265         estimate D2E/DX2                !
 ! D96   D(4,8,16,18)          153.2507         estimate D2E/DX2                !
 ! D97   D(11,8,16,14)        -145.6057         estimate D2E/DX2                !
 ! D98   D(11,8,16,18)           3.1185         estimate D2E/DX2                !
 ! D99   D(5,9,13,15)           -7.0594         estimate D2E/DX2                !
 ! D100  D(5,9,13,43)         -151.7602         estimate D2E/DX2                !
 ! D101  D(35,9,13,15)         147.9484         estimate D2E/DX2                !
 ! D102  D(35,9,13,43)           3.2476         estimate D2E/DX2                !
 ! D103  D(5,9,35,33)           -4.881          estimate D2E/DX2                !
 ! D104  D(5,9,35,37)          151.3245         estimate D2E/DX2                !
 ! D105  D(13,9,35,33)        -158.8538         estimate D2E/DX2                !
 ! D106  D(13,9,35,37)          -2.6483         estimate D2E/DX2                !
 ! D107  D(6,10,49,47)          31.3932         estimate D2E/DX2                !
 ! D108  D(6,10,49,51)         148.909          estimate D2E/DX2                !
 ! D109  D(6,10,49,91)         -89.7145         estimate D2E/DX2                !
 ! D110  D(53,10,49,47)       -122.6131         estimate D2E/DX2                !
 ! D111  D(53,10,49,51)         -5.0974         estimate D2E/DX2                !
 ! D112  D(53,10,49,91)        116.2792         estimate D2E/DX2                !
 ! D113  D(6,10,53,19)          -1.2408         estimate D2E/DX2                !
 ! D114  D(6,10,53,55)        -160.8431         estimate D2E/DX2                !
 ! D115  D(49,10,53,19)        153.5863         estimate D2E/DX2                !
 ! D116  D(49,10,53,55)         -6.016          estimate D2E/DX2                !
 ! D117  D(8,11,50,48)         -30.0324         estimate D2E/DX2                !
 ! D118  D(8,11,50,52)        -146.6967         estimate D2E/DX2                !
 ! D119  D(8,11,50,92)          92.0128         estimate D2E/DX2                !
 ! D120  D(54,11,50,48)        121.601          estimate D2E/DX2                !
 ! D121  D(54,11,50,52)          4.9366         estimate D2E/DX2                !
 ! D122  D(54,11,50,92)       -116.3538         estimate D2E/DX2                !
 ! D123  D(8,11,54,20)          -1.9587         estimate D2E/DX2                !
 ! D124  D(8,11,54,56)         150.8081         estimate D2E/DX2                !
 ! D125  D(50,11,54,20)       -154.4796         estimate D2E/DX2                !
 ! D126  D(50,11,54,56)         -1.7129         estimate D2E/DX2                !
 ! D127  D(7,12,14,16)           4.4418         estimate D2E/DX2                !
 ! D128  D(7,12,14,46)         151.9892         estimate D2E/DX2                !
 ! D129  D(36,12,14,16)       -149.171          estimate D2E/DX2                !
 ! D130  D(36,12,14,46)         -1.6236         estimate D2E/DX2                !
 ! D131  D(7,12,36,34)           5.9523         estimate D2E/DX2                !
 ! D132  D(7,12,36,38)        -150.1148         estimate D2E/DX2                !
 ! D133  D(14,12,36,34)        158.2253         estimate D2E/DX2                !
 ! D134  D(14,12,36,38)          2.1582         estimate D2E/DX2                !
 ! D135  D(9,13,15,6)         -151.3846         estimate D2E/DX2                !
 ! D136  D(9,13,15,17)          -2.0874         estimate D2E/DX2                !
 ! D137  D(43,13,15,6)          -2.8413         estimate D2E/DX2                !
 ! D138  D(43,13,15,17)        146.4559         estimate D2E/DX2                !
 ! D139  D(9,13,43,2)          157.396          estimate D2E/DX2                !
 ! D140  D(9,13,43,39)          -0.2174         estimate D2E/DX2                !
 ! D141  D(15,13,43,2)           9.0749         estimate D2E/DX2                !
 ! D142  D(15,13,43,39)       -148.5385         estimate D2E/DX2                !
 ! D143  D(12,14,16,8)         153.0092         estimate D2E/DX2                !
 ! D144  D(12,14,16,18)          4.118          estimate D2E/DX2                !
 ! D145  D(46,14,16,8)           2.059          estimate D2E/DX2                !
 ! D146  D(46,14,16,18)       -146.8323         estimate D2E/DX2                !
 ! D147  D(12,14,46,4)        -159.01           estimate D2E/DX2                !
 ! D148  D(12,14,46,42)         -1.7464         estimate D2E/DX2                !
 ! D149  D(16,14,46,4)          -7.7621         estimate D2E/DX2                !
 ! D150  D(16,14,46,42)        149.5016         estimate D2E/DX2                !
 ! D151  D(6,15,17,1)          165.4479         estimate D2E/DX2                !
 ! D152  D(6,15,17,19)           2.0116         estimate D2E/DX2                !
 ! D153  D(13,15,17,1)          20.4256         estimate D2E/DX2                !
 ! D154  D(13,15,17,19)       -143.0107         estimate D2E/DX2                !
 ! D155  D(8,16,18,3)         -154.5878         estimate D2E/DX2                !
 ! D156  D(8,16,18,20)          -1.2183         estimate D2E/DX2                !
 ! D157  D(14,16,18,3)         -10.0372         estimate D2E/DX2                !
 ! D158  D(14,16,18,20)        143.3323         estimate D2E/DX2                !
 ! D159  D(1,17,19,21)          -1.2437         estimate D2E/DX2                !
 ! D160  D(1,17,19,53)        -163.7639         estimate D2E/DX2                !
 ! D161  D(15,17,19,21)        161.3234         estimate D2E/DX2                !
 ! D162  D(15,17,19,53)         -1.1968         estimate D2E/DX2                !
 ! D163  D(3,18,20,22)          -7.6619         estimate D2E/DX2                !
 ! D164  D(3,18,20,54)         149.9634         estimate D2E/DX2                !
 ! D165  D(16,18,20,22)       -159.8132         estimate D2E/DX2                !
 ! D166  D(16,18,20,54)         -2.1879         estimate D2E/DX2                !
 ! D167  D(17,19,21,23)        -22.237          estimate D2E/DX2                !
 ! D168  D(17,19,21,57)       -133.2504         estimate D2E/DX2                !
 ! D169  D(17,19,21,99)        102.6053         estimate D2E/DX2                !
 ! D170  D(53,19,21,23)        140.4875         estimate D2E/DX2                !
 ! D171  D(53,19,21,57)         29.4741         estimate D2E/DX2                !
 ! D172  D(53,19,21,99)        -94.6702         estimate D2E/DX2                !
 ! D173  D(17,19,53,10)          0.837          estimate D2E/DX2                !
 ! D174  D(17,19,53,55)        157.2425         estimate D2E/DX2                !
 ! D175  D(21,19,53,10)       -162.1424         estimate D2E/DX2                !
 ! D176  D(21,19,53,55)         -5.7369         estimate D2E/DX2                !
 ! D177  D(18,20,22,24)         18.4861         estimate D2E/DX2                !
 ! D178  D(18,20,22,58)        131.4924         estimate D2E/DX2                !
 ! D179  D(18,20,22,102)      -105.7423         estimate D2E/DX2                !
 ! D180  D(54,20,22,24)       -139.2545         estimate D2E/DX2                !
 ! D181  D(54,20,22,58)        -26.2482         estimate D2E/DX2                !
 ! D182  D(54,20,22,102)        96.5172         estimate D2E/DX2                !
 ! D183  D(18,20,54,11)          3.8105         estimate D2E/DX2                !
 ! D184  D(18,20,54,56)       -144.7083         estimate D2E/DX2                !
 ! D185  D(22,20,54,11)        162.0713         estimate D2E/DX2                !
 ! D186  D(22,20,54,56)         13.5525         estimate D2E/DX2                !
 ! D187  D(19,21,23,25)         24.4796         estimate D2E/DX2                !
 ! D188  D(19,21,23,61)       -135.6215         estimate D2E/DX2                !
 ! D189  D(57,21,23,25)        141.4006         estimate D2E/DX2                !
 ! D190  D(57,21,23,61)        -18.7006         estimate D2E/DX2                !
 ! D191  D(99,21,23,25)        -99.429          estimate D2E/DX2                !
 ! D192  D(99,21,23,61)        100.4698         estimate D2E/DX2                !
 ! D193  D(19,21,57,59)        133.0836         estimate D2E/DX2                !
 ! D194  D(19,21,57,83)        -25.4987         estimate D2E/DX2                !
 ! D195  D(23,21,57,59)         15.4445         estimate D2E/DX2                !
 ! D196  D(23,21,57,83)       -143.1378         estimate D2E/DX2                !
 ! D197  D(99,21,57,59)       -103.7287         estimate D2E/DX2                !
 ! D198  D(99,21,57,83)         97.689          estimate D2E/DX2                !
 ! D199  D(20,22,24,26)        -19.2333         estimate D2E/DX2                !
 ! D200  D(20,22,24,62)        136.0827         estimate D2E/DX2                !
 ! D201  D(58,22,24,26)       -138.6885         estimate D2E/DX2                !
 ! D202  D(58,22,24,62)         16.6275         estimate D2E/DX2                !
 ! D203  D(102,22,24,26)       104.2864         estimate D2E/DX2                !
 ! D204  D(102,22,24,62)      -100.3976         estimate D2E/DX2                !
 ! D205  D(20,22,58,60)       -134.0667         estimate D2E/DX2                !
 ! D206  D(20,22,58,84)         22.8138         estimate D2E/DX2                !
 ! D207  D(24,22,58,60)        -13.5583         estimate D2E/DX2                !
 ! D208  D(24,22,58,84)        143.3222         estimate D2E/DX2                !
 ! D209  D(102,22,58,60)       103.715          estimate D2E/DX2                !
 ! D210  D(102,22,58,84)       -99.4044         estimate D2E/DX2                !
 ! D211  D(21,23,25,1)          -1.9894         estimate D2E/DX2                !
 ! D212  D(21,23,25,27)       -159.9311         estimate D2E/DX2                !
 ! D213  D(61,23,25,1)         156.4973         estimate D2E/DX2                !
 ! D214  D(61,23,25,27)         -1.4444         estimate D2E/DX2                !
 ! D215  D(21,23,61,59)         14.5379         estimate D2E/DX2                !
 ! D216  D(21,23,61,63)        130.0483         estimate D2E/DX2                !
 ! D217  D(21,23,61,89)       -106.9784         estimate D2E/DX2                !
 ! D218  D(25,23,61,59)       -146.1009         estimate D2E/DX2                !
 ! D219  D(25,23,61,63)        -30.5905         estimate D2E/DX2                !
 ! D220  D(25,23,61,89)         92.3828         estimate D2E/DX2                !
 ! D221  D(22,24,26,3)           8.6286         estimate D2E/DX2                !
 ! D222  D(22,24,26,28)        159.6591         estimate D2E/DX2                !
 ! D223  D(62,24,26,3)        -144.9677         estimate D2E/DX2                !
 ! D224  D(62,24,26,28)          6.0628         estimate D2E/DX2                !
 ! D225  D(22,24,62,60)        -13.0946         estimate D2E/DX2                !
 ! D226  D(22,24,62,64)       -127.9739         estimate D2E/DX2                !
 ! D227  D(22,24,62,90)        108.7932         estimate D2E/DX2                !
 ! D228  D(26,24,62,60)        142.7219         estimate D2E/DX2                !
 ! D229  D(26,24,62,64)         27.8426         estimate D2E/DX2                !
 ! D230  D(26,24,62,90)        -95.3903         estimate D2E/DX2                !
 ! D231  D(1,25,27,29)         -12.8502         estimate D2E/DX2                !
 ! D232  D(1,25,27,65)        -127.6492         estimate D2E/DX2                !
 ! D233  D(1,25,27,85)         109.2377         estimate D2E/DX2                !
 ! D234  D(23,25,27,29)        147.2026         estimate D2E/DX2                !
 ! D235  D(23,25,27,65)         32.4036         estimate D2E/DX2                !
 ! D236  D(23,25,27,85)        -90.7095         estimate D2E/DX2                !
 ! D237  D(3,26,28,30)           2.5461         estimate D2E/DX2                !
 ! D238  D(3,26,28,66)         117.7278         estimate D2E/DX2                !
 ! D239  D(3,26,28,88)        -119.7707         estimate D2E/DX2                !
 ! D240  D(24,26,28,30)       -151.2652         estimate D2E/DX2                !
 ! D241  D(24,26,28,66)        -36.0834         estimate D2E/DX2                !
 ! D242  D(24,26,28,88)         86.4181         estimate D2E/DX2                !
 ! D243  D(25,27,29,5)           1.3742         estimate D2E/DX2                !
 ! D244  D(25,27,29,31)       -152.2866         estimate D2E/DX2                !
 ! D245  D(65,27,29,5)         118.2768         estimate D2E/DX2                !
 ! D246  D(65,27,29,31)        -35.384          estimate D2E/DX2                !
 ! D247  D(85,27,29,5)        -119.4594         estimate D2E/DX2                !
 ! D248  D(85,27,29,31)         86.8798         estimate D2E/DX2                !
 ! D249  D(25,27,65,63)        -30.4337         estimate D2E/DX2                !
 ! D250  D(25,27,65,67)        143.1798         estimate D2E/DX2                !
 ! D251  D(29,27,65,63)       -140.1814         estimate D2E/DX2                !
 ! D252  D(29,27,65,67)         33.4322         estimate D2E/DX2                !
[...]
 Alpha virt. eigenvalues --    1.62198   1.62289   1.62658   1.62782   1.62938
 Alpha virt. eigenvalues --    1.63165   1.63538   1.63634   1.63969   1.64401
 Alpha virt. eigenvalues --    1.64656   1.64767   1.64855   1.65260   1.65569
 Alpha virt. eigenvalues --    1.65828   1.66157   1.66273   1.66519   1.66683
 Alpha virt. eigenvalues --    1.66949   1.67073   1.67398   1.67505   1.67835
 Alpha virt. eigenvalues --    1.68020   1.68097   1.68173   1.68507   1.68578
 Alpha virt. eigenvalues --    1.68988   1.69182   1.69348   1.69761   1.69897
 Alpha virt. eigenvalues --    1.70091   1.70274   1.70496   1.70641   1.70781
 Alpha virt. eigenvalues --    1.71142   1.71411   1.71529   1.71872   1.72018
 Alpha virt. eigenvalues --    1.72270   1.72621   1.72808   1.73083   1.73201
 Alpha virt. eigenvalues --    1.73881   1.74147   1.74393   1.74516   1.74706
 Alpha virt. eigenvalues --    1.74933   1.75356   1.75509   1.75631   1.75830
 Alpha virt. eigenvalues --    1.76112   1.76245   1.76356   1.76568   1.76823
 Alpha virt. eigenvalues --    1.76909   1.77285   1.77465   1.77569   1.78001
 Alpha virt. eigenvalues --    1.78166   1.78399   1.78827   1.78932   1.79277
 Alpha virt. eigenvalues --    1.79620   1.79707   1.79882   1.80160   1.80264
 Alpha virt. eigenvalues --    1.80406   1.80605   1.80834   1.81192   1.81397
 Alpha virt. eigenvalues --    1.81631   1.81785   1.81947   1.82201   1.82456
 Alpha virt. eigenvalues --    1.82677   1.83153   1.83343   1.83438   1.83806
 Alpha virt. eigenvalues --    1.84189   1.84256   1.84583   1.84691   1.84949
 Alpha virt. eigenvalues --    1.85105   1.85508   1.85716   1.85986   1.86191
 Alpha virt. eigenvalues --    1.86871   1.86900   1.87382   1.87614   1.87924
 Alpha virt. eigenvalues --    1.88307   1.88422   1.89035   1.89305   1.89606
 Alpha virt. eigenvalues --    1.89811   1.90278   1.90634   1.91040   1.91517
 Alpha virt. eigenvalues --    1.91692   1.92487   1.92800   1.92834   1.93292
 Alpha virt. eigenvalues --    1.93589   1.93888   1.93958   1.94650   1.94895
 Alpha virt. eigenvalues --    1.95032   1.95714   1.96269   1.96594   1.97013
 Alpha virt. eigenvalues --    1.97217   1.97469   1.97658   1.97965   1.98308
 Alpha virt. eigenvalues --    1.98641   1.98719   1.99098   1.99555   1.99839
 Alpha virt. eigenvalues --    2.00264   2.00521   2.00799   2.01172   2.01338
 Alpha virt. eigenvalues --    2.01864   2.02146   2.02389   2.02815   2.03001
 Alpha virt. eigenvalues --    2.03196   2.03528   2.04536   2.05031   2.05545
 Alpha virt. eigenvalues --    2.05730   2.06163   2.06674   2.06861   2.07297
 Alpha virt. eigenvalues --    2.07486   2.07698   2.08516   2.08552   2.08766
 Alpha virt. eigenvalues --    2.09196   2.09938   2.10214   2.10567   2.10834
 Alpha virt. eigenvalues --    2.11223   2.11578   2.11810   2.12456   2.12730
 Alpha virt. eigenvalues --    2.12774   2.13522   2.14052   2.14223   2.14440
 Alpha virt. eigenvalues --    2.15259   2.15423   2.15750   2.16292   2.16489
 Alpha virt. eigenvalues --    2.16986   2.17278   2.17556   2.18051   2.18399
 Alpha virt. eigenvalues --    2.18628   2.18931   2.19251   2.19541   2.20153
 Alpha virt. eigenvalues --    2.20971   2.21207   2.21636   2.21893   2.22337
 Alpha virt. eigenvalues --    2.22506   2.22894   2.23528   2.23951   2.24240
 Alpha virt. eigenvalues --    2.24734   2.24904   2.25192   2.25801   2.26085
 Alpha virt. eigenvalues --    2.26700   2.26825   2.27463   2.27558   2.28036
 Alpha virt. eigenvalues --    2.28308   2.28382   2.29219   2.29560   2.30379
 Alpha virt. eigenvalues --    2.30691   2.31296   2.31678   2.31934   2.32828
 Alpha virt. eigenvalues --    2.33207   2.33418   2.33730   2.34606   2.35325
 Alpha virt. eigenvalues --    2.35755   2.36510   2.37176   2.37300   2.37355
 Alpha virt. eigenvalues --    2.38079   2.38393   2.38948   2.39188   2.39562
 Alpha virt. eigenvalues --    2.40138   2.41191   2.41356   2.41702   2.42150
 Alpha virt. eigenvalues --    2.42519   2.43267   2.43329   2.43554   2.44449
 Alpha virt. eigenvalues --    2.45124   2.45788   2.46280   2.46477   2.46725
 Alpha virt. eigenvalues --    2.47291   2.47708   2.47945   2.48145   2.48650
 Alpha virt. eigenvalues --    2.49504   2.49649   2.50108   2.50972   2.51457
 Alpha virt. eigenvalues --    2.51704   2.51828   2.52581   2.52836   2.53149
 Alpha virt. eigenvalues --    2.53251   2.53987   2.54225   2.54616   2.55158
 Alpha virt. eigenvalues --    2.55336   2.55981   2.56468   2.56573   2.56823
 Alpha virt. eigenvalues --    2.56923   2.57092   2.57377   2.58003   2.58117
 Alpha virt. eigenvalues --    2.58653   2.58756   2.59294   2.59913   2.60047
 Alpha virt. eigenvalues --    2.60556   2.60793   2.61037   2.61267   2.61781
 Alpha virt. eigenvalues --    2.62439   2.63132   2.63647   2.64146   2.64218
 Alpha virt. eigenvalues --    2.64515   2.64786   2.65059   2.65194   2.66234
 Alpha virt. eigenvalues --    2.66262   2.66577   2.66769   2.67027   2.67271
 Alpha virt. eigenvalues --    2.67981   2.68346   2.68421   2.69053   2.69219
 Alpha virt. eigenvalues --    2.69511   2.69733   2.70404   2.70696   2.71025
 Alpha virt. eigenvalues --    2.71448   2.71467   2.71930   2.72204   2.72372
 Alpha virt. eigenvalues --    2.73163   2.73771   2.73854   2.74121   2.74564
 Alpha virt. eigenvalues --    2.74925   2.75160   2.75538   2.75724   2.76226
 Alpha virt. eigenvalues --    2.76276   2.76675   2.77122   2.77601   2.77913
 Alpha virt. eigenvalues --    2.78034   2.78803   2.79191   2.79795   2.80386
 Alpha virt. eigenvalues --    2.80606   2.81573   2.81753   2.82349   2.82711
 Alpha virt. eigenvalues --    2.83041   2.83185   2.83764   2.84449   2.84556
 Alpha virt. eigenvalues --    2.85352   2.85653   2.87085   2.87386   2.87566
 Alpha virt. eigenvalues --    2.88003   2.88501   2.89635   2.89908   2.90329
 Alpha virt. eigenvalues --    2.90766   2.91191   2.92458   2.92638   2.92991
 Alpha virt. eigenvalues --    2.93886   2.94305   2.95479   2.95661   2.96906
 Alpha virt. eigenvalues --    2.97320   2.99248   2.99866   3.00219   3.01826
 Alpha virt. eigenvalues --    3.03385   3.05848   3.06606   3.07654   3.08203
 Alpha virt. eigenvalues --    3.09498   3.09702   3.10728   3.11787   3.13178
 Alpha virt. eigenvalues --    3.14366   3.15989   3.16432   3.17603   3.18062
 Alpha virt. eigenvalues --    3.19151   3.19646   3.22045   3.23745   3.25569
 Alpha virt. eigenvalues --    3.26110   3.27820   3.30680   3.31954   3.32759
 Alpha virt. eigenvalues --    3.35084   3.37217   3.37806   3.40982   3.42344
 Alpha virt. eigenvalues --    3.45960   3.46865   3.47725   3.49395   3.51736
 Alpha virt. eigenvalues --    4.00369   4.01449   4.02070   4.02909   4.03201
 Alpha virt. eigenvalues --    4.04651   4.05452   4.06358   4.07164   4.07737
 Alpha virt. eigenvalues --    4.07806   4.08371   4.08938   4.09558   4.10159
 Alpha virt. eigenvalues --    4.10751   4.11732   4.12391   4.14205   4.14918
 Alpha virt. eigenvalues --    4.15116   4.15702   4.16063   4.16935   4.18406
 Alpha virt. eigenvalues --    4.18627   4.19304   4.20173   4.20450   4.20686
 Alpha virt. eigenvalues --    4.21265   4.22238   4.22847   4.24358   4.24660
 Alpha virt. eigenvalues --    4.25102   4.25239   4.25509   4.26608   4.26851
 Alpha virt. eigenvalues --    4.27085   4.27374   4.27828   4.28265   4.29042
 Alpha virt. eigenvalues --    4.29144   4.29285   4.30004   4.30638   4.31165
 Alpha virt. eigenvalues --    4.33057   4.33610   4.34258   4.35336   4.35963
 Alpha virt. eigenvalues --    4.37609   4.38245   4.38428   4.38892   4.40371
 Alpha virt. eigenvalues --    4.40489   4.41635   4.41893   4.42038   4.43366
 Alpha virt. eigenvalues --    4.44270   4.44445   4.44940   4.45859   4.48102
 Alpha virt. eigenvalues --    4.48652   4.50278   4.52182   4.53604   4.55409
 Alpha virt. eigenvalues --    4.56070   4.56615   4.57245   4.57723   4.60248
 Alpha virt. eigenvalues --    4.61758   4.64037   4.65432   4.67157   4.68366
 Alpha virt. eigenvalues --    4.71189   4.73303   4.78313   4.78927   4.80440
 Alpha virt. eigenvalues --    4.81313   4.83572   4.85493   4.88107   4.93467
 Alpha virt. eigenvalues --    4.96742   4.96988   5.00447   5.01501   5.07629
 Alpha virt. eigenvalues --    5.12869   5.17901
          Condensed to atoms (all electrons):
 Mulliken charges:
               1
     1  C   -0.360729
     2  C   -0.394693
     3  C   -0.016138
     4  C   -0.396101
     5  C    0.077765
     6  C    0.083673
     7  C    0.018306
     8  C    0.089921
     9  C    0.059929
    10  C    0.129233
    11  C    0.102904
    12  C    0.034206
    13  C   -0.015340
    14  C    0.012131
    15  C    0.043286
    16  C    0.024223
    17  C    0.118252
    18  C    0.079301
    19  C    0.149612
    20  C    0.084057
    21  C   -0.384523
    22  C   -0.319292
    23  C    0.182970
    24  C    0.163655
    25  C    0.184335
    26  C    0.109961
    27  C   -0.370621
    28  C   -0.384573
    29  C    0.134719
    30  C    0.096790
    31  C    0.088336
    32  C    0.097563
    33  C   -0.011663
    34  C   -0.011442
    35  C    0.067080
    36  C    0.075228
    37  C    0.090824
    38  C    0.095397
    39  C    0.150634
    40  C    0.115982
    41  C    0.113536
    42  C    0.157565
    43  C    0.086657
    44  C    0.149757
    45  C    0.148521
    46  C    0.088028
    47  C    0.127358
    48  C    0.119238
    49  C   -0.367608
    50  C   -0.389123
    51  C    0.150627
    52  C    0.118703
    53  C    0.109717
    54  C    0.057174
    55  C   -0.354711
    56  C   -0.037965
    57  C    0.109972
    58  C    0.090555
    59  C    0.118762
    60  C    0.123121
    61  C   -0.371680
    62  C   -0.370784
    63  C    0.129436
    64  C    0.128990
    65  C    0.126127
    66  C    0.124898
    67  C    0.124414
    68  C    0.120314
    69  C   -0.381156
    70  C   -0.378144
    71  C    0.098100
    72  C    0.094358
    73  C    0.033833
    74  C    0.036347
    75  C    0.104583
    76  C    0.103071
    77  C   -0.353123
    78  C   -0.355536
    79  C   -0.379436
    80  C   -0.381230
    81  C    0.177084
    82  C    0.188243
    83  C    0.118655
    84  C    0.082739
    85  Cl   0.034203
    86  Cl   0.035653
    87  Cl   0.036188
    88  Cl   0.039908
    89  Cl   0.028689
    90  Cl   0.030277
    91  Cl   0.018766
    92  Cl   0.036718
    93  Cl   0.034104
    94  Cl   0.036275
    95  Cl   0.040571
    96  Cl   0.036114
    97  Cl   0.009691
    98  Cl   0.007621
    99  Cl   0.027496
   100  Cl   0.020288
   101  Cl  -0.018817
   102  Cl  -0.088889
 Sum of Mulliken charges =  -0.00000
 Mulliken charges with hydrogens summed into heavy atoms:
               1
     1  C   -0.360729
     2  C   -0.394693
     3  C   -0.016138
     4  C   -0.396101
     5  C    0.077765
     6  C    0.083673
     7  C    0.018306
     8  C    0.089921
     9  C    0.059929
    10  C    0.129233
    11  C    0.102904
    12  C    0.034206
    13  C   -0.015340
    14  C    0.012131
    15  C    0.043286
    16  C    0.024223
    17  C    0.118252
    18  C    0.079301
    19  C    0.149612
    20  C    0.084057
    21  C   -0.384523
    22  C   -0.319292
    23  C    0.182970
    24  C    0.163655
    25  C    0.184335
    26  C    0.109961
    27  C   -0.370621
    28  C   -0.384573
    29  C    0.134719
    30  C    0.096790
    31  C    0.088336
    32  C    0.097563
    33  C   -0.011663
    34  C   -0.011442
    35  C    0.067080
    36  C    0.075228
    37  C    0.090824
    38  C    0.095397
    39  C    0.150634
    40  C    0.115982
    41  C    0.113536
    42  C    0.157565
    43  C    0.086657
    44  C    0.149757
    45  C    0.148521
    46  C    0.088028
    47  C    0.127358
    48  C    0.119238
    49  C   -0.367608
    50  C   -0.389123
    51  C    0.150627
    52  C    0.118703
    53  C    0.109717
    54  C    0.057174
    55  C   -0.354711
    56  C   -0.037965
    57  C    0.109972
    58  C    0.090555
    59  C    0.118762
    60  C    0.123121
    61  C   -0.371680
    62  C   -0.370784
    63  C    0.129436
    64  C    0.128990
    65  C    0.126127
    66  C    0.124898
    67  C    0.124414
    68  C    0.120314
    69  C   -0.381156
    70  C   -0.378144
    71  C    0.098100
    72  C    0.094358
    73  C    0.033833
    74  C    0.036347
    75  C    0.104583
    76  C    0.103071
    77  C   -0.353123
    78  C   -0.355536
    79  C   -0.379436
    80  C   -0.381230
    81  C    0.177084
    82  C    0.188243
    83  C    0.118655
    84  C    0.082739
    85  Cl   0.034203
    86  Cl   0.035653
    87  Cl   0.036188
    88  Cl   0.039908
    89  Cl   0.028689
    90  Cl   0.030277
    91  Cl   0.018766
    92  Cl   0.036718
    93  Cl   0.034104
    94  Cl   0.036275
    95  Cl   0.040571
    96  Cl   0.036114
    97  Cl   0.009691
    98  Cl   0.007621
    99  Cl   0.027496
   100  Cl   0.020288
   101  Cl  -0.018817
   102  Cl  -0.088889
 Electronic spatial extent (au):  <R**2>=          76797.1765
 Charge=              0.0000 electrons
 Dipole moment (field-independent basis, Debye):
    X=             -3.4647    Y=             -4.5871    Z=              1.4497  Tot=              5.9285
 Quadrupole moment (field-independent basis, Debye-Ang):
   XX=           -745.4134   YY=           -723.7610   ZZ=           -706.7000
   XY=             -3.9632   XZ=             -9.7062   YZ=             -4.4576
 Traceless Quadrupole moment (field-independent basis, Debye-Ang):
   XX=            -20.1219   YY=              1.5305   ZZ=             18.5914
   XY=             -3.9632   XZ=             -9.7062   YZ=             -4.4576
 Octapole moment (field-independent basis, Debye-Ang**2):
  XXX=             -0.3070  YYY=            -91.2839  ZZZ=            -38.9664  XYY=             -2.5699
  XXY=             13.7312  XXZ=            -12.8846  XZZ=            -90.1187  YZZ=            -56.5775
  YYZ=              6.1877  XYZ=             -1.7896
 Hexadecapole moment (field-independent basis, Debye-Ang**3):
 XXXX=         -40655.9674 YYYY=         -36825.8861 ZZZZ=         -29944.4986 XXXY=           -345.3307
 XXXZ=           -131.0167 YYYX=           -141.9583 YYYZ=             -1.6637 ZZZX=           -254.1954
 ZZZY=           -238.0542 XXYY=         -12961.0684 XXZZ=         -12004.3164 YYZZ=         -11052.1220
 XXYZ=            -96.4862 YYXZ=            -81.2900 ZZXY=           -156.3029
 N-N= 3.011585235175D+04 E-N=-8.730495597838D+04  KE= 1.142939158229D+04
 Leave Link  601 at Mon Jun 27 13:24:00 2022, MaxMem=  1342177280 cpu:              18.7 elap:               1.1
 (Enter /home/mkliu/g16/l9999.exe)
 1\1\GINC-NODE03\FOpt\RB3LYP\6-31G(d,p)\C84Cl18\MKLIU\27-Jun-2022\0\\#P
  opt b3lyp/6-31G(d, p) empiricaldispersion=GD3\\force\\0,1\C,8.2268289
 713,18.6344206158,10.6106088661\C,12.4795562117,19.998503476,8.9163747
 115\C,8.2712876216,26.8731793689,10.5507179854\C,12.4875930709,25.7652
 632422,8.9144615623\C,7.9538711286,18.9584103391,9.1556495681\C,11.870
 8993912,19.5756617989,10.231711775\C,7.9570059574,26.8113328155,9.1538
 211449\C,11.8880178688,26.2055279096,10.2301519513\C,8.9599588654,19.1
 341075991,8.1657149499\C,12.1291589415,20.228489859,11.4123237324\C,12
 .1244298898,25.542172589,11.4006689702\C,8.9594950316,26.646552804,8.1
 498808508\C,10.2993370182,19.0714969683,8.6077983179\C,10.2917550345,2
 6.6853887197,8.6113764044\C,10.6206634785,18.9736353156,10.0342829575\
 C,10.6142712923,26.7791838344,10.0239958509\C,9.6369558939,18.98244554
 24,11.0287882662\C,9.6132701145,26.7835080085,11.0294793481\C,9.906840
 2771,19.6466600093,12.2426865442\C,9.8862682071,26.1417395369,12.27312
 44093\C,8.7739712915,20.0658647348,13.1563601476\C,8.7621824033,25.700
 6058558,13.1601815489\C,7.4574293391,20.1689850268,12.412845243\C,7.44
 89234027,25.6059252081,12.4431496395\C,7.2048005709,19.5142156051,11.2
 891362972\C,7.2172481224,26.2403528685,11.2744007123\C,6.1126285633,19
 .953021472,10.3384095808\C,6.1067053956,25.8174440143,10.3303698653\C,
 6.7176540476,19.5641342365,9.0191030721\C,6.6866534904,26.2226902982,8
 .9952616318\C,6.3905386416,20.2243311829,7.8465329119\C,6.37315235,25.
 5629564997,7.8355849351\C,7.3214143372,20.3262984602,6.8134147968\C,7.
 3181416961,25.4526665517,6.7955817119\C,8.6720428753,19.8878215384,6.9
 736731701\C,8.6695102986,25.8967254376,6.958965861\C,9.7324212308,20.5
 976727812,6.3045616531\C,9.7323309386,25.1741031441,6.3064624858\C,11.
 0293286555,20.5631002299,6.8284217025\C,12.6559008529,22.1861397182,7.
 7749111333\C,12.6594624182,23.5763086135,7.7718764187\C,11.0346128055,
 25.2001655308,6.8296904494\C,11.3099480545,19.7642187235,7.9534313005\
 C,12.8320830158,21.47114399,8.9574999623\C,12.8325376388,24.2904061733
 ,8.9547557805\C,11.3112400313,25.987374654,7.9579558891\C,13.054421927
 2,22.1722040653,10.1635907244\C,13.0484558549,23.5859028741,10.1586609
 891\C,13.0704084328,21.4053050058,11.4944128549\C,13.0533951802,24.349
 1797239,11.4830546863\C,12.4413787189,22.1944948513,12.6115250011\C,12
 .3936532356,23.5402971677,12.5820982337\C,11.1545586388,20.253903436,1
 2.4225550421\C,11.1278048153,25.4961104307,12.4244709965\C,11.43180209
 35,21.3876124458,13.3853491384\C,11.311449875,24.2837316858,13.1648435
 64\C,8.9557537077,21.4978021698,13.6153707901\C,8.9350596485,24.280414
 4662,13.620548892\C,7.7447083219,22.1990814649,13.4921238581\C,7.73921
 2071,23.5716107182,13.497969489\C,6.6803880411,21.4092137566,12.791682
 1031\C,6.6704935624,24.3658408654,12.8023028217\C,6.1869562906,22.1810
 536396,11.5552124231\C,6.1895371704,23.5959797824,11.5554206872\C,5.90
 34228841,21.478228439,10.3691638597\C,5.9091501924,24.2942089567,10.36
 40895513\C,5.6035475133,22.1798412388,9.1754682666\C,5.6059540066,23.5
 921955202,9.1731790931\C,5.4329447358,21.402042174,7.8533952098\C,5.42
 75064785,24.3723059417,7.8493556707\C,5.9559592915,22.2042275458,6.679
 4831384\C,5.9543665047,23.5726772034,6.6772227863\C,7.0090690158,21.50
 97288406,6.0373806955\C,7.0088844359,24.2677219957,6.032092893\C,8.012
 8546417,22.1873530032,5.3632714566\C,8.012420654,23.5847606244,5.36065
 58287\C,9.4009000248,21.6223757387,5.2198910355\C,9.401873133,24.14520
 54574,5.2212502695\C,12.0571424435,21.6312298532,6.4929204805\C,12.060
 7315297,24.1305389019,6.4904892839\C,10.2366803498,22.8835128235,5.354
 939337\C,11.4360609472,22.8820314779,5.9191306227\C,10.1732368021,22.1
 619222491,13.6938632134\C,10.1748172271,23.5952131639,13.679600953\Cl,
 4.5262848821,19.086395911,10.6806432331\Cl,3.6781408582,20.9256629306,
 7.6202158533\Cl,3.6696135314,24.8378896527,7.6239123957\Cl,4.533252146
 6,26.6840186723,10.69565403\Cl,5.248064281,21.005073246,13.8835941353\
 Cl,5.2251959001,24.7306511659,13.8882865886\Cl,14.8087979911,20.883601
 0013,11.8553436323\Cl,14.7667076639,24.8562913406,11.9048732314\Cl,13.
 9507646222,18.9891661195,8.4786074307\Cl,13.3496912028,20.9517878787,5
 .3698016144\Cl,13.9452088043,26.7769535593,8.4454778326\Cl,13.34652190
 69,24.8165842959,5.3630634095\Cl,9.6289969558,20.8414621662,3.55014062
 21\Cl,7.9136813459,16.8311638297,10.9411140018\Cl,8.6445940621,18.9090
 621998,14.5893347118\Cl,9.6426748339,24.9576840197,3.571410649\Cl,12.1
 749006987,20.7278955954,14.9825059827\Cl,8.631384383,26.8740529872,14.
 6832342761\\Version=ES64L-G16RevA.03\State=1-A\HF=-11484.598118\RMSD=4
 .206e-09\RMSF=1.598e-05\Dipole=-0.0623004,1.0149053,-2.0991642\Quadrup
 ole=-5.3678212,15.5878848,-10.2200636,2.4722505,8.8878294,-2.567299\PG
 =C01 [X(C84Cl18)]\\@


 I WANT TO KNOW HOW GOD CREATED THE WORLD.  I AM NOT INTERESTED IN
 THIS OR THAT PHENOMENON, IN THE SPECTRUM OF THIS OR THAT ELEMENT.
 I WANT TO KNOW HIS THOUGHTS, THE REST ARE DETAILS.
     -- ALBERT EINSTEIN
 Job cpu time:       2 days  8 hours 34 minutes  9.5 seconds.
 Elapsed time:       0 days  2 hours 21 minutes 36.7 seconds.
 File lengths (MBytes):  RWF=   1574 Int=      0 D2E=      0 Chk=    196 Scr=      1
 Normal termination of Gaussian 16 at Mon Jun 27 13:24:02 2022.
