 Entering Gaussian System, Link 0=g16
 Input=20_addons_C84_14_Cl22_rank_2.gjf
 Output=20_addons_C84_14_Cl22_rank_2.log
 Initial command:
 /home/mkliu/g16/l1.exe "/data/scratch/Gau-147790.inp" -scrdir="/data/scratch/"
 Entering Link 1 = /home/mkliu/g16/l1.exe PID=    147791.
  
 Copyright (c) 1988,1990,1992,1993,1995,1998,2003,2009,2016,
            Gaussian, Inc.  All Rights Reserved.
  
 This is part of the Gaussian(R) 16 program.  It is based on
 the Gaussian(R) 09 system (copyright 2009, Gaussian, Inc.),
 the Gaussian(R) 03 system (copyright 2003, Gaussian, Inc.),
 the Gaussian(R) 98 system (copyright 1998, Gaussian, Inc.),
 the Gaussian(R) 94 system (copyright 1995, Gaussian, Inc.),
 the Gaussian 92(TM) system (copyright 1992, Gaussian, Inc.),
 the Gaussian 90(TM) system (copyright 1990, Gaussian, Inc.),
 the Gaussian 88(TM) system (copyright 1988, Gaussian, Inc.),
 the Gaussian 86(TM) system (copyright 1986, Carnegie Mellon
 University), and the Gaussian 82(TM) system (copyright 1983,
 Carnegie Mellon University). Gaussian is a federally registered
 trademark of Gaussian, Inc.
  
 This software contains proprietary and confidential information,
 including trade secrets, belonging to Gaussian, Inc.
  
 This software is provided under written license and may be
 used, copied, transmitted, or stored only in accord with that
 written license.
  
 The following legend is applicable only to US Government
 contracts under FAR:
  
                    RESTRICTED RIGHTS LEGEND
  
 Use, reproduction and disclosure by the US Government is
 subject to restrictions as set forth in subparagraphs (a)
 and (c) of the Commercial Computer Software - Restricted
 Rights clause in FAR 52.227-19.
  
 Gaussian, Inc.
 340 Quinnipiac St., Bldg. 40, Wallingford CT 06492
  
  
 ---------------------------------------------------------------
 Warning -- This program may not be used in any manner that
 competes with the business of Gaussian, Inc. or will provide
 assistance to any competitor of Gaussian, Inc.  The licensee
 of this program is prohibited from giving any competitor of
 Gaussian, Inc. access to this program.  By using this program,
 the user acknowledges that Gaussian, Inc. is engaged in the
 business of creating and licensing software in the field of
 computational chemistry and represents and warrants to the
 licensee that it is not a competitor of Gaussian, Inc. and that
 it will not use this program in any manner prohibited above.
 ---------------------------------------------------------------
  

 Cite this work as:
 Gaussian 16, Revision A.03,
 M. J. Frisch, G. W. Trucks, H. B. Schlegel, G. E. Scuseria, 
 M. A. Robb, J. R. Cheeseman, G. Scalmani, V. Barone, 
 G. A. Petersson, H. Nakatsuji, X. Li, M. Caricato, A. V. Marenich, 
 J. Bloino, B. G. Janesko, R. Gomperts, B. Mennucci, H. P. Hratchian, 
 J. V. Ortiz, A. F. Izmaylov, J. L. Sonnenberg, D. Williams-Young, 
 F. Ding, F. Lipparini, F. Egidi, J. Goings, B. Peng, A. Petrone, 
 T. Henderson, D. Ranasinghe, V. G. Zakrzewski, J. Gao, N. Rega, 
 G. Zheng, W. Liang, M. Hada, M. Ehara, K. Toyota, R. Fukuda, 
 J. Hasegawa, M. Ishida, T. Nakajima, Y. Honda, O. Kitao, H. Nakai, 
 T. Vreven, K. Throssell, J. A. Montgomery, Jr., J. E. Peralta, 
 F. Ogliaro, M. J. Bearpark, J. J. Heyd, E. N. Brothers, K. N. Kudin, 
 V. N. Staroverov, T. A. Keith, R. Kobayashi, J. Normand, 
 K. Raghavachari, A. P. Rendell, J. C. Burant, S. S. Iyengar, 
 J. Tomasi, M. Cossi, J. M. Millam, M. Klene, C. Adamo, R. Cammi, 
 J. W. Ochterski, R. L. Martin, K. Morokuma, O. Farkas, 
 J. B. Foresman, and D. J. Fox, Gaussian, Inc., Wallingford CT, 2016.
 
 ******************************************
 Gaussian 16:  ES64L-G16RevA.03 25-Dec-2016
                29-Jun-2022 
 ******************************************
 %mem=10GB
 %chk=20_addons_C84_14_Cl22_rank_2.chk
 %nprocshared=24
 Will use up to   24 processors via shared memory.
 ------------------------------------------------
 #P opt b3lyp/6-31G(d, p) empiricaldispersion=GD3
 ------------------------------------------------
 1/18=20,19=15,26=3,38=1/1,3;
 2/9=110,12=2,17=6,18=5,40=1/2;
 3/5=1,6=6,7=101,11=2,25=1,30=1,71=1,74=-5,124=31/1,2,3;
 4//1;
 5/5=2,38=5/2;
 6/7=2,8=2,9=2,10=2,28=1/1;
 7//1,2,3,16;
 1/18=20,19=15,26=3/3(2);
 2/9=110/2;
 99//99;
 2/9=110/2;
 3/5=1,6=6,7=101,11=2,25=1,30=1,71=1,74=-5,124=31/1,2,3;
 4/5=5,16=3,69=1/1;
 5/5=2,38=5/2;
 7//1,2,3,16;
 1/18=20,19=15,26=3/3(-5);
 2/9=110/2;
 6/7=2,8=2,9=2,10=2,19=2,28=1/1;
 99/9=1/99;
 Leave Link    1 at Wed Jun 29 17:24:52 2022, MaxMem=  1342177280 cpu:               0.8 elap:               0.1
 (Enter /home/mkliu/g16/l101.exe)
 -----
 force
 -----
 Symbolic Z-matrix:
 Charge =  0 Multiplicity = 1
 C                     8.22915   18.65217   10.59516 
 C                     12.46521   20.01655   8.91518 
 C                     8.27907   26.8286   10.5398 
 C                     12.47734   25.74342   8.90864 
 C                     7.95917   18.97072   9.15031 
 C                     11.85411   19.60703   10.22014 
 C                     7.971     26.74098   9.16353 
 C                     11.86659   26.16058   10.21465 
 C                     8.95642   19.16693   8.17196 
 C                     12.10534   20.26129   11.39471 
 C                     12.10862   25.50886   11.39179 
 C                     8.96294   26.55553   8.16798 
 C                     10.29029   19.10174   8.61137 
 C                     10.28844   26.62984   8.613 
 C                     10.60271   19.0079   10.02413 
 C                     10.61005   26.74966   10.00876 
 C                     9.62467   19.01215   11.01301 
 C                     9.61449   26.73505   11.0032 
 C                     9.89416   19.67313   12.21944 
 C                     9.89583   26.08686   12.23663 
 C                     8.77492   20.07316   13.1381 
 C                     8.76799   25.67507   13.13872 
 C                     7.46648   20.17548   12.39793 
 C                     7.44144   25.58306   12.43179 
 C                     7.21601   19.52917   11.27201 
 C                     7.21342   26.20124   11.26722 
 C                     6.12554   19.97042   10.33579 
 C                     6.1074    25.78241   10.33409 
 C                     6.72273   19.58846   9.02098 
 C                     6.69548   26.15936   9.01057 
 C                     6.40128   20.25743   7.86772 
 C                     6.40851   25.4819   7.86298 
 C                     7.33648   20.36853   6.8266 
 C                     7.32939   25.38779   6.811 
 C                     8.68001   19.92265   6.9905 
 C                     8.67376   25.80242   6.98828 
 C                     9.73177   20.62329   6.33697 
 C                     9.74035   25.13698   6.32265 
 C                     11.02689   20.58836   6.84791 
 C                     12.63214   22.18556   7.78914 
 C                     12.63671   23.57301   7.78643 
 C                     11.04032   25.17472   6.83519 
 C                     11.30259   19.79889   7.9668 
 C                     12.80217   21.48035   8.96688 
 C                     12.80938   24.27911   8.9635 
 C                     11.32055   25.95495   7.95214 
 C                     13.02016   22.18099   10.16355 
 C                     13.02125   23.58052   10.16207 
 C                     13.04331   21.42539   11.47935 
 C                     13.03895   24.33877   11.47675 
 C                     12.40009   22.22     12.58147 
 C                     12.3968   23.54421   12.57892 
 C                     11.13088   20.28174   12.39888 
 C                     11.12788   25.48647   12.40401 
 C                     11.41719   21.39722   13.36898 
 C                     11.41435   24.36454   13.36804 
 C                     8.95784   21.49819   13.58064 
 C                     8.95306   24.25342   13.583 
 C                     7.75598   22.19152   13.45729 
 C                     7.75225   23.55777   13.46021 
 C                     6.68913   21.40605   12.77309 
 C                     6.67582   24.34414   12.78791 
 C                     6.22901   22.17729   11.54409 
 C                     6.22287   23.58055   11.54506 
 C                     5.94652   21.48187   10.36589 
 C                     5.93218   24.2731   10.3647 
 C                     5.63965   22.18016   9.18762 
 C                     5.62969   23.57881   9.18055 
 C                     5.45445   21.42146   7.88256 
 C                     5.43164   24.34699   7.87035 
 C                     5.97211   22.22894   6.72403 
 C                     5.92116   23.57267   6.68318 
 C                     7.00959   21.51188   6.05558 
 C                     6.86525   24.37259   5.82552 
 C                     8.03044   22.22017   5.41165 
 C                     8.01875   23.58088   5.36118 
 C                     9.40264   21.6374   5.26524 
 C                     9.40349   24.13037   5.24973 
 C                     12.05633   21.63458   6.50973 
 C                     12.06718   24.12268   6.50175 
 C                     10.23457   22.88114   5.39364 
 C                     11.43997   22.88017   5.9394 
 C                     10.16583   22.17669   13.65101 
 C                     10.16391   23.58048   13.65054 
 Cl                    4.54976   19.17869   10.69034 
 Cl                    3.72426   20.96967   7.71143 
 Cl                    3.70605   24.84175   7.74848 
 Cl                    4.54265   26.58019   10.7087 
 Cl                    5.26405   21.04692   13.81094 
 Cl                    5.24094   24.65467   13.83134 
 Cl                    14.7412   20.96014   11.86022 
 Cl                    14.73806   24.80434   11.86144 
 Cl                    13.91485   19.05438   8.46335 
 Cl                    13.33161   20.944    5.43892 
 Cl                    13.92986   26.70255   8.45592 
 Cl                    13.34916   24.79596   5.43052 
 Cl                    9.61475   20.84863   3.64774 
 Cl                    7.9357    16.89135   10.93572 
 Cl                    8.67445   18.9403   14.53892 
 Cl                    9.6877    24.94055   3.65 
 Cl                    12.12918   20.77882   14.90927 
 Cl                    12.1273   24.97698   14.91053 
 Cl                    8.67576   26.80412   14.56184 
 Cl                    5.99186   25.16768   4.40387 
 
 ITRead=  0  0  0  0  0  0  0  0  0  0  0  0  0  0  0  0  0  0  0  0
 ITRead=  0  0  0  0  0  0  0  0  0  0  0  0  0  0  0  0  0  0  0  0
 ITRead=  0  0  0  0  0  0  0  0  0  0  0  0  0  0  0  0  0  0  0  0
 ITRead=  0  0  0  0  0  0  0  0  0  0  0  0  0  0  0  0  0  0  0  0
 ITRead=  0  0  0  0  0  0  0  0  0  0  0  0  0  0  0  0  0  0  0  0
 ITRead=  0  0  0  0
 MicOpt= -1 -1 -1 -1 -1 -1 -1 -1 -1 -1 -1 -1 -1 -1 -1 -1 -1 -1 -1 -1
 MicOpt= -1 -1 -1 -1 -1 -1 -1 -1 -1 -1 -1 -1 -1 -1 -1 -1 -1 -1 -1 -1
 MicOpt= -1 -1 -1 -1 -1 -1 -1 -1 -1 -1 -1 -1 -1 -1 -1 -1 -1 -1 -1 -1
 MicOpt= -1 -1 -1 -1 -1 -1 -1 -1 -1 -1 -1 -1 -1 -1 -1 -1 -1 -1 -1 -1
 MicOpt= -1 -1 -1 -1 -1 -1 -1 -1 -1 -1 -1 -1 -1 -1 -1 -1 -1 -1 -1 -1
 MicOpt= -1 -1 -1 -1
 NAtoms=    104 NQM=      104 NQMF=       0 NMMI=      0 NMMIF=      0
                NMic=       0 NMicF=      0.
                    Isotopes and Nuclear Properties:
 (Nuclear quadrupole moments (NQMom) in fm**2, nuclear magnetic moments (NMagM)
  in nuclear magnetons)

  Atom         1           2           3           4           5           6           7           8           9          10
 IAtWgt=          12          12          12          12          12          12          12          12          12          12
 AtmWgt=  12.0000000  12.0000000  12.0000000  12.0000000  12.0000000  12.0000000  12.0000000  12.0000000  12.0000000  12.0000000
 NucSpn=           0           0           0           0           0           0           0           0           0           0
 AtZEff=  -0.0000000  -0.0000000  -0.0000000  -0.0000000  -0.0000000  -0.0000000  -0.0000000  -0.0000000  -0.0000000  -0.0000000
 NQMom=    0.0000000   0.0000000   0.0000000   0.0000000   0.0000000   0.0000000   0.0000000   0.0000000   0.0000000   0.0000000
 NMagM=    0.0000000   0.0000000   0.0000000   0.0000000   0.0000000   0.0000000   0.0000000   0.0000000   0.0000000   0.0000000
 AtZNuc=   6.0000000   6.0000000   6.0000000   6.0000000   6.0000000   6.0000000   6.0000000   6.0000000   6.0000000   6.0000000

  Atom        11          12          13          14          15          16          17          18          19          20
 IAtWgt=          12          12          12          12          12          12          12          12          12          12
 AtmWgt=  12.0000000  12.0000000  12.0000000  12.0000000  12.0000000  12.0000000  12.0000000  12.0000000  12.0000000  12.0000000
 NucSpn=           0           0           0           0           0           0           0           0           0           0
 AtZEff=  -0.0000000  -0.0000000  -0.0000000  -0.0000000  -0.0000000  -0.0000000  -0.0000000  -0.0000000  -0.0000000  -0.0000000
 NQMom=    0.0000000   0.0000000   0.0000000   0.0000000   0.0000000   0.0000000   0.0000000   0.0000000   0.0000000   0.0000000
 NMagM=    0.0000000   0.0000000   0.0000000   0.0000000   0.0000000   0.0000000   0.0000000   0.0000000   0.0000000   0.0000000
 AtZNuc=   6.0000000   6.0000000   6.0000000   6.0000000   6.0000000   6.0000000   6.0000000   6.0000000   6.0000000   6.0000000

  Atom        21          22          23          24          25          26          27          28          29          30
 IAtWgt=          12          12          12          12          12          12          12          12          12          12
 AtmWgt=  12.0000000  12.0000000  12.0000000  12.0000000  12.0000000  12.0000000  12.0000000  12.0000000  12.0000000  12.0000000
 NucSpn=           0           0           0           0           0           0           0           0           0           0
 AtZEff=  -0.0000000  -0.0000000  -0.0000000  -0.0000000  -0.0000000  -0.0000000  -0.0000000  -0.0000000  -0.0000000  -0.0000000
 NQMom=    0.0000000   0.0000000   0.0000000   0.0000000   0.0000000   0.0000000   0.0000000   0.0000000   0.0000000   0.0000000
 NMagM=    0.0000000   0.0000000   0.0000000   0.0000000   0.0000000   0.0000000   0.0000000   0.0000000   0.0000000   0.0000000
 AtZNuc=   6.0000000   6.0000000   6.0000000   6.0000000   6.0000000   6.0000000   6.0000000   6.0000000   6.0000000   6.0000000

  Atom        31          32          33          34          35          36          37          38          39          40
 IAtWgt=          12          12          12          12          12          12          12          12          12          12
 AtmWgt=  12.0000000  12.0000000  12.0000000  12.0000000  12.0000000  12.0000000  12.0000000  12.0000000  12.0000000  12.0000000
 NucSpn=           0           0           0           0           0           0           0           0           0           0
 AtZEff=  -0.0000000  -0.0000000  -0.0000000  -0.0000000  -0.0000000  -0.0000000  -0.0000000  -0.0000000  -0.0000000  -0.0000000
 NQMom=    0.0000000   0.0000000   0.0000000   0.0000000   0.0000000   0.0000000   0.0000000   0.0000000   0.0000000   0.0000000
 NMagM=    0.0000000   0.0000000   0.0000000   0.0000000   0.0000000   0.0000000   0.0000000   0.0000000   0.0000000   0.0000000
 AtZNuc=   6.0000000   6.0000000   6.0000000   6.0000000   6.0000000   6.0000000   6.0000000   6.0000000   6.0000000   6.0000000

  Atom        41          42          43          44          45          46          47          48          49          50
 IAtWgt=          12          12          12          12          12          12          12          12          12          12
 AtmWgt=  12.0000000  12.0000000  12.0000000  12.0000000  12.0000000  12.0000000  12.0000000  12.0000000  12.0000000  12.0000000
 NucSpn=           0           0           0           0           0           0           0           0           0           0
 AtZEff=  -0.0000000  -0.0000000  -0.0000000  -0.0000000  -0.0000000  -0.0000000  -0.0000000  -0.0000000  -0.0000000  -0.0000000
 NQMom=    0.0000000   0.0000000   0.0000000   0.0000000   0.0000000   0.0000000   0.0000000   0.0000000   0.0000000   0.0000000
 NMagM=    0.0000000   0.0000000   0.0000000   0.0000000   0.0000000   0.0000000   0.0000000   0.0000000   0.0000000   0.0000000
 AtZNuc=   6.0000000   6.0000000   6.0000000   6.0000000   6.0000000   6.0000000   6.0000000   6.0000000   6.0000000   6.0000000

  Atom        51          52          53          54          55          56          57          58          59          60
 IAtWgt=          12          12          12          12          12          12          12          12          12          12
 AtmWgt=  12.0000000  12.0000000  12.0000000  12.0000000  12.0000000  12.0000000  12.0000000  12.0000000  12.0000000  12.0000000
 NucSpn=           0           0           0           0           0           0           0           0           0           0
 AtZEff=  -0.0000000  -0.0000000  -0.0000000  -0.0000000  -0.0000000  -0.0000000  -0.0000000  -0.0000000  -0.0000000  -0.0000000
 NQMom=    0.0000000   0.0000000   0.0000000   0.0000000   0.0000000   0.0000000   0.0000000   0.0000000   0.0000000   0.0000000
 NMagM=    0.0000000   0.0000000   0.0000000   0.0000000   0.0000000   0.0000000   0.0000000   0.0000000   0.0000000   0.0000000
 AtZNuc=   6.0000000   6.0000000   6.0000000   6.0000000   6.0000000   6.0000000   6.0000000   6.0000000   6.0000000   6.0000000

  Atom        61          62          63          64          65          66          67          68          69          70
 IAtWgt=          12          12          12          12          12          12          12          12          12          12
 AtmWgt=  12.0000000  12.0000000  12.0000000  12.0000000  12.0000000  12.0000000  12.0000000  12.0000000  12.0000000  12.0000000
 NucSpn=           0           0           0           0           0           0           0           0           0           0
 AtZEff=  -0.0000000  -0.0000000  -0.0000000  -0.0000000  -0.0000000  -0.0000000  -0.0000000  -0.0000000  -0.0000000  -0.0000000
 NQMom=    0.0000000   0.0000000   0.0000000   0.0000000   0.0000000   0.0000000   0.0000000   0.0000000   0.0000000   0.0000000
 NMagM=    0.0000000   0.0000000   0.0000000   0.0000000   0.0000000   0.0000000   0.0000000   0.0000000   0.0000000   0.0000000
 AtZNuc=   6.0000000   6.0000000   6.0000000   6.0000000   6.0000000   6.0000000   6.0000000   6.0000000   6.0000000   6.0000000

  Atom        71          72          73          74          75          76          77          78          79          80
 IAtWgt=          12          12          12          12          12          12          12          12          12          12
 AtmWgt=  12.0000000  12.0000000  12.0000000  12.0000000  12.0000000  12.0000000  12.0000000  12.0000000  12.0000000  12.0000000
 NucSpn=           0           0           0           0           0           0           0           0           0           0
 AtZEff=  -0.0000000  -0.0000000  -0.0000000  -0.0000000  -0.0000000  -0.0000000  -0.0000000  -0.0000000  -0.0000000  -0.0000000
 NQMom=    0.0000000   0.0000000   0.0000000   0.0000000   0.0000000   0.0000000   0.0000000   0.0000000   0.0000000   0.0000000
 NMagM=    0.0000000   0.0000000   0.0000000   0.0000000   0.0000000   0.0000000   0.0000000   0.0000000   0.0000000   0.0000000
 AtZNuc=   6.0000000   6.0000000   6.0000000   6.0000000   6.0000000   6.0000000   6.0000000   6.0000000   6.0000000   6.0000000

  Atom        81          82          83          84          85          86          87          88          89          90
 IAtWgt=          12          12          12          12          35          35          35          35          35          35
 AtmWgt=  12.0000000  12.0000000  12.0000000  12.0000000  34.9688527  34.9688527  34.9688527  34.9688527  34.9688527  34.9688527
 NucSpn=           0           0           0           0           3           3           3           3           3           3
 AtZEff=  -0.0000000  -0.0000000  -0.0000000  -0.0000000  -0.0000000  -0.0000000  -0.0000000  -0.0000000  -0.0000000  -0.0000000
 NQMom=    0.0000000   0.0000000   0.0000000   0.0000000  -8.1650000  -8.1650000  -8.1650000  -8.1650000  -8.1650000  -8.1650000
 NMagM=    0.0000000   0.0000000   0.0000000   0.0000000   0.8218740   0.8218740   0.8218740   0.8218740   0.8218740   0.8218740
 AtZNuc=   6.0000000   6.0000000   6.0000000   6.0000000  17.0000000  17.0000000  17.0000000  17.0000000  17.0000000  17.0000000

  Atom        91          92          93          94          95          96          97          98          99         100
 IAtWgt=          35          35          35          35          35          35          35          35          35          35
 AtmWgt=  34.9688527  34.9688527  34.9688527  34.9688527  34.9688527  34.9688527  34.9688527  34.9688527  34.9688527  34.9688527
 NucSpn=           3           3           3           3           3           3           3           3           3           3
 AtZEff=  -0.0000000  -0.0000000  -0.0000000  -0.0000000  -0.0000000  -0.0000000  -0.0000000  -0.0000000  -0.0000000  -0.0000000
 NQMom=   -8.1650000  -8.1650000  -8.1650000  -8.1650000  -8.1650000  -8.1650000  -8.1650000  -8.1650000  -8.1650000  -8.1650000
 NMagM=    0.8218740   0.8218740   0.8218740   0.8218740   0.8218740   0.8218740   0.8218740   0.8218740   0.8218740   0.8218740
 AtZNuc=  17.0000000  17.0000000  17.0000000  17.0000000  17.0000000  17.0000000  17.0000000  17.0000000  17.0000000  17.0000000

  Atom       101         102         103         104
 IAtWgt=          35          35          35          35
 AtmWgt=  34.9688527  34.9688527  34.9688527  34.9688527
 NucSpn=           3           3           3           3
 AtZEff=  -0.0000000  -0.0000000  -0.0000000  -0.0000000
 NQMom=   -8.1650000  -8.1650000  -8.1650000  -8.1650000
 NMagM=    0.8218740   0.8218740   0.8218740   0.8218740
 AtZNuc=  17.0000000  17.0000000  17.0000000  17.0000000
 Leave Link  101 at Wed Jun 29 17:24:53 2022, MaxMem=  1342177280 cpu:               6.8 elap:               0.3
 (Enter /home/mkliu/g16/l103.exe)

 GradGradGradGradGradGradGradGradGradGradGradGradGradGradGradGradGradGrad
 Berny optimization.
 Initialization pass.
                           ----------------------------
                           !    Initial Parameters    !
                           ! (Angstroms and Degrees)  !
 --------------------------                            --------------------------
 ! Name  Definition              Value          Derivative Info.                !
 --------------------------------------------------------------------------------
 ! R1    R(1,5)                  1.504          estimate D2E/DX2                !
 ! R2    R(1,17)                 1.5006         estimate D2E/DX2                !
 ! R3    R(1,25)                 1.5012         estimate D2E/DX2                !
 ! R4    R(1,98)                 1.8173         estimate D2E/DX2                !
 ! R5    R(2,6)                  1.498          estimate D2E/DX2                !
 ! R6    R(2,43)                 1.5161         estimate D2E/DX2                !
 ! R7    R(2,44)                 1.503          estimate D2E/DX2                !
 ! R8    R(2,93)                 1.7976         estimate D2E/DX2                !
 ! R9    R(3,7)                  1.413          estimate D2E/DX2                !
 ! R10   R(3,18)                 1.4166         estimate D2E/DX2                !
 ! R11   R(3,26)                 1.4347         estimate D2E/DX2                !
 ! R12   R(4,8)                  1.5009         estimate D2E/DX2                !
 ! R13   R(4,45)                 1.5025         estimate D2E/DX2                !
 ! R14   R(4,46)                 1.5159         estimate D2E/DX2                !
 ! R15   R(4,95)                 1.7985         estimate D2E/DX2                !
 ! R16   R(5,9)                  1.4107         estimate D2E/DX2                !
 ! R17   R(5,29)                 1.3882         estimate D2E/DX2                !
 ! R18   R(6,10)                 1.3678         estimate D2E/DX2                !
 ! R19   R(6,15)                 1.4012         estimate D2E/DX2                !
 ! R20   R(7,12)                 1.4175         estimate D2E/DX2                !
 ! R21   R(7,30)                 1.4102         estimate D2E/DX2                !
 ! R22   R(8,11)                 1.3671         estimate D2E/DX2                !
 ! R23   R(8,16)                 1.403          estimate D2E/DX2                !
 ! R24   R(9,13)                 1.4059         estimate D2E/DX2                !
 ! R25   R(9,35)                 1.4295         estimate D2E/DX2                !
 ! R26   R(10,49)                1.4974         estimate D2E/DX2                !
 ! R27   R(10,53)                1.3994         estimate D2E/DX2                !
 ! R28   R(11,50)                1.4973         estimate D2E/DX2                !
 ! R29   R(11,54)                1.4096         estimate D2E/DX2                !
 ! R30   R(12,14)                1.4002         estimate D2E/DX2                !
 ! R31   R(12,36)                1.4292         estimate D2E/DX2                !
 ! R32   R(13,15)                1.4499         estimate D2E/DX2                !
 ! R33   R(13,43)                1.3879         estimate D2E/DX2                !
 ! R34   R(14,16)                1.4373         estimate D2E/DX2                !
 ! R35   R(14,46)                1.3991         estimate D2E/DX2                !
 ! R36   R(15,17)                1.3908         estimate D2E/DX2                !
 ! R37   R(16,18)                1.4072         estimate D2E/DX2                !
 ! R38   R(17,19)                1.4018         estimate D2E/DX2                !
 ! R39   R(18,20)                1.4215         estimate D2E/DX2                !
 ! R40   R(19,21)                1.5022         estimate D2E/DX2                !
 ! R41   R(19,53)                1.39           estimate D2E/DX2                !
 ! R42   R(20,22)                1.5018         estimate D2E/DX2                !
 ! R43   R(20,54)                1.3807         estimate D2E/DX2                !
 ! R44   R(21,23)                1.5068         estimate D2E/DX2                !
 ! R45   R(21,57)                1.5033         estimate D2E/DX2                !
 ! R46   R(21,99)                1.8044         estimate D2E/DX2                !
 ! R47   R(22,24)                1.506          estimate D2E/DX2                !
 ! R48   R(22,58)                1.5009         estimate D2E/DX2                !
 ! R49   R(22,103)               1.8189         estimate D2E/DX2                !
 ! R50   R(23,25)                1.3222         estimate D2E/DX2                !
 ! R51   R(23,61)                1.5031         estimate D2E/DX2                !
 ! R52   R(24,26)                1.338          estimate D2E/DX2                !
 ! R53   R(24,62)                1.4993         estimate D2E/DX2                !
 ! R54   R(25,27)                1.5034         estimate D2E/DX2                !
 ! R55   R(26,28)                1.5065         estimate D2E/DX2                !
 ! R56   R(27,29)                1.4937         estimate D2E/DX2                !
 ! R57   R(27,65)                1.5223         estimate D2E/DX2                !
 ! R58   R(27,85)                1.7988         estimate D2E/DX2                !
 ! R59   R(28,30)                1.4965         estimate D2E/DX2                !
 ! R60   R(28,66)                1.5198         estimate D2E/DX2                !
 ! R61   R(28,88)                1.7959         estimate D2E/DX2                !
 ! R62   R(29,31)                1.3714         estimate D2E/DX2                !
 ! R63   R(30,32)                1.3632         estimate D2E/DX2                !
 ! R64   R(31,33)                1.4039         estimate D2E/DX2                !
 ! R65   R(31,69)                1.5006         estimate D2E/DX2                !
 ! R66   R(32,34)                1.4013         estimate D2E/DX2                !
 ! R67   R(32,70)                1.4974         estimate D2E/DX2                !
 ! R68   R(33,35)                1.425          estimate D2E/DX2                !
 ! R69   R(33,73)                1.4172         estimate D2E/DX2                !
 ! R70   R(34,36)                1.418          estimate D2E/DX2                !
 ! R71   R(34,74)                1.489          estimate D2E/DX2                !
 ! R72   R(35,37)                1.4227         estimate D2E/DX2                !
 ! R73   R(36,38)                1.4225         estimate D2E/DX2                !
 ! R74   R(37,39)                1.3927         estimate D2E/DX2                !
 ! R75   R(37,77)                1.5117         estimate D2E/DX2                !
 ! R76   R(38,42)                1.3979         estimate D2E/DX2                !
 ! R77   R(38,78)                1.5093         estimate D2E/DX2                !
 ! R78   R(39,43)                1.3969         estimate D2E/DX2                !
 ! R79   R(39,79)                1.5062         estimate D2E/DX2                !
 ! R80   R(40,41)                1.3875         estimate D2E/DX2                !
 ! R81   R(40,44)                1.3832         estimate D2E/DX2                !
 ! R82   R(40,79)                1.5073         estimate D2E/DX2                !
 ! R83   R(41,45)                1.3834         estimate D2E/DX2                !
 ! R84   R(41,80)                1.5089         estimate D2E/DX2                !
 ! R85   R(42,46)                1.391          estimate D2E/DX2                !
 ! R86   R(42,80)                1.5075         estimate D2E/DX2                !
 ! R87   R(44,47)                1.4037         estimate D2E/DX2                !
 ! R88   R(45,48)                1.4034         estimate D2E/DX2                !
 ! R89   R(47,48)                1.3995         estimate D2E/DX2                !
 ! R90   R(47,49)                1.5175         estimate D2E/DX2                !
 ! R91   R(48,50)                1.5178         estimate D2E/DX2                !
 ! R92   R(49,51)                1.5033         estimate D2E/DX2                !
 ! R93   R(49,91)                1.8012         estimate D2E/DX2                !
 ! R94   R(50,52)                1.5028         estimate D2E/DX2                !
 ! R95   R(50,92)                1.8033         estimate D2E/DX2                !
 ! R96   R(51,52)                1.3242         estimate D2E/DX2                !
 ! R97   R(51,55)                1.5044         estimate D2E/DX2                !
 ! R98   R(52,56)                1.5036         estimate D2E/DX2                !
 ! R99   R(53,55)                1.5058         estimate D2E/DX2                !
 ! R100  R(54,56)                1.5067         estimate D2E/DX2                !
 ! R101  R(55,83)                1.501          estimate D2E/DX2                !
 ! R102  R(55,101)               1.8061         estimate D2E/DX2                !
 ! R103  R(56,84)                1.5027         estimate D2E/DX2                !
 ! R104  R(56,102)               1.8063         estimate D2E/DX2                !
 ! R105  R(57,59)                1.393          estimate D2E/DX2                !
 ! R106  R(57,83)                1.3873         estimate D2E/DX2                !
 ! R107  R(58,60)                1.3932         estimate D2E/DX2                !
 ! R108  R(58,84)                1.3869         estimate D2E/DX2                !
 ! R109  R(59,60)                1.3663         estimate D2E/DX2                !
 ! R110  R(59,61)                1.4911         estimate D2E/DX2                !
 ! R111  R(60,62)                1.493          estimate D2E/DX2                !
 ! R112  R(61,63)                1.5222         estimate D2E/DX2                !
 ! R113  R(61,89)                1.7992         estimate D2E/DX2                !
 ! R114  R(62,64)                1.5274         estimate D2E/DX2                !
 ! R115  R(62,90)                1.8011         estimate D2E/DX2                !
 ! R116  R(63,64)                1.4033         estimate D2E/DX2                !
 ! R117  R(63,65)                1.397          estimate D2E/DX2                !
 ! R118  R(64,66)                1.3991         estimate D2E/DX2                !
 ! R119  R(65,67)                1.4036         estimate D2E/DX2                !
 ! R120  R(66,68)                1.4056         estimate D2E/DX2                !
 ! R121  R(67,68)                1.3987         estimate D2E/DX2                !
 ! R122  R(67,69)                1.5209         estimate D2E/DX2                !
 ! R123  R(68,70)                1.5316         estimate D2E/DX2                !
 ! R124  R(69,71)                1.5041         estimate D2E/DX2                !
 ! R125  R(69,86)                1.7964         estimate D2E/DX2                !
 ! R126  R(70,72)                1.4995         estimate D2E/DX2                !
 ! R127  R(70,87)                1.7992         estimate D2E/DX2                !
 ! R128  R(71,72)                1.3453         estimate D2E/DX2                !
 ! R129  R(71,73)                1.4274         estimate D2E/DX2                !
 ! R130  R(72,74)                1.5056         estimate D2E/DX2                !
 ! R131  R(73,75)                1.3994         estimate D2E/DX2                !
 ! R132  R(74,76)                1.4741         estimate D2E/DX2                !
 ! R133  R(74,104)               1.8483         estimate D2E/DX2                !
 ! R134  R(75,76)                1.3617         estimate D2E/DX2                !
 ! R135  R(75,77)                1.498          estimate D2E/DX2                !
 ! R136  R(76,78)                1.4939         estimate D2E/DX2                !
 ! R137  R(77,81)                1.5018         estimate D2E/DX2                !
 ! R138  R(77,97)                1.812          estimate D2E/DX2                !
 ! R139  R(78,81)                1.5073         estimate D2E/DX2                !
 ! R140  R(78,100)               1.8156         estimate D2E/DX2                !
 ! R141  R(79,82)                1.5022         estimate D2E/DX2                !
 ! R142  R(79,94)                1.8027         estimate D2E/DX2                !
 ! R143  R(80,82)                1.5012         estimate D2E/DX2                !
 ! R144  R(80,96)                1.8012         estimate D2E/DX2                !
 ! R145  R(81,82)                1.3232         estimate D2E/DX2                !
 ! R146  R(83,84)                1.4038         estimate D2E/DX2                !
 ! A1    A(5,1,17)             112.5597         estimate D2E/DX2                !
 ! A2    A(5,1,25)             100.851          estimate D2E/DX2                !
 ! A3    A(5,1,98)             110.8714         estimate D2E/DX2                !
 ! A4    A(17,1,25)            111.2195         estimate D2E/DX2                !
 ! A5    A(17,1,98)            109.2946         estimate D2E/DX2                !
 ! A6    A(25,1,98)            111.8738         estimate D2E/DX2                !
 ! A7    A(6,2,43)             101.1197         estimate D2E/DX2                !
 ! A8    A(6,2,44)             109.1321         estimate D2E/DX2                !
 ! A9    A(6,2,93)             113.6786         estimate D2E/DX2                !
 ! A10   A(43,2,44)            109.4673         estimate D2E/DX2                !
 ! A11   A(43,2,93)            112.6026         estimate D2E/DX2                !
 ! A12   A(44,2,93)            110.4351         estimate D2E/DX2                !
 ! A13   A(7,3,18)             121.3339         estimate D2E/DX2                !
 ! A14   A(7,3,26)             107.7445         estimate D2E/DX2                !
 ! A15   A(18,3,26)            120.3622         estimate D2E/DX2                !
 ! A16   A(8,4,45)             109.2103         estimate D2E/DX2                !
 ! A17   A(8,4,46)             101.522          estimate D2E/DX2                !
 ! A18   A(8,4,95)             113.5435         estimate D2E/DX2                !
 ! A19   A(45,4,46)            109.1283         estimate D2E/DX2                !
 ! A20   A(45,4,95)            110.5149         estimate D2E/DX2                !
 ! A21   A(46,4,95)            112.5237         estimate D2E/DX2                !
 ! A22   A(1,5,9)              124.6667         estimate D2E/DX2                !
 ! A23   A(1,5,29)             110.0983         estimate D2E/DX2                !
 ! A24   A(9,5,29)             120.207          estimate D2E/DX2                !
 ! A25   A(2,6,10)             122.8459         estimate D2E/DX2                !
 ! A26   A(2,6,15)             111.0607         estimate D2E/DX2                !
 ! A27   A(10,6,15)            119.2547         estimate D2E/DX2                !
 ! A28   A(3,7,12)             122.6548         estimate D2E/DX2                !
 ! A29   A(3,7,30)             109.1726         estimate D2E/DX2                !
 ! A30   A(12,7,30)            120.1853         estimate D2E/DX2                !
 ! A31   A(4,8,11)             123.0039         estimate D2E/DX2                !
 ! A32   A(4,8,16)             110.699          estimate D2E/DX2                !
 ! A33   A(11,8,16)            119.0184         estimate D2E/DX2                !
 ! A34   A(5,9,13)             116.5824         estimate D2E/DX2                !
 ! A35   A(5,9,35)             120.6654         estimate D2E/DX2                !
 ! A36   A(13,9,35)            117.7944         estimate D2E/DX2                !
 ! A37   A(6,10,49)            122.3764         estimate D2E/DX2                !
 ! A38   A(6,10,53)            119.6896         estimate D2E/DX2                !
 ! A39   A(49,10,53)           112.5986         estimate D2E/DX2                !
 ! A40   A(8,11,50)            122.1008         estimate D2E/DX2                !
 ! A41   A(8,11,54)            120.1793         estimate D2E/DX2                !
 ! A42   A(50,11,54)           112.281          estimate D2E/DX2                !
 ! A43   A(7,12,14)            115.6121         estimate D2E/DX2                !
 ! A44   A(7,12,36)            120.4688         estimate D2E/DX2                !
 ! A45   A(14,12,36)           118.8073         estimate D2E/DX2                !
 ! A46   A(9,13,15)            120.7952         estimate D2E/DX2                !
 ! A47   A(9,13,43)            121.5718         estimate D2E/DX2                !
 ! A48   A(15,13,43)           109.1392         estimate D2E/DX2                !
 ! A49   A(12,14,16)           121.6599         estimate D2E/DX2                !
 ! A50   A(12,14,46)           121.5082         estimate D2E/DX2                !
 ! A51   A(16,14,46)           109.5023         estimate D2E/DX2                !
 ! A52   A(6,15,13)            107.5214         estimate D2E/DX2                !
 ! A53   A(6,15,17)            121.8203         estimate D2E/DX2                !
 ! A54   A(13,15,17)           122.755          estimate D2E/DX2                !
 ! A55   A(8,16,14)            107.933          estimate D2E/DX2                !
 ! A56   A(8,16,18)            121.7064         estimate D2E/DX2                !
 ! A57   A(14,16,18)           121.8074         estimate D2E/DX2                !
 ! A58   A(1,17,15)            117.0815         estimate D2E/DX2                !
 ! A59   A(1,17,19)            122.1111         estimate D2E/DX2                !
 ! A60   A(15,17,19)           118.5653         estimate D2E/DX2                !
 ! A61   A(3,18,16)            115.7895         estimate D2E/DX2                !
 ! A62   A(3,18,20)            120.0345         estimate D2E/DX2                !
 ! A63   A(16,18,20)           118.5477         estimate D2E/DX2                !
 ! A64   A(17,19,21)           120.5736         estimate D2E/DX2                !
 ! A65   A(17,19,53)           119.2493         estimate D2E/DX2                !
 ! A66   A(21,19,53)           117.863          estimate D2E/DX2                !
 ! A67   A(18,20,22)           119.8415         estimate D2E/DX2                !
 ! A68   A(18,20,54)           118.6904         estimate D2E/DX2                !
 ! A69   A(22,20,54)           118.5599         estimate D2E/DX2                !
 ! A70   A(19,21,23)           111.3871         estimate D2E/DX2                !
 ! A71   A(19,21,57)           109.9859         estimate D2E/DX2                !
 ! A72   A(19,21,99)           110.43           estimate D2E/DX2                !
 ! A73   A(23,21,57)           100.7136         estimate D2E/DX2                !
 ! A74   A(23,21,99)           112.0641         estimate D2E/DX2                !
 ! A75   A(57,21,99)           111.924          estimate D2E/DX2                !
 ! A76   A(20,22,24)           113.3474         estimate D2E/DX2                !
 ! A77   A(20,22,58)           110.1769         estimate D2E/DX2                !
 ! A78   A(20,22,103)          109.7455         estimate D2E/DX2                !
 ! A79   A(24,22,58)           100.9347         estimate D2E/DX2                !
 ! A80   A(24,22,103)          111.1331         estimate D2E/DX2                !
 ! A81   A(58,22,103)          111.2603         estimate D2E/DX2                !
 ! A82   A(21,23,25)           123.3417         estimate D2E/DX2                !
 ! A83   A(21,23,61)           112.4621         estimate D2E/DX2                !
 ! A84   A(25,23,61)           120.9819         estimate D2E/DX2                !
 ! A85   A(22,24,26)           122.0352         estimate D2E/DX2                !
 ! A86   A(22,24,62)           112.8799         estimate D2E/DX2                !
 ! A87   A(26,24,62)           120.0978         estimate D2E/DX2                !
 ! A88   A(1,25,23)            122.7961         estimate D2E/DX2                !
 ! A89   A(1,25,27)            112.3455         estimate D2E/DX2                !
 ! A90   A(23,25,27)           121.616          estimate D2E/DX2                !
 ! A91   A(3,26,24)            121.1135         estimate D2E/DX2                !
 ! A92   A(3,26,28)            110.6613         estimate D2E/DX2                !
 ! A93   A(24,26,28)           122.3968         estimate D2E/DX2                !
 ! A94   A(25,27,29)           100.5506         estimate D2E/DX2                !
 ! A95   A(25,27,65)           111.3696         estimate D2E/DX2                !
 ! A96   A(25,27,85)           112.5488         estimate D2E/DX2                !
 ! A97   A(29,27,65)           108.5604         estimate D2E/DX2                !
 ! A98   A(29,27,85)           114.2788         estimate D2E/DX2                !
 ! A99   A(65,27,85)           109.274          estimate D2E/DX2                !
 ! A100  A(26,28,30)           100.9104         estimate D2E/DX2                !
 ! A101  A(26,28,66)           110.3821         estimate D2E/DX2                !
 ! A102  A(26,28,88)           112.7667         estimate D2E/DX2                !
 ! A103  A(30,28,66)           108.2559         estimate D2E/DX2                !
 ! A104  A(30,28,88)           114.5177         estimate D2E/DX2                !
 ! A105  A(66,28,88)           109.6648         estimate D2E/DX2                !
 ! A106  A(5,29,27)            112.8222         estimate D2E/DX2                !
 ! A107  A(5,29,31)            120.2755         estimate D2E/DX2                !
 ! A108  A(27,29,31)           121.4496         estimate D2E/DX2                !
 ! A109  A(7,30,28)            111.309          estimate D2E/DX2                !
 ! A110  A(7,30,32)            119.1236         estimate D2E/DX2                !
 ! A111  A(28,30,32)           122.4538         estimate D2E/DX2                !
 ! A112  A(29,31,33)           120.4035         estimate D2E/DX2                !
 ! A113  A(29,31,69)           121.1958         estimate D2E/DX2                !
 ! A114  A(33,31,69)           111.4865         estimate D2E/DX2                !
 ! A115  A(30,32,34)           121.8054         estimate D2E/DX2                !
 ! A116  A(30,32,70)           120.6529         estimate D2E/DX2                !
 ! A117  A(34,32,70)           112.4271         estimate D2E/DX2                !
 ! A118  A(31,33,35)           121.1978         estimate D2E/DX2                !
 ! A119  A(31,33,73)           108.2791         estimate D2E/DX2                !
 ! A120  A(35,33,73)           122.1713         estimate D2E/DX2                !
 ! A121  A(32,34,36)           120.635          estimate D2E/DX2                !
 ! A122  A(32,34,74)           109.7431         estimate D2E/DX2                !
 ! A123  A(36,34,74)           125.2835         estimate D2E/DX2                !
 ! A124  A(9,35,33)            116.2816         estimate D2E/DX2                !
 ! A125  A(9,35,37)            119.8055         estimate D2E/DX2                !
 ! A126  A(33,35,37)           119.3433         estimate D2E/DX2                !
 ! A127  A(12,36,34)           116.6873         estimate D2E/DX2                !
 ! A128  A(12,36,38)           118.7543         estimate D2E/DX2                !
 ! A129  A(34,36,38)           121.0364         estimate D2E/DX2                !
 ! A130  A(35,37,39)           120.4362         estimate D2E/DX2                !
 ! A131  A(35,37,77)           119.6738         estimate D2E/DX2                !
 ! A132  A(39,37,77)           118.6443         estimate D2E/DX2                !
 ! A133  A(36,38,42)           120.8694         estimate D2E/DX2                !
 ! A134  A(36,38,78)           118.5089         estimate D2E/DX2                !
 ! A135  A(42,38,78)           119.0929         estimate D2E/DX2                !
 ! A136  A(37,39,43)           119.4448         estimate D2E/DX2                !
 ! A137  A(37,39,79)           122.3971         estimate D2E/DX2                !
 ! A138  A(43,39,79)           115.9457         estimate D2E/DX2                !
 ! A139  A(41,40,44)           120.7363         estimate D2E/DX2                !
 ! A140  A(41,40,79)           111.4161         estimate D2E/DX2                !
 ! A141  A(44,40,79)           125.6827         estimate D2E/DX2                !
 ! A142  A(40,41,45)           120.6068         estimate D2E/DX2                !
 ! A143  A(40,41,80)           111.3884         estimate D2E/DX2                !
 ! A144  A(45,41,80)           125.8429         estimate D2E/DX2                !
 ! A145  A(38,42,46)           119.7962         estimate D2E/DX2                !
 ! A146  A(38,42,80)           122.2443         estimate D2E/DX2                !
 ! A147  A(46,42,80)           115.5848         estimate D2E/DX2                !
 ! A148  A(2,43,13)            109.9332         estimate D2E/DX2                !
 ! A149  A(2,43,39)            124.8404         estimate D2E/DX2                !
 ! A150  A(13,43,39)           120.7932         estimate D2E/DX2                !
 ! A151  A(2,44,40)            116.0848         estimate D2E/DX2                !
 ! A152  A(2,44,47)            123.3848         estimate D2E/DX2                !
 ! A153  A(40,44,47)           119.3716         estimate D2E/DX2                !
 ! A154  A(4,45,41)            116.0262         estimate D2E/DX2                !
 ! A155  A(4,45,48)            123.3454         estimate D2E/DX2                !
 ! A156  A(41,45,48)           119.435          estimate D2E/DX2                !
 ! A157  A(4,46,14)            109.4033         estimate D2E/DX2                !
 ! A158  A(4,46,42)            125.6018         estimate D2E/DX2                !
 ! A159  A(14,46,42)           120.0829         estimate D2E/DX2                !
 ! A160  A(44,47,48)           119.891          estimate D2E/DX2                !
 ! A161  A(44,47,49)           119.5398         estimate D2E/DX2                !
 ! A162  A(48,47,49)           119.9224         estimate D2E/DX2                !
 ! A163  A(45,48,47)           119.9054         estimate D2E/DX2                !
 ! A164  A(45,48,50)           119.5283         estimate D2E/DX2                !
 ! A165  A(47,48,50)           119.9125         estimate D2E/DX2                !
 ! A166  A(10,49,47)           109.1799         estimate D2E/DX2                !
 ! A167  A(10,49,51)           100.6233         estimate D2E/DX2                !
 ! A168  A(10,49,91)           113.68           estimate D2E/DX2                !
 ! A169  A(47,49,51)           111.4676         estimate D2E/DX2                !
 ! A170  A(47,49,91)           109.0472         estimate D2E/DX2                !
 ! A171  A(51,49,91)           112.6342         estimate D2E/DX2                !
 ! A172  A(11,50,48)           109.5122         estimate D2E/DX2                !
 ! A173  A(11,50,52)           100.9115         estimate D2E/DX2                !
 ! A174  A(11,50,92)           113.3164         estimate D2E/DX2                !
 ! A175  A(48,50,52)           111.4781         estimate D2E/DX2                !
 ! A176  A(48,50,92)           108.9509         estimate D2E/DX2                !
 ! A177  A(52,50,92)           112.4992         estimate D2E/DX2                !
 ! A178  A(49,51,52)           121.8867         estimate D2E/DX2                !
 ! A179  A(49,51,55)           111.9776         estimate D2E/DX2                !
 ! A180  A(52,51,55)           123.1134         estimate D2E/DX2                !
 ! A181  A(50,52,51)           121.9418         estimate D2E/DX2                !
 ! A182  A(50,52,56)           112.0642         estimate D2E/DX2                !
 ! A183  A(51,52,56)           123.1055         estimate D2E/DX2                !
 ! A184  A(10,53,19)           121.367          estimate D2E/DX2                !
 ! A185  A(10,53,55)           109.9209         estimate D2E/DX2                !
 ! A186  A(19,53,55)           125.2188         estimate D2E/DX2                !
 ! A187  A(11,54,20)           121.7946         estimate D2E/DX2                !
 ! A188  A(11,54,56)           109.8161         estimate D2E/DX2                !
 ! A189  A(20,54,56)           124.8206         estimate D2E/DX2                !
 ! A190  A(51,55,53)           101.0772         estimate D2E/DX2                !
 ! A191  A(51,55,83)           111.0401         estimate D2E/DX2                !
 ! A192  A(51,55,101)          112.0948         estimate D2E/DX2                !
 ! A193  A(53,55,83)           110.3181         estimate D2E/DX2                !
 ! A194  A(53,55,101)          111.7623         estimate D2E/DX2                !
 ! A195  A(83,55,101)          110.2569         estimate D2E/DX2                !
 ! A196  A(52,56,54)           101.2263         estimate D2E/DX2                !
 ! A197  A(52,56,84)           110.9589         estimate D2E/DX2                !
 ! A198  A(52,56,102)          112.0401         estimate D2E/DX2                !
 ! A199  A(54,56,84)           110.5235         estimate D2E/DX2                !
 ! A200  A(54,56,102)          111.6514         estimate D2E/DX2                !
 ! A201  A(84,56,102)          110.1706         estimate D2E/DX2                !
 ! A202  A(21,57,59)           109.9228         estimate D2E/DX2                !
 ! A203  A(21,57,83)           125.7671         estimate D2E/DX2                !
 ! A204  A(59,57,83)           120.8207         estimate D2E/DX2                !
 ! A205  A(22,58,60)           109.913          estimate D2E/DX2                !
 ! A206  A(22,58,84)           125.5666         estimate D2E/DX2                !
 ! A207  A(60,58,84)           120.9645         estimate D2E/DX2                !
 ! A208  A(57,59,60)           119.9928         estimate D2E/DX2                !
 ! A209  A(57,59,61)           113.314          estimate D2E/DX2                !
 ! A210  A(60,59,61)           121.7225         estimate D2E/DX2                !
 ! A211  A(58,60,59)           119.8123         estimate D2E/DX2                !
 ! A212  A(58,60,62)           113.4604         estimate D2E/DX2                !
 ! A213  A(59,60,62)           121.8509         estimate D2E/DX2                !
 ! A214  A(23,61,59)           100.1238         estimate D2E/DX2                !
 ! A215  A(23,61,63)           111.6915         estimate D2E/DX2                !
 ! A216  A(23,61,89)           112.9665         estimate D2E/DX2                !
 ! A217  A(59,61,63)           108.6554         estimate D2E/DX2                !
 ! A218  A(59,61,89)           114.0283         estimate D2E/DX2                !
 ! A219  A(63,61,89)           109.1145         estimate D2E/DX2                !
 ! A220  A(24,62,60)           100.0216         estimate D2E/DX2                !
 ! A221  A(24,62,64)           111.7939         estimate D2E/DX2                !
 ! A222  A(24,62,90)           113.6999         estimate D2E/DX2                !
 ! A223  A(60,62,64)           108.476          estimate D2E/DX2                !
 ! A224  A(60,62,90)           113.8481         estimate D2E/DX2                !
 ! A225  A(64,62,90)           108.7441         estimate D2E/DX2                !
 ! A226  A(61,63,64)           120.4926         estimate D2E/DX2                !
 ! A227  A(61,63,65)           119.3319         estimate D2E/DX2                !
 ! A228  A(64,63,65)           119.8343         estimate D2E/DX2                !
 ! A229  A(62,64,63)           119.9466         estimate D2E/DX2                !
 ! A230  A(62,64,66)           120.0434         estimate D2E/DX2                !
 ! A231  A(63,64,66)           119.6914         estimate D2E/DX2                !
 ! A232  A(27,65,63)           119.153          estimate D2E/DX2                !
 ! A233  A(27,65,67)           120.2026         estimate D2E/DX2                !
 ! A234  A(63,65,67)           120.3015         estimate D2E/DX2                !
 ! A235  A(28,66,64)           118.9892         estimate D2E/DX2                !
 ! A236  A(28,66,68)           119.8938         estimate D2E/DX2                !
 ! A237  A(64,66,68)           120.7277         estimate D2E/DX2                !
 ! A238  A(65,67,68)           120.2173         estimate D2E/DX2                !
 ! A239  A(65,67,69)           119.919          estimate D2E/DX2                !
 ! A240  A(68,67,69)           119.5795         estimate D2E/DX2                !
 ! A241  A(66,68,67)           119.2179         estimate D2E/DX2                !
 ! A242  A(66,68,70)           120.0485         estimate D2E/DX2                !
 ! A243  A(67,68,70)           120.4488         estimate D2E/DX2                !
 ! A244  A(31,69,67)           108.5804         estimate D2E/DX2                !
 ! A245  A(31,69,71)           101.0508         estimate D2E/DX2                !
 ! A246  A(31,69,86)           114.3115         estimate D2E/DX2                !
 ! A247  A(67,69,71)           110.5626         estimate D2E/DX2                !
 ! A248  A(67,69,86)           108.9345         estimate D2E/DX2                !
 ! A249  A(71,69,86)           113.1498         estimate D2E/DX2                !
 ! A250  A(32,70,68)           107.456          estimate D2E/DX2                !
 ! A251  A(32,70,72)           100.0496         estimate D2E/DX2                !
 ! A252  A(32,70,87)           114.6397         estimate D2E/DX2                !
 ! A253  A(68,70,72)           112.0882         estimate D2E/DX2                !
 ! A254  A(68,70,87)           108.6549         estimate D2E/DX2                !
 ! A255  A(72,70,87)           113.6691         estimate D2E/DX2                !
 ! A256  A(69,71,72)           123.1336         estimate D2E/DX2                !
 ! A257  A(69,71,73)           109.9489         estimate D2E/DX2                !
 ! A258  A(72,71,73)           121.003          estimate D2E/DX2                !
 ! A259  A(70,72,71)           120.2711         estimate D2E/DX2                !
 ! A260  A(70,72,74)           112.4169         estimate D2E/DX2                !
 ! A261  A(71,72,74)           121.6165         estimate D2E/DX2                !
 ! A262  A(33,73,71)           108.5514         estimate D2E/DX2                !
 ! A263  A(33,73,75)           119.3656         estimate D2E/DX2                !
 ! A264  A(71,73,75)           119.4349         estimate D2E/DX2                !
 ! A265  A(34,74,72)           100.4094         estimate D2E/DX2                !
 ! A266  A(34,74,76)           109.3137         estimate D2E/DX2                !
 ! A267  A(34,74,104)          111.2889         estimate D2E/DX2                !
 ! A268  A(72,74,76)           112.6295         estimate D2E/DX2                !
 ! A269  A(72,74,104)          111.7409         estimate D2E/DX2                !
 ! A270  A(76,74,104)          111.0092         estimate D2E/DX2                !
 ! A271  A(73,75,76)           121.1009         estimate D2E/DX2                !
 ! A272  A(73,75,77)           121.0834         estimate D2E/DX2                !
 ! A273  A(76,75,77)           113.1409         estimate D2E/DX2                !
 ! A274  A(74,76,75)           122.1228         estimate D2E/DX2                !
 ! A275  A(74,76,78)           123.4539         estimate D2E/DX2                !
 ! A276  A(75,76,78)           111.2444         estimate D2E/DX2                !
 ! A277  A(37,77,75)           113.0236         estimate D2E/DX2                !
 ! A278  A(37,77,81)           111.9831         estimate D2E/DX2                !
 ! A279  A(37,77,97)           108.3814         estimate D2E/DX2                !
 ! A280  A(75,77,81)           100.1889         estimate D2E/DX2                !
 ! A281  A(75,77,97)           111.3346         estimate D2E/DX2                !
 ! A282  A(81,77,97)           111.8371         estimate D2E/DX2                !
 ! A283  A(38,78,76)           113.5256         estimate D2E/DX2                !
 ! A284  A(38,78,81)           111.212          estimate D2E/DX2                !
 ! A285  A(38,78,100)          107.0865         estimate D2E/DX2                !
 ! A286  A(76,78,81)           101.485          estimate D2E/DX2                !
 ! A287  A(76,78,100)          112.0218         estimate D2E/DX2                !
 ! A288  A(81,78,100)          111.5706         estimate D2E/DX2                !
 ! A289  A(39,79,40)           108.9303         estimate D2E/DX2                !
 ! A290  A(39,79,82)           112.3806         estimate D2E/DX2                !
 ! A291  A(39,79,94)           110.5344         estimate D2E/DX2                !
 ! A292  A(40,79,82)           100.131          estimate D2E/DX2                !
 ! A293  A(40,79,94)           111.9604         estimate D2E/DX2                !
 ! A294  A(82,79,94)           112.4802         estimate D2E/DX2                !
 ! A295  A(41,80,42)           108.8451         estimate D2E/DX2                !
 ! A296  A(41,80,82)           100.086          estimate D2E/DX2                !
 ! A297  A(41,80,96)           111.9543         estimate D2E/DX2                !
 ! A298  A(42,80,82)           112.0801         estimate D2E/DX2                !
 ! A299  A(42,80,96)           110.8245         estimate D2E/DX2                !
 ! A300  A(82,80,96)           112.5802         estimate D2E/DX2                !
 ! A301  A(77,81,78)           111.8863         estimate D2E/DX2                !
 ! A302  A(77,81,82)           122.6348         estimate D2E/DX2                !
 ! A303  A(78,81,82)           122.8388         estimate D2E/DX2                !
 ! A304  A(79,82,80)           111.8791         estimate D2E/DX2                !
 ! A305  A(79,82,81)           122.0715         estimate D2E/DX2                !
 ! A306  A(80,82,81)           122.3114         estimate D2E/DX2                !
 ! A307  A(55,83,57)           117.5435         estimate D2E/DX2                !
 ! A308  A(55,83,84)           121.3576         estimate D2E/DX2                !
 ! A309  A(57,83,84)           119.2013         estimate D2E/DX2                !
 ! A310  A(56,84,58)           117.6558         estimate D2E/DX2                !
 ! A311  A(56,84,83)           121.3786         estimate D2E/DX2                !
 ! A312  A(58,84,83)           119.1051         estimate D2E/DX2                !
 ! D1    D(17,1,5,9)            19.5184         estimate D2E/DX2                !
 ! D2    D(17,1,5,29)         -135.23           estimate D2E/DX2                !
 ! D3    D(25,1,5,9)           138.119          estimate D2E/DX2                !
 ! D4    D(25,1,5,29)          -16.6294         estimate D2E/DX2                !
 ! D5    D(98,1,5,9)          -103.2561         estimate D2E/DX2                !
 ! D6    D(98,1,5,29)          101.9955         estimate D2E/DX2                !
 ! D7    D(5,1,17,15)          -27.2736         estimate D2E/DX2                !
 ! D8    D(5,1,17,19)          135.4579         estimate D2E/DX2                !
 ! D9    D(25,1,17,15)        -139.6061         estimate D2E/DX2                !
 ! D10   D(25,1,17,19)          23.1254         estimate D2E/DX2                !
 ! D11   D(98,1,17,15)          96.3814         estimate D2E/DX2                !
 ! D12   D(98,1,17,19)        -100.887          estimate D2E/DX2                !
 ! D13   D(5,1,25,23)         -141.5543         estimate D2E/DX2                !
 ! D14   D(5,1,25,27)           18.3515         estimate D2E/DX2                !
 ! D15   D(17,1,25,23)         -21.9856         estimate D2E/DX2                !
 ! D16   D(17,1,25,27)         137.9201         estimate D2E/DX2                !
 ! D17   D(98,1,25,23)         100.5506         estimate D2E/DX2                !
 ! D18   D(98,1,25,27)         -99.5436         estimate D2E/DX2                !
 ! D19   D(43,2,6,10)         -141.1629         estimate D2E/DX2                !
 ! D20   D(43,2,6,15)            9.5204         estimate D2E/DX2                !
 ! D21   D(44,2,6,10)          -25.8421         estimate D2E/DX2                !
 ! D22   D(44,2,6,15)          124.8412         estimate D2E/DX2                !
 ! D23   D(93,2,6,10)           97.9139         estimate D2E/DX2                !
 ! D24   D(93,2,6,15)         -111.4028         estimate D2E/DX2                !
 ! D25   D(6,2,43,13)          -11.1019         estimate D2E/DX2                !
 ! D26   D(6,2,43,39)          145.2358         estimate D2E/DX2                !
 ! D27   D(44,2,43,13)        -126.1732         estimate D2E/DX2                !
 ! D28   D(44,2,43,39)          30.1645         estimate D2E/DX2                !
 ! D29   D(93,2,43,13)         110.5776         estimate D2E/DX2                !
 ! D30   D(93,2,43,39)         -93.0847         estimate D2E/DX2                !
 ! D31   D(6,2,44,40)         -144.0408         estimate D2E/DX2                !
 ! D32   D(6,2,44,47)           23.5491         estimate D2E/DX2                !
 ! D33   D(43,2,44,40)         -34.2167         estimate D2E/DX2                !
 ! D34   D(43,2,44,47)         133.3733         estimate D2E/DX2                !
 ! D35   D(93,2,44,40)          90.3052         estimate D2E/DX2                !
 ! D36   D(93,2,44,47)        -102.1048         estimate D2E/DX2                !
 ! D37   D(18,3,7,12)            0.0334         estimate D2E/DX2                !
 ! D38   D(18,3,7,30)          148.8035         estimate D2E/DX2                !
 ! D39   D(26,3,7,12)         -144.6683         estimate D2E/DX2                !
 ! D40   D(26,3,7,30)            4.1017         estimate D2E/DX2                !
 ! D41   D(7,3,18,16)            8.9864         estimate D2E/DX2                !
 ! D42   D(7,3,18,20)         -144.1944         estimate D2E/DX2                !
 ! D43   D(26,3,18,16)         149.3568         estimate D2E/DX2                !
 ! D44   D(26,3,18,20)          -3.824          estimate D2E/DX2                !
 ! D45   D(7,3,26,24)          148.9685         estimate D2E/DX2                !
 ! D46   D(7,3,26,28)           -4.7233         estimate D2E/DX2                !
 ! D47   D(18,3,26,24)           3.8589         estimate D2E/DX2                !
 ! D48   D(18,3,26,28)        -149.8328         estimate D2E/DX2                !
 ! D49   D(45,4,8,11)           25.5665         estimate D2E/DX2                !
 ! D50   D(45,4,8,16)         -124.1747         estimate D2E/DX2                !
 ! D51   D(46,4,8,11)          140.7282         estimate D2E/DX2                !
 ! D52   D(46,4,8,16)           -9.013          estimate D2E/DX2                !
 ! D53   D(95,4,8,11)          -98.2567         estimate D2E/DX2                !
 ! D54   D(95,4,8,16)          112.0021         estimate D2E/DX2                !
 ! D55   D(8,4,45,41)          144.0636         estimate D2E/DX2                !
 ! D56   D(8,4,45,48)          -23.3521         estimate D2E/DX2                !
 ! D57   D(46,4,45,41)          33.8981         estimate D2E/DX2                !
 ! D58   D(46,4,45,48)        -133.5177         estimate D2E/DX2                !
 ! D59   D(95,4,45,41)         -90.3437         estimate D2E/DX2                !
 ! D60   D(95,4,45,48)         102.2406         estimate D2E/DX2                !
 ! D61   D(8,4,46,14)            9.4571         estimate D2E/DX2                !
 ! D62   D(8,4,46,42)         -145.4727         estimate D2E/DX2                !
 ! D63   D(45,4,46,14)         124.6793         estimate D2E/DX2                !
 ! D64   D(45,4,46,42)         -30.2505         estimate D2E/DX2                !
 ! D65   D(95,4,46,14)        -112.2691         estimate D2E/DX2                !
 ! D66   D(95,4,46,42)          92.8011         estimate D2E/DX2                !
 ! D67   D(1,5,9,13)            -2.332          estimate D2E/DX2                !
 ! D68   D(1,5,9,35)          -156.8715         estimate D2E/DX2                !
 ! D69   D(29,5,9,13)          150.0508         estimate D2E/DX2                !
 ! D70   D(29,5,9,35)           -4.4887         estimate D2E/DX2                !
 ! D71   D(1,5,29,27)            9.7942         estimate D2E/DX2                !
 ! D72   D(1,5,29,31)          164.1006         estimate D2E/DX2                !
 ! D73   D(9,5,29,27)         -146.2525         estimate D2E/DX2                !
 ! D74   D(9,5,29,31)            8.0538         estimate D2E/DX2                !
 ! D75   D(2,6,10,49)           -1.5776         estimate D2E/DX2                !
 ! D76   D(2,6,10,53)          150.7061         estimate D2E/DX2                !
 ! D77   D(15,6,10,49)        -149.995          estimate D2E/DX2                !
 ! D78   D(15,6,10,53)           2.2887         estimate D2E/DX2                !
 ! D79   D(2,6,15,13)           -4.8087         estimate D2E/DX2                !
 ! D80   D(2,6,15,17)         -154.5351         estimate D2E/DX2                !
 ! D81   D(10,6,15,13)         147.0599         estimate D2E/DX2                !
 ! D82   D(10,6,15,17)          -2.6665         estimate D2E/DX2                !
 ! D83   D(3,7,12,14)           -7.6325         estimate D2E/DX2                !
 ! D84   D(3,7,12,36)          146.7917         estimate D2E/DX2                !
 ! D85   D(30,7,12,14)        -153.1234         estimate D2E/DX2                !
 ! D86   D(30,7,12,36)           1.3007         estimate D2E/DX2                !
 ! D87   D(3,7,30,28)           -2.0059         estimate D2E/DX2                !
 ! D88   D(3,7,30,32)         -153.2499         estimate D2E/DX2                !
 ! D89   D(12,7,30,28)         147.6629         estimate D2E/DX2                !
 ! D90   D(12,7,30,32)          -3.5811         estimate D2E/DX2                !
 ! D91   D(4,8,11,50)            1.6507         estimate D2E/DX2                !
 ! D92   D(4,8,11,54)         -150.3021         estimate D2E/DX2                !
 ! D93   D(16,8,11,50)         149.0317         estimate D2E/DX2                !
 ! D94   D(16,8,11,54)          -2.9211         estimate D2E/DX2                !
 ! D95   D(4,8,16,14)            5.4809         estimate D2E/DX2                !
 ! D96   D(4,8,16,18)          153.8115         estimate D2E/DX2                !
 ! D97   D(11,8,16,14)        -145.6206         estimate D2E/DX2                !
 ! D98   D(11,8,16,18)           2.71           estimate D2E/DX2                !
 ! D99   D(5,9,13,15)           -7.5697         estimate D2E/DX2                !
 ! D100  D(5,9,13,43)         -152.083          estimate D2E/DX2                !
 ! D101  D(35,9,13,15)         147.722          estimate D2E/DX2                !
 ! D102  D(35,9,13,43)           3.2087         estimate D2E/DX2                !
 ! D103  D(5,9,35,33)           -4.3569         estimate D2E/DX2                !
 ! D104  D(5,9,35,37)          151.5298         estimate D2E/DX2                !
 ! D105  D(13,9,35,33)        -158.598          estimate D2E/DX2                !
 ! D106  D(13,9,35,37)          -2.7113         estimate D2E/DX2                !
 ! D107  D(6,10,49,47)          30.801          estimate D2E/DX2                !
 ! D108  D(6,10,49,51)         148.1548         estimate D2E/DX2                !
 ! D109  D(6,10,49,91)         -91.1937         estimate D2E/DX2                !
 ! D110  D(53,10,49,47)       -123.2457         estimate D2E/DX2                !
 ! D111  D(53,10,49,51)         -5.8918         estimate D2E/DX2                !
 ! D112  D(53,10,49,91)        114.7596         estimate D2E/DX2                !
 ! D113  D(6,10,53,19)          -1.3935         estimate D2E/DX2                !
 ! D114  D(6,10,53,55)        -161.3323         estimate D2E/DX2                !
 ! D115  D(49,10,53,19)        153.4267         estimate D2E/DX2                !
 ! D116  D(49,10,53,55)         -6.5122         estimate D2E/DX2                !
 ! D117  D(8,11,50,48)         -30.6064         estimate D2E/DX2                !
 ! D118  D(8,11,50,52)        -148.2467         estimate D2E/DX2                !
 ! D119  D(8,11,50,92)          91.2584         estimate D2E/DX2                !
 ! D120  D(54,11,50,48)        123.3366         estimate D2E/DX2                !
 ! D121  D(54,11,50,52)          5.6963         estimate D2E/DX2                !
 ! D122  D(54,11,50,92)       -114.7986         estimate D2E/DX2                !
 ! D123  D(8,11,54,20)           1.4067         estimate D2E/DX2                !
 ! D124  D(8,11,54,56)         161.039          estimate D2E/DX2                !
 ! D125  D(50,11,54,20)       -153.0971         estimate D2E/DX2                !
 ! D126  D(50,11,54,56)          6.5352         estimate D2E/DX2                !
 ! D127  D(7,12,14,16)           6.0876         estimate D2E/DX2                !
 ! D128  D(7,12,14,46)         153.0217         estimate D2E/DX2                !
 ! D129  D(36,12,14,16)       -148.7845         estimate D2E/DX2                !
 ! D130  D(36,12,14,46)         -1.8504         estimate D2E/DX2                !
 ! D131  D(7,12,36,34)           6.5198         estimate D2E/DX2                !
 ! D132  D(7,12,36,38)        -152.5544         estimate D2E/DX2                !
 ! D133  D(14,12,36,34)        160.1434         estimate D2E/DX2                !
 ! D134  D(14,12,36,38)          1.0691         estimate D2E/DX2                !
 ! D135  D(9,13,15,6)         -151.0941         estimate D2E/DX2                !
 ! D136  D(9,13,15,17)          -1.7149         estimate D2E/DX2                !
 ! D137  D(43,13,15,6)          -2.6633         estimate D2E/DX2                !
 ! D138  D(43,13,15,17)        146.7159         estimate D2E/DX2                !
 ! D139  D(9,13,43,2)          157.1214         estimate D2E/DX2                !
 ! D140  D(9,13,43,39)          -0.3303         estimate D2E/DX2                !
 ! D141  D(15,13,43,2)           8.981          estimate D2E/DX2                !
 ! D142  D(15,13,43,39)       -148.4707         estimate D2E/DX2                !
 ! D143  D(12,14,16,8)         151.3406         estimate D2E/DX2                !
 ! D144  D(12,14,16,18)          3.0486         estimate D2E/DX2                !
 ! D145  D(46,14,16,8)           0.9098         estimate D2E/DX2                !
 ! D146  D(46,14,16,18)       -147.3822         estimate D2E/DX2                !
 ! D147  D(12,14,46,4)        -157.3175         estimate D2E/DX2                !
 ! D148  D(12,14,46,42)         -0.7805         estimate D2E/DX2                !
 ! D149  D(16,14,46,4)          -6.8338         estimate D2E/DX2                !
 ! D150  D(16,14,46,42)        149.7032         estimate D2E/DX2                !
 ! D151  D(6,15,17,1)          165.3857         estimate D2E/DX2                !
 ! D152  D(6,15,17,19)           2.0214         estimate D2E/DX2                !
 ! D153  D(13,15,17,1)          20.25           estimate D2E/DX2                !
 ! D154  D(13,15,17,19)       -143.1143         estimate D2E/DX2                !
 ! D155  D(8,16,18,3)         -154.4957         estimate D2E/DX2                !
 ! D156  D(8,16,18,20)          -0.897          estimate D2E/DX2                !
 ! D157  D(14,16,18,3)         -10.4954         estimate D2E/DX2                !
 ! D158  D(14,16,18,20)        143.1033         estimate D2E/DX2                !
 ! D159  D(1,17,19,21)          -1.1716         estimate D2E/DX2                !
 ! D160  D(1,17,19,53)        -163.5333         estimate D2E/DX2                !
 ! D161  D(15,17,19,21)        161.3147         estimate D2E/DX2                !
 ! D162  D(15,17,19,53)         -1.047          estimate D2E/DX2                !
 ! D163  D(3,18,20,22)          -8.6398         estimate D2E/DX2                !
 ! D164  D(3,18,20,54)         151.7922         estimate D2E/DX2                !
 ! D165  D(16,18,20,22)       -161.0935         estimate D2E/DX2                !
 ! D166  D(16,18,20,54)         -0.6614         estimate D2E/DX2                !
 ! D167  D(17,19,21,23)        -22.0248         estimate D2E/DX2                !
 ! D168  D(17,19,21,57)       -132.8108         estimate D2E/DX2                !
 ! D169  D(17,19,21,99)        103.1718         estimate D2E/DX2                !
 ! D170  D(53,19,21,23)        140.5751         estimate D2E/DX2                !
 ! D171  D(53,19,21,57)         29.7891         estimate D2E/DX2                !
 ! D172  D(53,19,21,99)        -94.2283         estimate D2E/DX2                !
 ! D173  D(17,19,53,10)          0.7541         estimate D2E/DX2                !
 ! D174  D(17,19,53,55)        157.5034         estimate D2E/DX2                !
 ! D175  D(21,19,53,10)       -162.0828         estimate D2E/DX2                !
 ! D176  D(21,19,53,55)         -5.3335         estimate D2E/DX2                !
 ! D177  D(18,20,22,24)         19.4364         estimate D2E/DX2                !
 ! D178  D(18,20,22,58)        131.6917         estimate D2E/DX2                !
 ! D179  D(18,20,22,103)      -105.4646         estimate D2E/DX2                !
 ! D180  D(54,20,22,24)       -141.021          estimate D2E/DX2                !
 ! D181  D(54,20,22,58)        -28.7656         estimate D2E/DX2                !
 ! D182  D(54,20,22,103)        94.078          estimate D2E/DX2                !
 ! D183  D(18,20,54,11)          0.429          estimate D2E/DX2                !
 ! D184  D(18,20,54,56)       -156.0646         estimate D2E/DX2                !
 ! D185  D(22,20,54,11)        161.1139         estimate D2E/DX2                !
 ! D186  D(22,20,54,56)          4.6202         estimate D2E/DX2                !
 ! D187  D(19,21,23,25)         24.0737         estimate D2E/DX2                !
 ! D188  D(19,21,23,61)       -135.7746         estimate D2E/DX2                !
 ! D189  D(57,21,23,25)        140.6683         estimate D2E/DX2                !
 ! D190  D(57,21,23,61)        -19.18           estimate D2E/DX2                !
 ! D191  D(99,21,23,25)       -100.2066         estimate D2E/DX2                !
 ! D192  D(99,21,23,61)         99.945          estimate D2E/DX2                !
 ! D193  D(19,21,57,59)        133.1948         estimate D2E/DX2                !
 ! D194  D(19,21,57,83)        -25.6693         estimate D2E/DX2                !
 ! D195  D(23,21,57,59)         15.5667         estimate D2E/DX2                !
 ! D196  D(23,21,57,83)       -143.2973         estimate D2E/DX2                !
 ! D197  D(99,21,57,59)       -103.6596         estimate D2E/DX2                !
 ! D198  D(99,21,57,83)         97.4763         estimate D2E/DX2                !
 ! D199  D(20,22,24,26)        -19.925          estimate D2E/DX2                !
 ! D200  D(20,22,24,62)        135.0514         estimate D2E/DX2                !
 ! D201  D(58,22,24,26)       -137.7013         estimate D2E/DX2                !
 ! D202  D(58,22,24,62)         17.275          estimate D2E/DX2                !
 ! D203  D(103,22,24,26)       104.2243         estimate D2E/DX2                !
 ! D204  D(103,22,24,62)      -100.7993         estimate D2E/DX2                !
 ! D205  D(20,22,58,60)       -134.0677         estimate D2E/DX2                !
 ! D206  D(20,22,58,84)         24.6425         estimate D2E/DX2                !
 ! D207  D(24,22,58,60)        -14.0003         estimate D2E/DX2                !
 ! D208  D(24,22,58,84)        144.7099         estimate D2E/DX2                !
 ! D209  D(103,22,58,60)       103.9814         estimate D2E/DX2                !
 ! D210  D(103,22,58,84)       -97.3084         estimate D2E/DX2                !
 ! D211  D(21,23,25,1)          -1.6836         estimate D2E/DX2                !
 ! D212  D(21,23,25,27)       -159.7736         estimate D2E/DX2                !
 ! D213  D(61,23,25,1)         156.5176         estimate D2E/DX2                !
 ! D214  D(61,23,25,27)         -1.5725         estimate D2E/DX2                !
 ! D215  D(21,23,61,59)         15.1506         estimate D2E/DX2                !
 ! D216  D(21,23,61,63)        130.0308         estimate D2E/DX2                !
 ! D217  D(21,23,61,89)       -106.5114         estimate D2E/DX2                !
 ! D218  D(25,23,61,59)       -145.2345         estimate D2E/DX2                !
 ! D219  D(25,23,61,63)        -30.3543         estimate D2E/DX2                !
 ! D220  D(25,23,61,89)         93.1035         estimate D2E/DX2                !
 ! D221  D(22,24,26,3)           8.8731         estimate D2E/DX2                !
 ! D222  D(22,24,26,28)        159.4578         estimate D2E/DX2                !
 ! D223  D(62,24,26,3)        -144.3547         estimate D2E/DX2                !
 ! D224  D(62,24,26,28)          6.2301         estimate D2E/DX2                !
 ! D225  D(22,24,62,60)        -13.5697         estimate D2E/DX2                !
 ! D226  D(22,24,62,64)       -128.2308         estimate D2E/DX2                !
 ! D227  D(22,24,62,90)        108.1636         estimate D2E/DX2                !
 ! D228  D(26,24,62,60)        141.9448         estimate D2E/DX2                !
 ! D229  D(26,24,62,64)         27.2838         estimate D2E/DX2                !
 ! D230  D(26,24,62,90)        -96.3218         estimate D2E/DX2                !
 ! D231  D(1,25,27,29)         -13.0863         estimate D2E/DX2                !
 ! D232  D(1,25,27,65)        -127.9562         estimate D2E/DX2                !
 ! D233  D(1,25,27,85)         108.9328         estimate D2E/DX2                !
 ! D234  D(23,25,27,29)        147.0894         estimate D2E/DX2                !
 ! D235  D(23,25,27,65)         32.2195         estimate D2E/DX2                !
 ! D236  D(23,25,27,85)        -90.8914         estimate D2E/DX2                !
 ! D237  D(3,26,28,30)           3.3369         estimate D2E/DX2                !
 ! D238  D(3,26,28,66)         117.6646         estimate D2E/DX2                !
 ! D239  D(3,26,28,88)        -119.2935         estimate D2E/DX2                !
 ! D240  D(24,26,28,30)       -149.9587         estimate D2E/DX2                !
[...]
 Alpha virt. eigenvalues --    1.63610   1.63953   1.64397   1.64660   1.64725
 Alpha virt. eigenvalues --    1.64844   1.65179   1.65309   1.65666   1.65836
 Alpha virt. eigenvalues --    1.66063   1.66314   1.66500   1.66897   1.67135
 Alpha virt. eigenvalues --    1.67294   1.67355   1.67796   1.67996   1.68200
 Alpha virt. eigenvalues --    1.68246   1.68614   1.68635   1.68891   1.69230
 Alpha virt. eigenvalues --    1.69419   1.69544   1.69813   1.70009   1.70480
 Alpha virt. eigenvalues --    1.70641   1.70758   1.70835   1.71267   1.71388
 Alpha virt. eigenvalues --    1.71509   1.71768   1.72000   1.72611   1.72763
 Alpha virt. eigenvalues --    1.73041   1.73111   1.73658   1.73933   1.73968
 Alpha virt. eigenvalues --    1.74267   1.74472   1.74649   1.74833   1.74968
 Alpha virt. eigenvalues --    1.75044   1.75308   1.75533   1.75648   1.75861
 Alpha virt. eigenvalues --    1.76155   1.76497   1.76712   1.76859   1.77032
 Alpha virt. eigenvalues --    1.77196   1.77621   1.77709   1.77860   1.78047
 Alpha virt. eigenvalues --    1.78347   1.78859   1.79029   1.79174   1.79441
 Alpha virt. eigenvalues --    1.79521   1.79763   1.79841   1.80305   1.80437
 Alpha virt. eigenvalues --    1.80734   1.80913   1.81267   1.81496   1.81759
 Alpha virt. eigenvalues --    1.82013   1.82335   1.82459   1.82567   1.82905
 Alpha virt. eigenvalues --    1.83074   1.83258   1.83439   1.83694   1.83867
 Alpha virt. eigenvalues --    1.84259   1.84569   1.84676   1.85019   1.85188
 Alpha virt. eigenvalues --    1.85438   1.85582   1.86001   1.86310   1.86665
 Alpha virt. eigenvalues --    1.87023   1.87397   1.87641   1.87828   1.87992
 Alpha virt. eigenvalues --    1.88204   1.88462   1.88885   1.89269   1.89525
 Alpha virt. eigenvalues --    1.90201   1.90600   1.91215   1.91402   1.91852
 Alpha virt. eigenvalues --    1.92148   1.92542   1.92899   1.93287   1.93371
 Alpha virt. eigenvalues --    1.93691   1.93838   1.94005   1.94359   1.94771
 Alpha virt. eigenvalues --    1.94995   1.95297   1.95858   1.96617   1.96750
 Alpha virt. eigenvalues --    1.96902   1.97374   1.97547   1.97590   1.98229
 Alpha virt. eigenvalues --    1.99048   1.99275   1.99701   1.99933   2.00211
 Alpha virt. eigenvalues --    2.00645   2.01240   2.01436   2.01500   2.01797
 Alpha virt. eigenvalues --    2.02061   2.02324   2.02746   2.03432   2.03633
 Alpha virt. eigenvalues --    2.03932   2.04171   2.04907   2.05009   2.05254
 Alpha virt. eigenvalues --    2.06103   2.06441   2.06656   2.07018   2.07325
 Alpha virt. eigenvalues --    2.07478   2.08082   2.08274   2.08657   2.09505
 Alpha virt. eigenvalues --    2.09641   2.09881   2.10068   2.11094   2.11251
 Alpha virt. eigenvalues --    2.11623   2.12124   2.12631   2.12751   2.13073
 Alpha virt. eigenvalues --    2.13679   2.14081   2.14296   2.14559   2.14961
 Alpha virt. eigenvalues --    2.15090   2.16037   2.16215   2.16502   2.16657
 Alpha virt. eigenvalues --    2.17012   2.17430   2.17799   2.18268   2.18889
 Alpha virt. eigenvalues --    2.19150   2.19271   2.19592   2.20166   2.20231
 Alpha virt. eigenvalues --    2.20798   2.20948   2.21708   2.21762   2.22218
 Alpha virt. eigenvalues --    2.22504   2.23533   2.23913   2.24024   2.24369
 Alpha virt. eigenvalues --    2.24600   2.25295   2.25527   2.25763   2.25926
 Alpha virt. eigenvalues --    2.26491   2.26899   2.27189   2.27865   2.28362
 Alpha virt. eigenvalues --    2.28790   2.28822   2.29538   2.30256   2.30818
 Alpha virt. eigenvalues --    2.30943   2.31152   2.32034   2.32391   2.32920
 Alpha virt. eigenvalues --    2.33368   2.33693   2.34268   2.34793   2.35356
 Alpha virt. eigenvalues --    2.35623   2.36365   2.36872   2.37465   2.37840
 Alpha virt. eigenvalues --    2.37995   2.38375   2.38876   2.39061   2.39631
 Alpha virt. eigenvalues --    2.40024   2.40862   2.41041   2.41592   2.41773
 Alpha virt. eigenvalues --    2.42916   2.43727   2.44137   2.44359   2.44742
 Alpha virt. eigenvalues --    2.44936   2.45683   2.45987   2.46349   2.46616
 Alpha virt. eigenvalues --    2.47456   2.47890   2.48402   2.48493   2.48732
 Alpha virt. eigenvalues --    2.49225   2.49691   2.50292   2.50822   2.51318
 Alpha virt. eigenvalues --    2.51766   2.52070   2.52099   2.52469   2.52968
 Alpha virt. eigenvalues --    2.53132   2.53709   2.53879   2.54377   2.54655
 Alpha virt. eigenvalues --    2.55161   2.55445   2.55769   2.56062   2.56555
 Alpha virt. eigenvalues --    2.57075   2.57142   2.57604   2.57739   2.58020
 Alpha virt. eigenvalues --    2.58655   2.59265   2.59592   2.59949   2.60051
 Alpha virt. eigenvalues --    2.60281   2.60930   2.61238   2.61334   2.61665
 Alpha virt. eigenvalues --    2.62000   2.62728   2.62874   2.62988   2.63874
 Alpha virt. eigenvalues --    2.63952   2.64571   2.64747   2.65187   2.65625
 Alpha virt. eigenvalues --    2.65907   2.66418   2.66800   2.66875   2.67483
 Alpha virt. eigenvalues --    2.67643   2.67833   2.68432   2.68628   2.69048
 Alpha virt. eigenvalues --    2.69151   2.69574   2.69791   2.70059   2.70322
 Alpha virt. eigenvalues --    2.71057   2.71175   2.71617   2.71934   2.72291
 Alpha virt. eigenvalues --    2.73253   2.73497   2.73982   2.74347   2.74567
 Alpha virt. eigenvalues --    2.74924   2.75247   2.75460   2.75773   2.75962
 Alpha virt. eigenvalues --    2.76979   2.77129   2.77402   2.77560   2.77903
 Alpha virt. eigenvalues --    2.78744   2.78979   2.79649   2.80034   2.80667
 Alpha virt. eigenvalues --    2.81324   2.81511   2.81852   2.82155   2.82306
 Alpha virt. eigenvalues --    2.82962   2.83463   2.83812   2.84374   2.84680
 Alpha virt. eigenvalues --    2.85129   2.85477   2.86433   2.87282   2.87766
 Alpha virt. eigenvalues --    2.88273   2.89160   2.89368   2.89478   2.90862
 Alpha virt. eigenvalues --    2.91266   2.92245   2.92403   2.92601   2.93157
 Alpha virt. eigenvalues --    2.93597   2.94638   2.95489   2.95817   2.96538
 Alpha virt. eigenvalues --    2.97260   2.98796   3.00872   3.01829   3.03524
 Alpha virt. eigenvalues --    3.04585   3.05432   3.06589   3.07379   3.08158
 Alpha virt. eigenvalues --    3.09060   3.09766   3.10554   3.11483   3.13055
 Alpha virt. eigenvalues --    3.14082   3.15658   3.16018   3.17261   3.17968
 Alpha virt. eigenvalues --    3.18906   3.21126   3.22210   3.23643   3.24912
 Alpha virt. eigenvalues --    3.26140   3.28150   3.29950   3.30577   3.33384
 Alpha virt. eigenvalues --    3.35606   3.37508   3.40648   3.41524   3.42805
 Alpha virt. eigenvalues --    3.44183   3.46756   3.47794   3.49495   4.00572
 Alpha virt. eigenvalues --    4.01806   4.02062   4.02886   4.03702   4.04932
 Alpha virt. eigenvalues --    4.05683   4.06451   4.07656   4.07784   4.08471
 Alpha virt. eigenvalues --    4.09011   4.09323   4.09609   4.10443   4.11684
 Alpha virt. eigenvalues --    4.12064   4.14212   4.14678   4.14791   4.15744
 Alpha virt. eigenvalues --    4.15809   4.16637   4.17484   4.18605   4.19061
 Alpha virt. eigenvalues --    4.19418   4.20060   4.20215   4.20859   4.20993
 Alpha virt. eigenvalues --    4.22485   4.23604   4.24277   4.24607   4.24872
 Alpha virt. eigenvalues --    4.25110   4.25488   4.26316   4.26990   4.27160
 Alpha virt. eigenvalues --    4.27415   4.27711   4.28267   4.28602   4.28910
 Alpha virt. eigenvalues --    4.29130   4.29523   4.29991   4.30717   4.31414
 Alpha virt. eigenvalues --    4.32316   4.33774   4.34734   4.35644   4.36524
 Alpha virt. eigenvalues --    4.37106   4.37983   4.38296   4.39050   4.39489
 Alpha virt. eigenvalues --    4.40508   4.41236   4.41487   4.42160   4.42486
 Alpha virt. eigenvalues --    4.42818   4.44277   4.44726   4.45552   4.46637
 Alpha virt. eigenvalues --    4.47945   4.49459   4.50147   4.51682   4.53093
 Alpha virt. eigenvalues --    4.54435   4.56357   4.56534   4.56941   4.58375
 Alpha virt. eigenvalues --    4.59564   4.62739   4.63574   4.65830   4.67628
 Alpha virt. eigenvalues --    4.68735   4.69548   4.72120   4.76612   4.78093
 Alpha virt. eigenvalues --    4.80160   4.81260   4.82967   4.86447   4.87402
 Alpha virt. eigenvalues --    4.93327   4.94179   4.96519   4.98383   5.01473
 Alpha virt. eigenvalues --    5.06924   5.08178   5.18165
          Condensed to atoms (all electrons):
 Mulliken charges:
               1
     1  C   -0.361717
     2  C   -0.395927
     3  C   -0.010320
     4  C   -0.395836
     5  C    0.077600
     6  C    0.084309
     7  C    0.018689
     8  C    0.084349
     9  C    0.059411
    10  C    0.131644
    11  C    0.132887
    12  C    0.043335
    13  C   -0.014714
    14  C    0.006999
    15  C    0.044353
    16  C    0.015191
    17  C    0.119993
    18  C    0.073285
    19  C    0.149904
    20  C    0.120006
    21  C   -0.385980
    22  C   -0.365764
    23  C    0.181408
    24  C    0.160990
    25  C    0.185474
    26  C    0.113111
    27  C   -0.371566
    28  C   -0.384370
    29  C    0.133873
    30  C    0.088452
    31  C    0.091470
    32  C    0.137136
    33  C   -0.008462
    34  C    0.066360
    35  C    0.071273
    36  C    0.095896
    37  C    0.085112
    38  C    0.077435
    39  C    0.154307
    40  C    0.114784
    41  C    0.113437
    42  C    0.160996
    43  C    0.086150
    44  C    0.150907
    45  C    0.149770
    46  C    0.085151
    47  C    0.121816
    48  C    0.122348
    49  C   -0.376241
    50  C   -0.374837
    51  C    0.182111
    52  C    0.179590
    53  C    0.105671
    54  C    0.111562
    55  C   -0.381423
    56  C   -0.381092
    57  C    0.111520
    58  C    0.112477
    59  C    0.123642
    60  C    0.122086
    61  C   -0.374502
    62  C   -0.368582
    63  C    0.125290
    64  C    0.127077
    65  C    0.127436
    66  C    0.128530
    67  C    0.123591
    68  C    0.121326
    69  C   -0.385546
    70  C   -0.361115
    71  C    0.112570
    72  C    0.155337
    73  C    0.017571
    74  C   -0.294090
    75  C    0.122506
    76  C    0.182863
    77  C   -0.357961
    78  C   -0.346488
    79  C   -0.379285
    80  C   -0.378789
    81  C    0.184334
    82  C    0.183416
    83  C    0.142892
    84  C    0.143927
    85  Cl   0.036155
    86  Cl   0.036065
    87  Cl   0.032207
    88  Cl   0.040744
    89  Cl   0.036487
    90  Cl   0.035332
    91  Cl   0.034839
    92  Cl   0.035445
    93  Cl   0.036330
    94  Cl   0.034989
    95  Cl   0.040141
    96  Cl   0.037125
    97  Cl   0.016474
    98  Cl   0.005648
    99  Cl   0.029665
   100  Cl   0.034866
   101  Cl   0.029810
   102  Cl   0.031614
   103  Cl   0.009305
   104  Cl  -0.095570
 Sum of Mulliken charges =  -0.00000
 Mulliken charges with hydrogens summed into heavy atoms:
               1
     1  C   -0.361717
     2  C   -0.395927
     3  C   -0.010320
     4  C   -0.395836
     5  C    0.077600
     6  C    0.084309
     7  C    0.018689
     8  C    0.084349
     9  C    0.059411
    10  C    0.131644
    11  C    0.132887
    12  C    0.043335
    13  C   -0.014714
    14  C    0.006999
    15  C    0.044353
    16  C    0.015191
    17  C    0.119993
    18  C    0.073285
    19  C    0.149904
    20  C    0.120006
    21  C   -0.385980
    22  C   -0.365764
    23  C    0.181408
    24  C    0.160990
    25  C    0.185474
    26  C    0.113111
    27  C   -0.371566
    28  C   -0.384370
    29  C    0.133873
    30  C    0.088452
    31  C    0.091470
    32  C    0.137136
    33  C   -0.008462
    34  C    0.066360
    35  C    0.071273
    36  C    0.095896
    37  C    0.085112
    38  C    0.077435
    39  C    0.154307
    40  C    0.114784
    41  C    0.113437
    42  C    0.160996
    43  C    0.086150
    44  C    0.150907
    45  C    0.149770
    46  C    0.085151
    47  C    0.121816
    48  C    0.122348
    49  C   -0.376241
    50  C   -0.374837
    51  C    0.182111
    52  C    0.179590
    53  C    0.105671
    54  C    0.111562
    55  C   -0.381423
    56  C   -0.381092
    57  C    0.111520
    58  C    0.112477
    59  C    0.123642
    60  C    0.122086
    61  C   -0.374502
    62  C   -0.368582
    63  C    0.125290
    64  C    0.127077
    65  C    0.127436
    66  C    0.128530
    67  C    0.123591
    68  C    0.121326
    69  C   -0.385546
    70  C   -0.361115
    71  C    0.112570
    72  C    0.155337
    73  C    0.017571
    74  C   -0.294090
    75  C    0.122506
    76  C    0.182863
    77  C   -0.357961
    78  C   -0.346488
    79  C   -0.379285
    80  C   -0.378789
    81  C    0.184334
    82  C    0.183416
    83  C    0.142892
    84  C    0.143927
    85  Cl   0.036155
    86  Cl   0.036065
    87  Cl   0.032207
    88  Cl   0.040744
    89  Cl   0.036487
    90  Cl   0.035332
    91  Cl   0.034839
    92  Cl   0.035445
    93  Cl   0.036330
    94  Cl   0.034989
    95  Cl   0.040141
    96  Cl   0.037125
    97  Cl   0.016474
    98  Cl   0.005648
    99  Cl   0.029665
   100  Cl   0.034866
   101  Cl   0.029810
   102  Cl   0.031614
   103  Cl   0.009305
   104  Cl  -0.095570
 Electronic spatial extent (au):  <R**2>=          82186.9750
 Charge=             -0.0000 electrons
 Dipole moment (field-independent basis, Debye):
    X=             -0.4445    Y=              1.7848    Z=             -1.3128  Tot=              2.2597
 Quadrupole moment (field-independent basis, Debye-Ang):
   XX=           -775.5604   YY=           -763.4366   ZZ=           -724.7184
   XY=              2.7471   XZ=              2.9732   YZ=             -2.7218
 Traceless Quadrupole moment (field-independent basis, Debye-Ang):
   XX=            -20.9886   YY=             -8.8648   ZZ=             29.8534
   XY=              2.7471   XZ=              2.9732   YZ=             -2.7218
 Octapole moment (field-independent basis, Debye-Ang**2):
  XXX=           -162.5853  YYY=             17.7566  ZZZ=            -43.3103  XYY=            -25.9084
  XXY=             22.7639  XXZ=             40.7219  XZZ=             48.9123  YZZ=             32.4407
  YYZ=              5.2945  XYZ=            -31.9655
 Hexadecapole moment (field-independent basis, Debye-Ang**3):
 XXXX=         -43946.9956 YYYY=         -40128.4371 ZZZZ=         -30407.8852 XXXY=            357.6586
 XXXZ=            174.1676 YYYX=            132.8024 YYYZ=              4.0260 ZZZX=            -50.0900
 ZZZY=             36.4870 XXYY=         -14082.9614 XXZZ=         -12323.3205 YYZZ=         -11910.9892
 XXYZ=           -120.3254 YYXZ=             29.5580 ZZXY=            -51.5774
 N-N= 3.225228090331D+04 E-N=-9.376283338441D+04  KE= 1.234698695290D+04
 Leave Link  601 at Wed Jun 29 19:55:23 2022, MaxMem=  1342177280 cpu:              19.9 elap:               1.1
 (Enter /home/mkliu/g16/l9999.exe)
 1\1\GINC-NODE03\FOpt\RB3LYP\6-31G(d,p)\C84Cl20\MKLIU\29-Jun-2022\0\\#P
  opt b3lyp/6-31G(d, p) empiricaldispersion=GD3\\force\\0,1\C,8.2263756
 824,18.631984472,10.6068763582\C,12.4816219308,19.9994557377,8.9145824
 08\C,8.276022808,26.8341631373,10.5370489066\C,12.4996952289,25.760964
 2502,8.9060029664\C,7.9539570288,18.9591002721,9.1554725952\C,11.86792
 12428,19.5824772762,10.2290962123\C,7.9663735934,26.7566589764,9.16517
 86319\C,11.8827812421,26.1840297522,10.2206090125\C,8.9603566906,19.14
 15872733,8.1651923462\C,12.1215502409,20.241252266,11.4076266592\C,12.
 1227880152,25.5255084839,11.4009421871\C,8.9709500669,26.580672154,8.1
 586232686\C,10.3007031706,19.0728755632,8.6025833406\C,10.3023566383,2
 6.6617951993,8.6001111959\C,10.6191318863,18.9806440998,10.0314214027\
 C,10.6265235033,26.7724616457,10.0116225378\C,9.6349133993,18.98479613
 31,11.025363443\C,9.6236031416,26.7562447517,11.0077784063\C,9.9026261
 729,19.6522873007,12.238086226\C,9.8999191691,26.103097746,12.24800856
 93\C,8.7705815457,20.059298368,13.1558426356\C,8.7624058141,25.6884810
 999,13.1568196293\C,7.4504108914,20.1557523173,12.4164403535\C,7.42961
 66459,25.5957452767,12.4428107013\C,7.2014846101,19.5059313233,11.2888
 715699\C,7.2030157246,26.2119357961,11.278088752\C,6.1061380285,19.943
 6127349,10.3409869711\C,6.0849068824,25.7974505199,10.3380624382\C,6.7
 141733689,19.566876021,9.0184517504\C,6.6804342719,26.1716299216,9.003
 1551006\C,6.3881674074,20.2345294955,7.8556341602\C,6.3867414032,25.50
 02656851,7.8575846819\C,7.3236125878,20.3562907435,6.819075576\C,7.319
 3866712,25.3844305516,6.8017164121\C,8.6750395287,19.9025921914,6.9791
 624315\C,8.6801310565,25.8258807843,6.9726659102\C,9.7363608876,20.608
 4683933,6.3147370652\C,9.7483102582,25.1626015305,6.2968652234\C,11.03
 66607793,20.5654216215,6.8269104082\C,12.6677109522,22.1842486081,7.76
 75604148\C,12.6749345476,23.574965325,7.7643123864\C,11.0600172424,25.
 2058291598,6.809602481\C,11.3136135752,19.7644201052,7.9509522179\C,12
 .8389311908,21.4710227429,8.9510555777\C,12.8509011282,24.2887906692,8
 .9470456118\C,11.3347548759,25.9869393707,7.9352780729\C,13.0609823359
 ,22.1753250072,10.1552502094\C,13.0640680823,23.5863133248,10.15355295
 11\C,13.0625292533,21.4154277086,11.48588564\C,13.0599989138,24.348263
 9144,11.4833512997\C,12.4204150054,22.2185007464,12.5960425054\C,12.41
 76105066,23.5462397579,12.5937338939\C,11.1470759295,20.2662214244,12.
 4165097827\C,11.1415911358,25.5004163946,12.4170946752\C,11.4282036895
 ,21.3937070786,13.389063458\C,11.4249602919,24.3685702742,13.387408009
 2\C,8.9462958678,21.4927730218,13.610644036\C,8.9410400801,24.25915027
 56,13.6148416936\C,7.7440409193,22.1872802222,13.48462237\C,7.74002989
 91,23.5610266313,13.4889748585\C,6.670349027,21.3936285933,12.79862977
 52\C,6.6569214228,24.3533686726,12.8123282405\C,6.1646892165,22.167380
 3701,11.5686141554\C,6.1577727539,23.5818605013,11.5700857052\C,5.8840
 508067,21.4660728864,10.3818788693\C,5.8664732225,24.2796960913,10.381
 2446085\C,5.5792194915,22.1698852601,9.1923020985\C,5.5673789572,23.57
 87551606,9.1862083084\C,5.432202718,21.4088550148,7.8658006304\C,5.407
 6959009,24.3540218043,7.8539702002\C,5.9587430738,22.225148051,6.70033
 00328\C,5.9139883225,23.5794547881,6.668025151\C,6.998502259,21.515712
 1627,6.0427628905\C,6.8644386626,24.3769946946,5.8200870486\C,8.023394
 9579,22.2224823672,5.393890467\C,8.0145768761,23.5889337973,5.34444557
 15\C,9.4009608411,21.635358855,5.2378511479\C,9.405916519,24.141715993
 4,5.2144477798\C,12.0656018717,21.6299679821,6.4867733953\C,12.0821336
 976,24.1300057673,6.4766057049\C,10.2424594506,22.8849547114,5.3574247
 973\C,11.4470674487,22.8826178452,5.9127730427\C,10.1663122183,22.1744
 728335,13.6851132724\C,10.1642184734,23.5834305906,13.6860164203\Cl,4.
 5287548714,19.0614817733,10.6825959542\Cl,3.6816311104,20.9226670556,7
 .6108950122\Cl,3.6547894318,24.8835268568,7.6610315251\Cl,4.5368169898
 ,26.7049137941,10.7153932811\Cl,5.2626770787,20.9968537822,13.91579706
 45\Cl,5.2397824291,24.7155259358,13.9313314884\Cl,14.7835528366,20.911
 7573406,11.902476256\Cl,14.7789857195,24.860412287,11.904459552\Cl,13.
 9520041432,18.9839989062,8.4910893484\Cl,13.3578788854,20.9424387235,5
 .3669678934\Cl,13.9640309908,26.7812101082,8.4776359187\Cl,13.38279953
 06,24.7981172565,5.3582716233\Cl,9.5861955565,20.8372912609,3.57494615
 96\Cl,7.9208356272,16.8250472556,10.9429871906\Cl,8.6630832787,18.9063
 425931,14.5926796223\Cl,9.6900084292,24.9630735674,3.5752248832\Cl,12.
 1728365412,20.7682628332,14.95902102\Cl,12.1711150461,25.0033142316,14
 .952399056\Cl,8.662037859,26.8521530567,14.6071309764\Cl,5.9582793887,
 25.2284104673,4.3230998252\\Version=ES64L-G16RevA.03\State=1-A\HF=-124
 04.9876929\RMSD=7.722e-09\RMSF=1.929e-05\Dipole=0.7163516,0.5131964,0.
 1177463\Quadrupole=-7.6878196,20.9793693,-13.2915497,2.5418458,-3.2236
 763,6.9378489\PG=C01 [X(C84Cl20)]\\@


 WHEN YOU'VE SEEN ONE NUCLEAR WAR YOU'VE SEEN THEM ALL.
 Job cpu time:       2 days 11 hours 53 minutes 48.5 seconds.
 Elapsed time:       0 days  2 hours 29 minutes 57.1 seconds.
 File lengths (MBytes):  RWF=   1649 Int=      0 D2E=      0 Chk=    205 Scr=      1
 Normal termination of Gaussian 16 at Wed Jun 29 19:55:26 2022.
