 Entering Gaussian System, Link 0=g16
 Input=20_addons_C84_14_Cl22_rank_0.gjf
 Output=20_addons_C84_14_Cl22_rank_0.log
 Initial command:
 /home/mkliu/g16/l1.exe "/data/scratch/Gau-86521.inp" -scrdir="/data/scratch/"
 Entering Link 1 = /home/mkliu/g16/l1.exe PID=     86522.
  
 Copyright (c) 1988,1990,1992,1993,1995,1998,2003,2009,2016,
            Gaussian, Inc.  All Rights Reserved.
  
 This is part of the Gaussian(R) 16 program.  It is based on
 the Gaussian(R) 09 system (copyright 2009, Gaussian, Inc.),
 the Gaussian(R) 03 system (copyright 2003, Gaussian, Inc.),
 the Gaussian(R) 98 system (copyright 1998, Gaussian, Inc.),
 the Gaussian(R) 94 system (copyright 1995, Gaussian, Inc.),
 the Gaussian 92(TM) system (copyright 1992, Gaussian, Inc.),
 the Gaussian 90(TM) system (copyright 1990, Gaussian, Inc.),
 the Gaussian 88(TM) system (copyright 1988, Gaussian, Inc.),
 the Gaussian 86(TM) system (copyright 1986, Carnegie Mellon
 University), and the Gaussian 82(TM) system (copyright 1983,
 Carnegie Mellon University). Gaussian is a federally registered
 trademark of Gaussian, Inc.
  
 This software contains proprietary and confidential information,
 including trade secrets, belonging to Gaussian, Inc.
  
 This software is provided under written license and may be
 used, copied, transmitted, or stored only in accord with that
 written license.
  
 The following legend is applicable only to US Government
 contracts under FAR:
  
                    RESTRICTED RIGHTS LEGEND
  
 Use, reproduction and disclosure by the US Government is
 subject to restrictions as set forth in subparagraphs (a)
 and (c) of the Commercial Computer Software - Restricted
 Rights clause in FAR 52.227-19.
  
 Gaussian, Inc.
 340 Quinnipiac St., Bldg. 40, Wallingford CT 06492
  
  
 ---------------------------------------------------------------
 Warning -- This program may not be used in any manner that
 competes with the business of Gaussian, Inc. or will provide
 assistance to any competitor of Gaussian, Inc.  The licensee
 of this program is prohibited from giving any competitor of
 Gaussian, Inc. access to this program.  By using this program,
 the user acknowledges that Gaussian, Inc. is engaged in the
 business of creating and licensing software in the field of
 computational chemistry and represents and warrants to the
 licensee that it is not a competitor of Gaussian, Inc. and that
 it will not use this program in any manner prohibited above.
 ---------------------------------------------------------------
  

 Cite this work as:
 Gaussian 16, Revision A.03,
 M. J. Frisch, G. W. Trucks, H. B. Schlegel, G. E. Scuseria, 
 M. A. Robb, J. R. Cheeseman, G. Scalmani, V. Barone, 
 G. A. Petersson, H. Nakatsuji, X. Li, M. Caricato, A. V. Marenich, 
 J. Bloino, B. G. Janesko, R. Gomperts, B. Mennucci, H. P. Hratchian, 
 J. V. Ortiz, A. F. Izmaylov, J. L. Sonnenberg, D. Williams-Young, 
 F. Ding, F. Lipparini, F. Egidi, J. Goings, B. Peng, A. Petrone, 
 T. Henderson, D. Ranasinghe, V. G. Zakrzewski, J. Gao, N. Rega, 
 G. Zheng, W. Liang, M. Hada, M. Ehara, K. Toyota, R. Fukuda, 
 J. Hasegawa, M. Ishida, T. Nakajima, Y. Honda, O. Kitao, H. Nakai, 
 T. Vreven, K. Throssell, J. A. Montgomery, Jr., J. E. Peralta, 
 F. Ogliaro, M. J. Bearpark, J. J. Heyd, E. N. Brothers, K. N. Kudin, 
 V. N. Staroverov, T. A. Keith, R. Kobayashi, J. Normand, 
 K. Raghavachari, A. P. Rendell, J. C. Burant, S. S. Iyengar, 
 J. Tomasi, M. Cossi, J. M. Millam, M. Klene, C. Adamo, R. Cammi, 
 J. W. Ochterski, R. L. Martin, K. Morokuma, O. Farkas, 
 J. B. Foresman, and D. J. Fox, Gaussian, Inc., Wallingford CT, 2016.
 
 ******************************************
 Gaussian 16:  ES64L-G16RevA.03 25-Dec-2016
                28-Jun-2022 
 ******************************************
 %mem=10GB
 %chk=20_addons_C84_14_Cl22_rank_0.chk
 %nprocshared=24
 Will use up to   24 processors via shared memory.
 ------------------------------------------------
 #P opt b3lyp/6-31G(d, p) empiricaldispersion=GD3
 ------------------------------------------------
 1/18=20,19=15,26=3,38=1/1,3;
 2/9=110,12=2,17=6,18=5,40=1/2;
 3/5=1,6=6,7=101,11=2,25=1,30=1,71=1,74=-5,124=31/1,2,3;
 4//1;
 5/5=2,38=5/2;
 6/7=2,8=2,9=2,10=2,28=1/1;
 7//1,2,3,16;
 1/18=20,19=15,26=3/3(2);
 2/9=110/2;
 99//99;
 2/9=110/2;
 3/5=1,6=6,7=101,11=2,25=1,30=1,71=1,74=-5,124=31/1,2,3;
 4/5=5,16=3,69=1/1;
 5/5=2,38=5/2;
 7//1,2,3,16;
 1/18=20,19=15,26=3/3(-5);
 2/9=110/2;
 6/7=2,8=2,9=2,10=2,19=2,28=1/1;
 99/9=1/99;
 Leave Link    1 at Tue Jun 28 14:06:55 2022, MaxMem=  1342177280 cpu:               0.7 elap:               0.5
 (Enter /home/mkliu/g16/l101.exe)
 -----
 force
 -----
 Symbolic Z-matrix:
 Charge =  0 Multiplicity = 1
 C                     8.22709   18.64115   10.59165 
 C                     12.4578   20.01344   8.90884 
 C                     8.22583   27.10858   10.59722 
 C                     12.45695   25.73975   8.9126 
 C                     7.95715   18.96076   9.14497 
 C                     11.85006   19.60172   10.21472 
 C                     7.95599   26.79078   9.15013 
 C                     11.84909   26.14957   10.21902 
 C                     8.95341   19.15255   8.16509 
 C                     12.10233   20.2552   11.38979 
 C                     12.10155   25.49461   11.39324 
 C                     8.9523    26.60058   8.17 
 C                     10.28701   19.09353   8.60582 
 C                     10.28589   26.65942   8.6108 
 C                     10.59974   19.00072   10.01945 
 C                     10.5986   26.75046   10.02456 
 C                     9.62236   19.00482   11.00849 
 C                     9.62122   26.74476   11.01359 
 C                     9.89174   19.66685   12.21444 
 C                     9.8908    26.08122   12.21866 
 C                     8.77212   20.06815   13.13211 
 C                     8.77129   25.67839   13.1358 
 C                     7.46514   20.17064   12.38944 
 C                     7.46435   25.57649   12.393 
 C                     7.21447   19.52172   11.26509 
 C                     7.21348   26.22682   11.26951 
 C                     6.12661   19.96341   10.32522 
 C                     6.12575   25.78604   10.32906 
 C                     6.72386   19.57165   9.01409 
 C                     6.72288   26.1797   9.01844 
 C                     6.40179   20.23714   7.85181 
 C                     6.401     25.51564   7.85529 
 C                     7.33204   20.33419   6.8197 
 C                     7.33128   25.42023   6.82305 
 C                     8.67239   19.90462   6.98157 
 C                     8.6715    25.84999   6.98549 
 C                     9.72462   20.61193   6.32174 
 C                     9.72394   25.14386   6.32473 
 C                     11.01406   20.58443   6.84055 
 C                     12.61695   22.18361   7.78782 
 C                     12.61675   23.57111   7.78874 
 C                     11.01337   25.17105   6.84357 
 C                     11.29418   19.79424   7.96127 
 C                     12.79236   21.47712   8.96351 
 C                     12.79196   24.2761   8.96536 
 C                     11.29326   25.95985   7.96533 
 C                     13.01394   22.17618   10.16049 
 C                     13.01374   23.57553   10.16141 
 C                     13.04091   21.41872   11.47531 
 C                     13.04048   24.33126   11.47723 
 C                     12.40015   22.21207   12.58017 
 C                     12.39996   23.53627   12.58104 
 C                     11.12836   20.27551   12.39438 
 C                     11.12759   25.47269   12.3978 
 C                     11.41533   21.3898   13.36591 
 C                     11.4149   24.35721   13.36786 
 C                     8.95614   21.49359   13.5734 
 C                     8.95573   24.25243   13.57521 
 C                     7.7569    22.18964   13.44416 
 C                     7.7567    23.55619   13.44506 
 C                     6.69118   21.40506   12.75699 
 C                     6.69074   24.34136   12.75892 
 C                     6.24089   22.17266   11.52246 
 C                     6.24069   23.57525   11.52338 
 C                     5.95771   21.47641   10.34486 
 C                     5.95732   24.27297   10.3467 
 C                     5.65667   22.17443   9.16375 
 C                     5.65647   23.57641   9.16467 
 C                     5.44928   21.40064   7.8628 
 C                     5.44884   24.35185   7.86474 
 C                     5.96208   22.19487   6.69551 
 C                     5.96186   23.5593   6.69641 
 C                     7.01547   21.50843   6.04909 
 C                     7.01505   24.24691   6.05089 
 C                     8.0143    22.18103   5.37568 
 C                     8.01409   23.57551   5.37659 
 C                     9.39684   21.62388   5.24259 
 C                     9.39646   24.13324   5.24424 
 C                     12.04255   21.63396   6.50756 
 C                     12.04218   24.12228   6.5092 
 C                     10.22008   22.87858   5.38981 
 C                     11.42286   22.8784   5.94039 
 C                     10.16448   22.1712   13.647 
 C                     10.16427   23.57506   13.64793 
 Cl                    4.54613   19.18381   10.68492 
 Cl                    3.71723   20.9498   7.72945 
 Cl                    3.71666   24.80235   7.73201 
 Cl                    4.54502   26.56468   10.68978 
 Cl                    5.2583    21.05784   13.78798 
 Cl                    5.25776   24.6868   13.79036 
 Cl                    14.7392   20.95213   11.85156 
 Cl                    14.73863   24.79785   11.85409 
 Cl                    13.9078   19.05381   8.45256 
 Cl                    13.31968   20.94957   5.43512 
 Cl                    13.90666   26.70041   8.45759 
 Cl                    13.31909   24.80846   5.43765 
 Cl                    9.66467   20.84393   3.62684 
 Cl                    7.93505   16.88377   10.93557 
 Cl                    8.66843   18.93706   14.53394 
 Cl                    9.66405   24.9154   3.62952 
 Cl                    12.12384   20.76926   14.90678 
 Cl                    12.12322   24.97593   14.90955 
 Cl                    8.66727   26.80759   14.53912 
 Cl                    7.93328   28.8654   10.94344 
 
 ITRead=  0  0  0  0  0  0  0  0  0  0  0  0  0  0  0  0  0  0  0  0
 ITRead=  0  0  0  0  0  0  0  0  0  0  0  0  0  0  0  0  0  0  0  0
 ITRead=  0  0  0  0  0  0  0  0  0  0  0  0  0  0  0  0  0  0  0  0
 ITRead=  0  0  0  0  0  0  0  0  0  0  0  0  0  0  0  0  0  0  0  0
 ITRead=  0  0  0  0  0  0  0  0  0  0  0  0  0  0  0  0  0  0  0  0
 ITRead=  0  0  0  0
 MicOpt= -1 -1 -1 -1 -1 -1 -1 -1 -1 -1 -1 -1 -1 -1 -1 -1 -1 -1 -1 -1
 MicOpt= -1 -1 -1 -1 -1 -1 -1 -1 -1 -1 -1 -1 -1 -1 -1 -1 -1 -1 -1 -1
 MicOpt= -1 -1 -1 -1 -1 -1 -1 -1 -1 -1 -1 -1 -1 -1 -1 -1 -1 -1 -1 -1
 MicOpt= -1 -1 -1 -1 -1 -1 -1 -1 -1 -1 -1 -1 -1 -1 -1 -1 -1 -1 -1 -1
 MicOpt= -1 -1 -1 -1 -1 -1 -1 -1 -1 -1 -1 -1 -1 -1 -1 -1 -1 -1 -1 -1
 MicOpt= -1 -1 -1 -1
 NAtoms=    104 NQM=      104 NQMF=       0 NMMI=      0 NMMIF=      0
                NMic=       0 NMicF=      0.
                    Isotopes and Nuclear Properties:
 (Nuclear quadrupole moments (NQMom) in fm**2, nuclear magnetic moments (NMagM)
  in nuclear magnetons)

  Atom         1           2           3           4           5           6           7           8           9          10
 IAtWgt=          12          12          12          12          12          12          12          12          12          12
 AtmWgt=  12.0000000  12.0000000  12.0000000  12.0000000  12.0000000  12.0000000  12.0000000  12.0000000  12.0000000  12.0000000
 NucSpn=           0           0           0           0           0           0           0           0           0           0
 AtZEff=  -0.0000000  -0.0000000  -0.0000000  -0.0000000  -0.0000000  -0.0000000  -0.0000000  -0.0000000  -0.0000000  -0.0000000
 NQMom=    0.0000000   0.0000000   0.0000000   0.0000000   0.0000000   0.0000000   0.0000000   0.0000000   0.0000000   0.0000000
 NMagM=    0.0000000   0.0000000   0.0000000   0.0000000   0.0000000   0.0000000   0.0000000   0.0000000   0.0000000   0.0000000
 AtZNuc=   6.0000000   6.0000000   6.0000000   6.0000000   6.0000000   6.0000000   6.0000000   6.0000000   6.0000000   6.0000000

  Atom        11          12          13          14          15          16          17          18          19          20
 IAtWgt=          12          12          12          12          12          12          12          12          12          12
 AtmWgt=  12.0000000  12.0000000  12.0000000  12.0000000  12.0000000  12.0000000  12.0000000  12.0000000  12.0000000  12.0000000
 NucSpn=           0           0           0           0           0           0           0           0           0           0
 AtZEff=  -0.0000000  -0.0000000  -0.0000000  -0.0000000  -0.0000000  -0.0000000  -0.0000000  -0.0000000  -0.0000000  -0.0000000
 NQMom=    0.0000000   0.0000000   0.0000000   0.0000000   0.0000000   0.0000000   0.0000000   0.0000000   0.0000000   0.0000000
 NMagM=    0.0000000   0.0000000   0.0000000   0.0000000   0.0000000   0.0000000   0.0000000   0.0000000   0.0000000   0.0000000
 AtZNuc=   6.0000000   6.0000000   6.0000000   6.0000000   6.0000000   6.0000000   6.0000000   6.0000000   6.0000000   6.0000000

  Atom        21          22          23          24          25          26          27          28          29          30
 IAtWgt=          12          12          12          12          12          12          12          12          12          12
 AtmWgt=  12.0000000  12.0000000  12.0000000  12.0000000  12.0000000  12.0000000  12.0000000  12.0000000  12.0000000  12.0000000
 NucSpn=           0           0           0           0           0           0           0           0           0           0
 AtZEff=  -0.0000000  -0.0000000  -0.0000000  -0.0000000  -0.0000000  -0.0000000  -0.0000000  -0.0000000  -0.0000000  -0.0000000
 NQMom=    0.0000000   0.0000000   0.0000000   0.0000000   0.0000000   0.0000000   0.0000000   0.0000000   0.0000000   0.0000000
 NMagM=    0.0000000   0.0000000   0.0000000   0.0000000   0.0000000   0.0000000   0.0000000   0.0000000   0.0000000   0.0000000
 AtZNuc=   6.0000000   6.0000000   6.0000000   6.0000000   6.0000000   6.0000000   6.0000000   6.0000000   6.0000000   6.0000000

  Atom        31          32          33          34          35          36          37          38          39          40
 IAtWgt=          12          12          12          12          12          12          12          12          12          12
 AtmWgt=  12.0000000  12.0000000  12.0000000  12.0000000  12.0000000  12.0000000  12.0000000  12.0000000  12.0000000  12.0000000
 NucSpn=           0           0           0           0           0           0           0           0           0           0
 AtZEff=  -0.0000000  -0.0000000  -0.0000000  -0.0000000  -0.0000000  -0.0000000  -0.0000000  -0.0000000  -0.0000000  -0.0000000
 NQMom=    0.0000000   0.0000000   0.0000000   0.0000000   0.0000000   0.0000000   0.0000000   0.0000000   0.0000000   0.0000000
 NMagM=    0.0000000   0.0000000   0.0000000   0.0000000   0.0000000   0.0000000   0.0000000   0.0000000   0.0000000   0.0000000
 AtZNuc=   6.0000000   6.0000000   6.0000000   6.0000000   6.0000000   6.0000000   6.0000000   6.0000000   6.0000000   6.0000000

  Atom        41          42          43          44          45          46          47          48          49          50
 IAtWgt=          12          12          12          12          12          12          12          12          12          12
 AtmWgt=  12.0000000  12.0000000  12.0000000  12.0000000  12.0000000  12.0000000  12.0000000  12.0000000  12.0000000  12.0000000
 NucSpn=           0           0           0           0           0           0           0           0           0           0
 AtZEff=  -0.0000000  -0.0000000  -0.0000000  -0.0000000  -0.0000000  -0.0000000  -0.0000000  -0.0000000  -0.0000000  -0.0000000
 NQMom=    0.0000000   0.0000000   0.0000000   0.0000000   0.0000000   0.0000000   0.0000000   0.0000000   0.0000000   0.0000000
 NMagM=    0.0000000   0.0000000   0.0000000   0.0000000   0.0000000   0.0000000   0.0000000   0.0000000   0.0000000   0.0000000
 AtZNuc=   6.0000000   6.0000000   6.0000000   6.0000000   6.0000000   6.0000000   6.0000000   6.0000000   6.0000000   6.0000000

  Atom        51          52          53          54          55          56          57          58          59          60
 IAtWgt=          12          12          12          12          12          12          12          12          12          12
 AtmWgt=  12.0000000  12.0000000  12.0000000  12.0000000  12.0000000  12.0000000  12.0000000  12.0000000  12.0000000  12.0000000
 NucSpn=           0           0           0           0           0           0           0           0           0           0
 AtZEff=  -0.0000000  -0.0000000  -0.0000000  -0.0000000  -0.0000000  -0.0000000  -0.0000000  -0.0000000  -0.0000000  -0.0000000
 NQMom=    0.0000000   0.0000000   0.0000000   0.0000000   0.0000000   0.0000000   0.0000000   0.0000000   0.0000000   0.0000000
 NMagM=    0.0000000   0.0000000   0.0000000   0.0000000   0.0000000   0.0000000   0.0000000   0.0000000   0.0000000   0.0000000
 AtZNuc=   6.0000000   6.0000000   6.0000000   6.0000000   6.0000000   6.0000000   6.0000000   6.0000000   6.0000000   6.0000000

  Atom        61          62          63          64          65          66          67          68          69          70
 IAtWgt=          12          12          12          12          12          12          12          12          12          12
 AtmWgt=  12.0000000  12.0000000  12.0000000  12.0000000  12.0000000  12.0000000  12.0000000  12.0000000  12.0000000  12.0000000
 NucSpn=           0           0           0           0           0           0           0           0           0           0
 AtZEff=  -0.0000000  -0.0000000  -0.0000000  -0.0000000  -0.0000000  -0.0000000  -0.0000000  -0.0000000  -0.0000000  -0.0000000
 NQMom=    0.0000000   0.0000000   0.0000000   0.0000000   0.0000000   0.0000000   0.0000000   0.0000000   0.0000000   0.0000000
 NMagM=    0.0000000   0.0000000   0.0000000   0.0000000   0.0000000   0.0000000   0.0000000   0.0000000   0.0000000   0.0000000
 AtZNuc=   6.0000000   6.0000000   6.0000000   6.0000000   6.0000000   6.0000000   6.0000000   6.0000000   6.0000000   6.0000000

  Atom        71          72          73          74          75          76          77          78          79          80
 IAtWgt=          12          12          12          12          12          12          12          12          12          12
 AtmWgt=  12.0000000  12.0000000  12.0000000  12.0000000  12.0000000  12.0000000  12.0000000  12.0000000  12.0000000  12.0000000
 NucSpn=           0           0           0           0           0           0           0           0           0           0
 AtZEff=  -0.0000000  -0.0000000  -0.0000000  -0.0000000  -0.0000000  -0.0000000  -0.0000000  -0.0000000  -0.0000000  -0.0000000
 NQMom=    0.0000000   0.0000000   0.0000000   0.0000000   0.0000000   0.0000000   0.0000000   0.0000000   0.0000000   0.0000000
 NMagM=    0.0000000   0.0000000   0.0000000   0.0000000   0.0000000   0.0000000   0.0000000   0.0000000   0.0000000   0.0000000
 AtZNuc=   6.0000000   6.0000000   6.0000000   6.0000000   6.0000000   6.0000000   6.0000000   6.0000000   6.0000000   6.0000000

  Atom        81          82          83          84          85          86          87          88          89          90
 IAtWgt=          12          12          12          12          35          35          35          35          35          35
 AtmWgt=  12.0000000  12.0000000  12.0000000  12.0000000  34.9688527  34.9688527  34.9688527  34.9688527  34.9688527  34.9688527
 NucSpn=           0           0           0           0           3           3           3           3           3           3
 AtZEff=  -0.0000000  -0.0000000  -0.0000000  -0.0000000  -0.0000000  -0.0000000  -0.0000000  -0.0000000  -0.0000000  -0.0000000
 NQMom=    0.0000000   0.0000000   0.0000000   0.0000000  -8.1650000  -8.1650000  -8.1650000  -8.1650000  -8.1650000  -8.1650000
 NMagM=    0.0000000   0.0000000   0.0000000   0.0000000   0.8218740   0.8218740   0.8218740   0.8218740   0.8218740   0.8218740
 AtZNuc=   6.0000000   6.0000000   6.0000000   6.0000000  17.0000000  17.0000000  17.0000000  17.0000000  17.0000000  17.0000000

  Atom        91          92          93          94          95          96          97          98          99         100
 IAtWgt=          35          35          35          35          35          35          35          35          35          35
 AtmWgt=  34.9688527  34.9688527  34.9688527  34.9688527  34.9688527  34.9688527  34.9688527  34.9688527  34.9688527  34.9688527
 NucSpn=           3           3           3           3           3           3           3           3           3           3
 AtZEff=  -0.0000000  -0.0000000  -0.0000000  -0.0000000  -0.0000000  -0.0000000  -0.0000000  -0.0000000  -0.0000000  -0.0000000
 NQMom=   -8.1650000  -8.1650000  -8.1650000  -8.1650000  -8.1650000  -8.1650000  -8.1650000  -8.1650000  -8.1650000  -8.1650000
 NMagM=    0.8218740   0.8218740   0.8218740   0.8218740   0.8218740   0.8218740   0.8218740   0.8218740   0.8218740   0.8218740
 AtZNuc=  17.0000000  17.0000000  17.0000000  17.0000000  17.0000000  17.0000000  17.0000000  17.0000000  17.0000000  17.0000000

  Atom       101         102         103         104
 IAtWgt=          35          35          35          35
 AtmWgt=  34.9688527  34.9688527  34.9688527  34.9688527
 NucSpn=           3           3           3           3
 AtZEff=  -0.0000000  -0.0000000  -0.0000000  -0.0000000
 NQMom=   -8.1650000  -8.1650000  -8.1650000  -8.1650000
 NMagM=    0.8218740   0.8218740   0.8218740   0.8218740
 AtZNuc=  17.0000000  17.0000000  17.0000000  17.0000000
 Leave Link  101 at Tue Jun 28 14:06:56 2022, MaxMem=  1342177280 cpu:               6.8 elap:               0.3
 (Enter /home/mkliu/g16/l103.exe)

 GradGradGradGradGradGradGradGradGradGradGradGradGradGradGradGradGradGrad
 Berny optimization.
 Initialization pass.
                           ----------------------------
                           !    Initial Parameters    !
                           ! (Angstroms and Degrees)  !
 --------------------------                            --------------------------
 ! Name  Definition              Value          Derivative Info.                !
 --------------------------------------------------------------------------------
 ! R1    R(1,5)                  1.506          estimate D2E/DX2                !
 ! R2    R(1,17)                 1.5009         estimate D2E/DX2                !
 ! R3    R(1,25)                 1.5014         estimate D2E/DX2                !
 ! R4    R(1,98)                 1.8144         estimate D2E/DX2                !
 ! R5    R(2,6)                  1.4981         estimate D2E/DX2                !
 ! R6    R(2,43)                 1.5166         estimate D2E/DX2                !
 ! R7    R(2,44)                 1.5024         estimate D2E/DX2                !
 ! R8    R(2,93)                 1.7977         estimate D2E/DX2                !
 ! R9    R(3,7)                  1.506          estimate D2E/DX2                !
 ! R10   R(3,18)                 1.5009         estimate D2E/DX2                !
 ! R11   R(3,26)                 1.5014         estimate D2E/DX2                !
 ! R12   R(3,104)                1.8144         estimate D2E/DX2                !
 ! R13   R(4,8)                  1.4981         estimate D2E/DX2                !
 ! R14   R(4,45)                 1.5024         estimate D2E/DX2                !
 ! R15   R(4,46)                 1.5166         estimate D2E/DX2                !
 ! R16   R(4,95)                 1.7977         estimate D2E/DX2                !
 ! R17   R(5,9)                  1.4105         estimate D2E/DX2                !
 ! R18   R(5,29)                 1.3825         estimate D2E/DX2                !
 ! R19   R(6,10)                 1.368          estimate D2E/DX2                !
 ! R20   R(6,15)                 1.4009         estimate D2E/DX2                !
 ! R21   R(7,12)                 1.4105         estimate D2E/DX2                !
 ! R22   R(7,30)                 1.3825         estimate D2E/DX2                !
 ! R23   R(8,11)                 1.368          estimate D2E/DX2                !
 ! R24   R(8,16)                 1.4009         estimate D2E/DX2                !
 ! R25   R(9,13)                 1.4058         estimate D2E/DX2                !
 ! R26   R(9,35)                 1.4301         estimate D2E/DX2                !
 ! R27   R(10,49)                1.4973         estimate D2E/DX2                !
 ! R28   R(10,53)                1.3994         estimate D2E/DX2                !
 ! R29   R(11,50)                1.4973         estimate D2E/DX2                !
 ! R30   R(11,54)                1.3994         estimate D2E/DX2                !
 ! R31   R(12,14)                1.4058         estimate D2E/DX2                !
 ! R32   R(12,36)                1.4301         estimate D2E/DX2                !
 ! R33   R(13,15)                1.4508         estimate D2E/DX2                !
 ! R34   R(13,43)                1.3859         estimate D2E/DX2                !
 ! R35   R(14,16)                1.4508         estimate D2E/DX2                !
 ! R36   R(14,46)                1.3859         estimate D2E/DX2                !
 ! R37   R(15,17)                1.3905         estimate D2E/DX2                !
 ! R38   R(16,18)                1.3905         estimate D2E/DX2                !
 ! R39   R(17,19)                1.4018         estimate D2E/DX2                !
 ! R40   R(18,20)                1.4018         estimate D2E/DX2                !
 ! R41   R(19,21)                1.5022         estimate D2E/DX2                !
 ! R42   R(19,53)                1.39           estimate D2E/DX2                !
 ! R43   R(20,22)                1.5022         estimate D2E/DX2                !
 ! R44   R(20,54)                1.39           estimate D2E/DX2                !
 ! R45   R(21,23)                1.5067         estimate D2E/DX2                !
 ! R46   R(21,57)                1.5035         estimate D2E/DX2                !
 ! R47   R(21,99)                1.8042         estimate D2E/DX2                !
 ! R48   R(22,24)                1.5067         estimate D2E/DX2                !
 ! R49   R(22,58)                1.5035         estimate D2E/DX2                !
 ! R50   R(22,103)               1.8042         estimate D2E/DX2                !
 ! R51   R(23,25)                1.3222         estimate D2E/DX2                !
 ! R52   R(23,61)                1.5026         estimate D2E/DX2                !
 ! R53   R(24,26)                1.3222         estimate D2E/DX2                !
 ! R54   R(24,62)                1.5026         estimate D2E/DX2                !
 ! R55   R(25,27)                1.504          estimate D2E/DX2                !
 ! R56   R(26,28)                1.504          estimate D2E/DX2                !
 ! R57   R(27,29)                1.4931         estimate D2E/DX2                !
 ! R58   R(27,65)                1.5225         estimate D2E/DX2                !
 ! R59   R(27,85)                1.7986         estimate D2E/DX2                !
 ! R60   R(28,30)                1.4931         estimate D2E/DX2                !
 ! R61   R(28,66)                1.5225         estimate D2E/DX2                !
 ! R62   R(28,88)                1.7986         estimate D2E/DX2                !
 ! R63   R(29,31)                1.3775         estimate D2E/DX2                !
 ! R64   R(30,32)                1.3775         estimate D2E/DX2                !
 ! R65   R(31,33)                1.3928         estimate D2E/DX2                !
 ! R66   R(31,69)                1.5037         estimate D2E/DX2                !
 ! R67   R(32,34)                1.3928         estimate D2E/DX2                !
 ! R68   R(32,70)                1.5037         estimate D2E/DX2                !
 ! R69   R(33,35)                1.4168         estimate D2E/DX2                !
 ! R70   R(33,73)                1.4398         estimate D2E/DX2                !
 ! R71   R(34,36)                1.4168         estimate D2E/DX2                !
 ! R72   R(34,74)                1.4398         estimate D2E/DX2                !
 ! R73   R(35,37)                1.4293         estimate D2E/DX2                !
 ! R74   R(36,38)                1.4293         estimate D2E/DX2                !
 ! R75   R(37,39)                1.3902         estimate D2E/DX2                !
 ! R76   R(37,77)                1.5153         estimate D2E/DX2                !
 ! R77   R(38,42)                1.3902         estimate D2E/DX2                !
 ! R78   R(38,78)                1.5153         estimate D2E/DX2                !
 ! R79   R(39,43)                1.3996         estimate D2E/DX2                !
 ! R80   R(39,79)                1.5067         estimate D2E/DX2                !
 ! R81   R(40,41)                1.3875         estimate D2E/DX2                !
 ! R82   R(40,44)                1.3828         estimate D2E/DX2                !
 ! R83   R(40,79)                1.507          estimate D2E/DX2                !
 ! R84   R(41,45)                1.3828         estimate D2E/DX2                !
 ! R85   R(41,80)                1.507          estimate D2E/DX2                !
 ! R86   R(42,46)                1.3996         estimate D2E/DX2                !
 ! R87   R(42,80)                1.5067         estimate D2E/DX2                !
 ! R88   R(44,47)                1.4038         estimate D2E/DX2                !
 ! R89   R(45,48)                1.4038         estimate D2E/DX2                !
 ! R90   R(47,48)                1.3994         estimate D2E/DX2                !
 ! R91   R(47,49)                1.5176         estimate D2E/DX2                !
 ! R92   R(48,50)                1.5176         estimate D2E/DX2                !
 ! R93   R(49,51)                1.5036         estimate D2E/DX2                !
 ! R94   R(49,91)                1.801          estimate D2E/DX2                !
 ! R95   R(50,52)                1.5036         estimate D2E/DX2                !
 ! R96   R(50,92)                1.801          estimate D2E/DX2                !
 ! R97   R(51,52)                1.3242         estimate D2E/DX2                !
 ! R98   R(51,55)                1.5045         estimate D2E/DX2                !
 ! R99   R(52,56)                1.5045         estimate D2E/DX2                !
 ! R100  R(53,55)                1.5059         estimate D2E/DX2                !
 ! R101  R(54,56)                1.5059         estimate D2E/DX2                !
 ! R102  R(55,83)                1.5014         estimate D2E/DX2                !
 ! R103  R(55,101)               1.8059         estimate D2E/DX2                !
 ! R104  R(56,84)                1.5014         estimate D2E/DX2                !
 ! R105  R(56,102)               1.8059         estimate D2E/DX2                !
 ! R106  R(57,59)                1.3926         estimate D2E/DX2                !
 ! R107  R(57,83)                1.3873         estimate D2E/DX2                !
 ! R108  R(58,60)                1.3926         estimate D2E/DX2                !
 ! R109  R(58,84)                1.3873         estimate D2E/DX2                !
 ! R110  R(59,60)                1.3665         estimate D2E/DX2                !
 ! R111  R(59,61)                1.4912         estimate D2E/DX2                !
 ! R112  R(60,62)                1.4912         estimate D2E/DX2                !
 ! R113  R(61,63)                1.5219         estimate D2E/DX2                !
 ! R114  R(61,89)                1.7991         estimate D2E/DX2                !
 ! R115  R(62,64)                1.5219         estimate D2E/DX2                !
 ! R116  R(62,90)                1.7991         estimate D2E/DX2                !
 ! R117  R(63,64)                1.4026         estimate D2E/DX2                !
 ! R118  R(63,65)                1.397          estimate D2E/DX2                !
 ! R119  R(64,66)                1.397          estimate D2E/DX2                !
 ! R120  R(65,67)                1.4046         estimate D2E/DX2                !
 ! R121  R(66,68)                1.4046         estimate D2E/DX2                !
 ! R122  R(67,68)                1.402          estimate D2E/DX2                !
 ! R123  R(67,69)                1.5278         estimate D2E/DX2                !
 ! R124  R(68,70)                1.5278         estimate D2E/DX2                !
 ! R125  R(69,71)                1.5021         estimate D2E/DX2                !
 ! R126  R(69,86)                1.7947         estimate D2E/DX2                !
 ! R127  R(70,72)                1.5021         estimate D2E/DX2                !
 ! R128  R(70,87)                1.7947         estimate D2E/DX2                !
 ! R129  R(71,72)                1.3644         estimate D2E/DX2                !
 ! R130  R(71,73)                1.4138         estimate D2E/DX2                !
 ! R131  R(72,74)                1.4138         estimate D2E/DX2                !
 ! R132  R(73,75)                1.3797         estimate D2E/DX2                !
 ! R133  R(74,76)                1.3797         estimate D2E/DX2                !
 ! R134  R(75,76)                1.3945         estimate D2E/DX2                !
 ! R135  R(75,77)                1.4965         estimate D2E/DX2                !
 ! R136  R(76,78)                1.4965         estimate D2E/DX2                !
 ! R137  R(77,81)                1.5079         estimate D2E/DX2                !
 ! R138  R(77,97)                1.814          estimate D2E/DX2                !
 ! R139  R(78,81)                1.5079         estimate D2E/DX2                !
 ! R140  R(78,100)               1.814          estimate D2E/DX2                !
 ! R141  R(79,82)                1.5014         estimate D2E/DX2                !
 ! R142  R(79,94)                1.8026         estimate D2E/DX2                !
 ! R143  R(80,82)                1.5014         estimate D2E/DX2                !
 ! R144  R(80,96)                1.8026         estimate D2E/DX2                !
 ! R145  R(81,82)                1.3228         estimate D2E/DX2                !
 ! R146  R(83,84)                1.4039         estimate D2E/DX2                !
 ! A1    A(5,1,17)             112.4574         estimate D2E/DX2                !
 ! A2    A(5,1,25)             100.6914         estimate D2E/DX2                !
 ! A3    A(5,1,98)             111.0271         estimate D2E/DX2                !
 ! A4    A(17,1,25)            111.1171         estimate D2E/DX2                !
 ! A5    A(17,1,98)            109.3702         estimate D2E/DX2                !
 ! A6    A(25,1,98)            111.9925         estimate D2E/DX2                !
 ! A7    A(6,2,43)             101.1669         estimate D2E/DX2                !
 ! A8    A(6,2,44)             109.0483         estimate D2E/DX2                !
 ! A9    A(6,2,93)             113.689          estimate D2E/DX2                !
 ! A10   A(43,2,44)            109.5364         estimate D2E/DX2                !
 ! A11   A(43,2,93)            112.5286         estimate D2E/DX2                !
 ! A12   A(44,2,93)            110.4672         estimate D2E/DX2                !
 ! A13   A(7,3,18)             112.4574         estimate D2E/DX2                !
 ! A14   A(7,3,26)             100.6911         estimate D2E/DX2                !
 ! A15   A(7,3,104)            111.0269         estimate D2E/DX2                !
 ! A16   A(18,3,26)            111.1171         estimate D2E/DX2                !
 ! A17   A(18,3,104)           109.3705         estimate D2E/DX2                !
 ! A18   A(26,3,104)           111.9927         estimate D2E/DX2                !
 ! A19   A(8,4,45)             109.0482         estimate D2E/DX2                !
 ! A20   A(8,4,46)             101.1667         estimate D2E/DX2                !
 ! A21   A(8,4,95)             113.6888         estimate D2E/DX2                !
 ! A22   A(45,4,46)            109.5368         estimate D2E/DX2                !
 ! A23   A(45,4,95)            110.4671         estimate D2E/DX2                !
 ! A24   A(46,4,95)            112.5287         estimate D2E/DX2                !
 ! A25   A(1,5,9)              124.7236         estimate D2E/DX2                !
 ! A26   A(1,5,29)             110.1587         estimate D2E/DX2                !
 ! A27   A(9,5,29)             120.2808         estimate D2E/DX2                !
 ! A28   A(2,6,10)             122.866          estimate D2E/DX2                !
 ! A29   A(2,6,15)             111.0063         estimate D2E/DX2                !
 ! A30   A(10,6,15)            119.2896         estimate D2E/DX2                !
 ! A31   A(3,7,12)             124.7235         estimate D2E/DX2                !
 ! A32   A(3,7,30)             110.159          estimate D2E/DX2                !
 ! A33   A(12,7,30)            120.2807         estimate D2E/DX2                !
 ! A34   A(4,8,11)             122.8661         estimate D2E/DX2                !
 ! A35   A(4,8,16)             111.0064         estimate D2E/DX2                !
 ! A36   A(11,8,16)            119.2896         estimate D2E/DX2                !
 ! A37   A(5,9,13)             116.5226         estimate D2E/DX2                !
 ! A38   A(5,9,35)             120.5058         estimate D2E/DX2                !
 ! A39   A(13,9,35)            117.9001         estimate D2E/DX2                !
 ! A40   A(6,10,49)            122.4005         estimate D2E/DX2                !
 ! A41   A(6,10,53)            119.6848         estimate D2E/DX2                !
 ! A42   A(49,10,53)           112.5816         estimate D2E/DX2                !
 ! A43   A(8,11,50)            122.4007         estimate D2E/DX2                !
 ! A44   A(8,11,54)            119.6847         estimate D2E/DX2                !
 ! A45   A(50,11,54)           112.5816         estimate D2E/DX2                !
 ! A46   A(7,12,14)            116.5225         estimate D2E/DX2                !
 ! A47   A(7,12,36)            120.5057         estimate D2E/DX2                !
 ! A48   A(14,12,36)           117.9002         estimate D2E/DX2                !
 ! A49   A(9,13,15)            120.8412         estimate D2E/DX2                !
 ! A50   A(9,13,43)            121.4909         estimate D2E/DX2                !
 ! A51   A(15,13,43)           109.1989         estimate D2E/DX2                !
 ! A52   A(12,14,16)           120.8413         estimate D2E/DX2                !
 ! A53   A(12,14,46)           121.4909         estimate D2E/DX2                !
 ! A54   A(16,14,46)           109.1988         estimate D2E/DX2                !
 ! A55   A(6,15,13)            107.5028         estimate D2E/DX2                !
 ! A56   A(6,15,17)            121.7979         estimate D2E/DX2                !
 ! A57   A(13,15,17)           122.7766         estimate D2E/DX2                !
 ! A58   A(8,16,14)            107.5028         estimate D2E/DX2                !
 ! A59   A(8,16,18)            121.7978         estimate D2E/DX2                !
 ! A60   A(14,16,18)           122.7766         estimate D2E/DX2                !
 ! A61   A(1,17,15)            117.0752         estimate D2E/DX2                !
 ! A62   A(1,17,19)            122.1391         estimate D2E/DX2                !
 ! A63   A(15,17,19)           118.5687         estimate D2E/DX2                !
 ! A64   A(3,18,16)            117.0751         estimate D2E/DX2                !
 ! A65   A(3,18,20)            122.1393         estimate D2E/DX2                !
 ! A66   A(16,18,20)           118.5686         estimate D2E/DX2                !
 ! A67   A(17,19,21)           120.5602         estimate D2E/DX2                !
 ! A68   A(17,19,53)           119.2829         estimate D2E/DX2                !
 ! A69   A(21,19,53)           117.8404         estimate D2E/DX2                !
 ! A70   A(18,20,22)           120.5601         estimate D2E/DX2                !
 ! A71   A(18,20,54)           119.283          estimate D2E/DX2                !
 ! A72   A(22,20,54)           117.8404         estimate D2E/DX2                !
 ! A73   A(19,21,23)           111.3194         estimate D2E/DX2                !
 ! A74   A(19,21,57)           109.9585         estimate D2E/DX2                !
 ! A75   A(19,21,99)           110.4869         estimate D2E/DX2                !
 ! A76   A(23,21,57)           100.7395         estimate D2E/DX2                !
 ! A77   A(23,21,99)           112.0717         estimate D2E/DX2                !
 ! A78   A(57,21,99)           111.9223         estimate D2E/DX2                !
 ! A79   A(20,22,24)           111.3194         estimate D2E/DX2                !
 ! A80   A(20,22,58)           109.9585         estimate D2E/DX2                !
 ! A81   A(20,22,103)          110.4868         estimate D2E/DX2                !
 ! A82   A(24,22,58)           100.7396         estimate D2E/DX2                !
 ! A83   A(24,22,103)          112.0717         estimate D2E/DX2                !
 ! A84   A(58,22,103)          111.9224         estimate D2E/DX2                !
 ! A85   A(21,23,25)           123.3826         estimate D2E/DX2                !
 ! A86   A(21,23,61)           112.4642         estimate D2E/DX2                !
 ! A87   A(25,23,61)           120.9007         estimate D2E/DX2                !
 ! A88   A(22,24,26)           123.3828         estimate D2E/DX2                !
 ! A89   A(22,24,62)           112.4641         estimate D2E/DX2                !
 ! A90   A(26,24,62)           120.9007         estimate D2E/DX2                !
 ! A91   A(1,25,23)            122.7798         estimate D2E/DX2                !
 ! A92   A(1,25,27)            112.3197         estimate D2E/DX2                !
 ! A93   A(23,25,27)           121.6301         estimate D2E/DX2                !
 ! A94   A(3,26,24)            122.7797         estimate D2E/DX2                !
 ! A95   A(3,26,28)            112.3198         estimate D2E/DX2                !
 ! A96   A(24,26,28)           121.6298         estimate D2E/DX2                !
 ! A97   A(25,27,29)           100.508          estimate D2E/DX2                !
 ! A98   A(25,27,65)           111.3475         estimate D2E/DX2                !
 ! A99   A(25,27,85)           112.5401         estimate D2E/DX2                !
 ! A100  A(29,27,65)           108.4485         estimate D2E/DX2                !
 ! A101  A(29,27,85)           114.4181         estimate D2E/DX2                !
 ! A102  A(65,27,85)           109.3094         estimate D2E/DX2                !
 ! A103  A(26,28,30)           100.5082         estimate D2E/DX2                !
 ! A104  A(26,28,66)           111.3476         estimate D2E/DX2                !
 ! A105  A(26,28,88)           112.5405         estimate D2E/DX2                !
 ! A106  A(30,28,66)           108.4477         estimate D2E/DX2                !
 ! A107  A(30,28,88)           114.418          estimate D2E/DX2                !
 ! A108  A(66,28,88)           109.3096         estimate D2E/DX2                !
 ! A109  A(5,29,27)            112.933          estimate D2E/DX2                !
 ! A110  A(5,29,31)            120.1276         estimate D2E/DX2                !
 ! A111  A(27,29,31)           121.3759         estimate D2E/DX2                !
 ! A112  A(7,30,28)            112.9327         estimate D2E/DX2                !
 ! A113  A(7,30,32)            120.1278         estimate D2E/DX2                !
 ! A114  A(28,30,32)           121.3761         estimate D2E/DX2                !
 ! A115  A(29,31,33)           120.1813         estimate D2E/DX2                !
 ! A116  A(29,31,69)           121.0478         estimate D2E/DX2                !
 ! A117  A(33,31,69)           111.9973         estimate D2E/DX2                !
 ! A118  A(30,32,34)           120.1812         estimate D2E/DX2                !
 ! A119  A(30,32,70)           121.048          estimate D2E/DX2                !
 ! A120  A(34,32,70)           111.9972         estimate D2E/DX2                !
 ! A121  A(31,33,35)           121.7396         estimate D2E/DX2                !
 ! A122  A(31,33,73)           107.8539         estimate D2E/DX2                !
 ! A123  A(35,33,73)           121.0945         estimate D2E/DX2                !
 ! A124  A(32,34,36)           121.7394         estimate D2E/DX2                !
 ! A125  A(32,34,74)           107.8538         estimate D2E/DX2                !
 ! A126  A(36,34,74)           121.0947         estimate D2E/DX2                !
 ! A127  A(9,35,33)            116.0968         estimate D2E/DX2                !
 ! A128  A(9,35,37)            119.8427         estimate D2E/DX2                !
 ! A129  A(33,35,37)           119.5834         estimate D2E/DX2                !
 ! A130  A(12,36,34)           116.097          estimate D2E/DX2                !
 ! A131  A(12,36,38)           119.8424         estimate D2E/DX2                !
 ! A132  A(34,36,38)           119.5835         estimate D2E/DX2                !
 ! A133  A(35,37,39)           120.0515         estimate D2E/DX2                !
 ! A134  A(35,37,77)           120.0011         estimate D2E/DX2                !
 ! A135  A(39,37,77)           118.6617         estimate D2E/DX2                !
 ! A136  A(36,38,42)           120.0516         estimate D2E/DX2                !
 ! A137  A(36,38,78)           120.0012         estimate D2E/DX2                !
 ! A138  A(42,38,78)           118.6615         estimate D2E/DX2                !
 ! A139  A(37,39,43)           119.712          estimate D2E/DX2                !
 ! A140  A(37,39,79)           122.4723         estimate D2E/DX2                !
 ! A141  A(43,39,79)           115.6975         estimate D2E/DX2                !
 ! A142  A(41,40,44)           120.6885         estimate D2E/DX2                !
 ! A143  A(41,40,79)           111.4217         estimate D2E/DX2                !
 ! A144  A(44,40,79)           125.7533         estimate D2E/DX2                !
 ! A145  A(40,41,45)           120.6883         estimate D2E/DX2                !
 ! A146  A(40,41,80)           111.4219         estimate D2E/DX2                !
 ! A147  A(45,41,80)           125.7532         estimate D2E/DX2                !
 ! A148  A(38,42,46)           119.7121         estimate D2E/DX2                !
 ! A149  A(38,42,80)           122.4726         estimate D2E/DX2                !
 ! A150  A(46,42,80)           115.6972         estimate D2E/DX2                !
 ! A151  A(2,43,13)            109.8817         estimate D2E/DX2                !
 ! A152  A(2,43,39)            124.9094         estimate D2E/DX2                !
 ! A153  A(13,43,39)           120.8237         estimate D2E/DX2                !
 ! A154  A(2,44,40)            116.0112         estimate D2E/DX2                !
 ! A155  A(2,44,47)            123.4582         estimate D2E/DX2                !
 ! A156  A(40,44,47)           119.3785         estimate D2E/DX2                !
 ! A157  A(4,45,41)            116.0108         estimate D2E/DX2                !
 ! A158  A(4,45,48)            123.4583         estimate D2E/DX2                !
 ! A159  A(41,45,48)           119.3785         estimate D2E/DX2                !
 ! A160  A(4,46,14)            109.8819         estimate D2E/DX2                !
 ! A161  A(4,46,42)            124.9094         estimate D2E/DX2                !
 ! A162  A(14,46,42)           120.8236         estimate D2E/DX2                !
 ! A163  A(44,47,48)           119.9026         estimate D2E/DX2                !
 ! A164  A(44,47,49)           119.5379         estimate D2E/DX2                !
 ! A165  A(48,47,49)           119.9032         estimate D2E/DX2                !
 ! A166  A(45,48,47)           119.9028         estimate D2E/DX2                !
 ! A167  A(45,48,50)           119.5379         estimate D2E/DX2                !
 ! A168  A(47,48,50)           119.903          estimate D2E/DX2                !
 ! A169  A(10,49,47)           109.0997         estimate D2E/DX2                !
 ! A170  A(10,49,51)           100.6523         estimate D2E/DX2                !
 ! A171  A(10,49,91)           113.6851         estimate D2E/DX2                !
 ! A172  A(47,49,51)           111.4509         estimate D2E/DX2                !
 ! A173  A(47,49,91)           109.0904         estimate D2E/DX2                !
 ! A174  A(51,49,91)           112.647          estimate D2E/DX2                !
 ! A175  A(11,50,48)           109.0995         estimate D2E/DX2                !
 ! A176  A(11,50,52)           100.6524         estimate D2E/DX2                !
 ! A177  A(11,50,92)           113.6853         estimate D2E/DX2                !
 ! A178  A(48,50,52)           111.451          estimate D2E/DX2                !
 ! A179  A(48,50,92)           109.0903         estimate D2E/DX2                !
 ! A180  A(52,50,92)           112.647          estimate D2E/DX2                !
 ! A181  A(49,51,52)           121.8835         estimate D2E/DX2                !
 ! A182  A(49,51,55)           111.985          estimate D2E/DX2                !
 ! A183  A(52,51,55)           123.1008         estimate D2E/DX2                !
 ! A184  A(50,52,51)           121.8836         estimate D2E/DX2                !
 ! A185  A(50,52,56)           111.9849         estimate D2E/DX2                !
 ! A186  A(51,52,56)           123.1008         estimate D2E/DX2                !
 ! A187  A(10,53,19)           121.3265         estimate D2E/DX2                !
 ! A188  A(10,53,55)           109.9525         estimate D2E/DX2                !
 ! A189  A(19,53,55)           125.2438         estimate D2E/DX2                !
 ! A190  A(11,54,20)           121.3265         estimate D2E/DX2                !
 ! A191  A(11,54,56)           109.9525         estimate D2E/DX2                !
 ! A192  A(20,54,56)           125.2439         estimate D2E/DX2                !
 ! A193  A(51,55,53)           101.0822         estimate D2E/DX2                !
 ! A194  A(51,55,83)           111.0198         estimate D2E/DX2                !
 ! A195  A(51,55,101)          112.1241         estimate D2E/DX2                !
 ! A196  A(53,55,83)           110.311          estimate D2E/DX2                !
 ! A197  A(53,55,101)          111.7746         estimate D2E/DX2                !
 ! A198  A(83,55,101)          110.2392         estimate D2E/DX2                !
 ! A199  A(52,56,54)           101.0823         estimate D2E/DX2                !
 ! A200  A(52,56,84)           111.0198         estimate D2E/DX2                !
 ! A201  A(52,56,102)          112.1241         estimate D2E/DX2                !
 ! A202  A(54,56,84)           110.3109         estimate D2E/DX2                !
 ! A203  A(54,56,102)          111.7746         estimate D2E/DX2                !
 ! A204  A(84,56,102)          110.2392         estimate D2E/DX2                !
 ! A205  A(21,57,59)           109.9522         estimate D2E/DX2                !
 ! A206  A(21,57,83)           125.8211         estimate D2E/DX2                !
 ! A207  A(59,57,83)           120.7196         estimate D2E/DX2                !
 ! A208  A(22,58,60)           109.9521         estimate D2E/DX2                !
 ! A209  A(22,58,84)           125.8212         estimate D2E/DX2                !
 ! A210  A(60,58,84)           120.7196         estimate D2E/DX2                !
 ! A211  A(57,59,60)           119.9924         estimate D2E/DX2                !
 ! A212  A(57,59,61)           113.2811         estimate D2E/DX2                !
 ! A213  A(60,59,61)           121.7595         estimate D2E/DX2                !
 ! A214  A(58,60,59)           119.9925         estimate D2E/DX2                !
 ! A215  A(58,60,62)           113.2811         estimate D2E/DX2                !
 ! A216  A(59,60,62)           121.7593         estimate D2E/DX2                !
 ! A217  A(23,61,59)           100.1855         estimate D2E/DX2                !
 ! A218  A(23,61,63)           111.6127         estimate D2E/DX2                !
 ! A219  A(23,61,89)           113.0703         estimate D2E/DX2                !
 ! A220  A(59,61,63)           108.6573         estimate D2E/DX2                !
 ! A221  A(59,61,89)           113.9969         estimate D2E/DX2                !
 ! A222  A(63,61,89)           109.0605         estimate D2E/DX2                !
 ! A223  A(24,62,60)           100.1855         estimate D2E/DX2                !
 ! A224  A(24,62,64)           111.6128         estimate D2E/DX2                !
 ! A225  A(24,62,90)           113.0702         estimate D2E/DX2                !
 ! A226  A(60,62,64)           108.6572         estimate D2E/DX2                !
 ! A227  A(60,62,90)           113.997          estimate D2E/DX2                !
 ! A228  A(64,62,90)           109.0605         estimate D2E/DX2                !
 ! A229  A(61,63,64)           120.2579         estimate D2E/DX2                !
 ! A230  A(61,63,65)           119.4974         estimate D2E/DX2                !
 ! A231  A(64,63,65)           119.9277         estimate D2E/DX2                !
 ! A232  A(62,64,63)           120.2581         estimate D2E/DX2                !
 ! A233  A(62,64,66)           119.4973         estimate D2E/DX2                !
 ! A234  A(63,64,66)           119.9277         estimate D2E/DX2                !
 ! A235  A(27,65,63)           118.9244         estimate D2E/DX2                !
 ! A236  A(27,65,67)           120.4493         estimate D2E/DX2                !
 ! A237  A(63,65,67)           120.3034         estimate D2E/DX2                !
 ! A238  A(28,66,64)           118.9243         estimate D2E/DX2                !
 ! A239  A(28,66,68)           120.4495         estimate D2E/DX2                !
 ! A240  A(64,66,68)           120.3034         estimate D2E/DX2                !
 ! A241  A(65,67,68)           119.7645         estimate D2E/DX2                !
 ! A242  A(65,67,69)           119.5659         estimate D2E/DX2                !
 ! A243  A(68,67,69)           120.4646         estimate D2E/DX2                !
 ! A244  A(66,68,67)           119.7645         estimate D2E/DX2                !
 ! A245  A(66,68,70)           119.5661         estimate D2E/DX2                !
 ! A246  A(67,68,70)           120.4645         estimate D2E/DX2                !
 ! A247  A(31,69,67)           108.1871         estimate D2E/DX2                !
 ! A248  A(31,69,71)           100.7892         estimate D2E/DX2                !
 ! A249  A(31,69,86)           114.6081         estimate D2E/DX2                !
 ! A250  A(67,69,71)           110.3391         estimate D2E/DX2                !
 ! A251  A(67,69,86)           108.7529         estimate D2E/DX2                !
 ! A252  A(71,69,86)           113.8627         estimate D2E/DX2                !
 ! A253  A(32,70,68)           108.1867         estimate D2E/DX2                !
 ! A254  A(32,70,72)           100.7896         estimate D2E/DX2                !
 ! A255  A(32,70,87)           114.6081         estimate D2E/DX2                !
 ! A256  A(68,70,72)           110.3392         estimate D2E/DX2                !
 ! A257  A(68,70,87)           108.7529         estimate D2E/DX2                !
 ! A258  A(72,70,87)           113.8629         estimate D2E/DX2                !
 ! A259  A(69,71,72)           121.8828         estimate D2E/DX2                !
 ! A260  A(69,71,73)           110.6682         estimate D2E/DX2                !
 ! A261  A(72,71,73)           119.0755         estimate D2E/DX2                !
 ! A262  A(70,72,71)           121.8829         estimate D2E/DX2                !
 ! A263  A(70,72,74)           110.6679         estimate D2E/DX2                !
 ! A264  A(71,72,74)           119.075          estimate D2E/DX2                !
 ! A265  A(33,73,71)           108.3668         estimate D2E/DX2                !
 ! A266  A(33,73,75)           119.9775         estimate D2E/DX2                !
 ! A267  A(71,73,75)           121.7282         estimate D2E/DX2                !
 ! A268  A(34,74,72)           108.367          estimate D2E/DX2                !
 ! A269  A(34,74,76)           119.9769         estimate D2E/DX2                !
 ! A270  A(72,74,76)           121.7284         estimate D2E/DX2                !
 ! A271  A(73,75,76)           119.1481         estimate D2E/DX2                !
 ! A272  A(73,75,77)           122.0547         estimate D2E/DX2                !
 ! A273  A(76,75,77)           111.8699         estimate D2E/DX2                !
 ! A274  A(74,76,75)           119.1481         estimate D2E/DX2                !
 ! A275  A(74,76,78)           122.0553         estimate D2E/DX2                !
 ! A276  A(75,76,78)           111.8692         estimate D2E/DX2                !
 ! A277  A(37,77,75)           112.653          estimate D2E/DX2                !
 ! A278  A(37,77,81)           111.5968         estimate D2E/DX2                !
 ! A279  A(37,77,97)           108.3765         estimate D2E/DX2                !
 ! A280  A(75,77,81)           100.7143         estimate D2E/DX2                !
 ! A281  A(75,77,97)           112.0664         estimate D2E/DX2                !
 ! A282  A(81,77,97)           111.353          estimate D2E/DX2                !
 ! A283  A(38,78,76)           112.6525         estimate D2E/DX2                !
 ! A284  A(38,78,81)           111.5968         estimate D2E/DX2                !
 ! A285  A(38,78,100)          108.3765         estimate D2E/DX2                !
 ! A286  A(76,78,81)           100.7146         estimate D2E/DX2                !
 ! A287  A(76,78,100)          112.0662         estimate D2E/DX2                !
 ! A288  A(81,78,100)          111.3534         estimate D2E/DX2                !
 ! A289  A(39,79,40)           109.055          estimate D2E/DX2                !
 ! A290  A(39,79,82)           112.2771         estimate D2E/DX2                !
 ! A291  A(39,79,94)           110.5262         estimate D2E/DX2                !
 ! A292  A(40,79,82)           100.1324         estimate D2E/DX2                !
 ! A293  A(40,79,94)           111.953          estimate D2E/DX2                !
 ! A294  A(82,79,94)           112.479          estimate D2E/DX2                !
 ! A295  A(41,80,42)           109.0554         estimate D2E/DX2                !
 ! A296  A(41,80,82)           100.1323         estimate D2E/DX2                !
 ! A297  A(41,80,96)           111.9531         estimate D2E/DX2                !
 ! A298  A(42,80,82)           112.277          estimate D2E/DX2                !
 ! A299  A(42,80,96)           110.5262         estimate D2E/DX2                !
 ! A300  A(82,80,96)           112.4786         estimate D2E/DX2                !
 ! A301  A(77,81,78)           112.6265         estimate D2E/DX2                !
 ! A302  A(77,81,82)           122.476          estimate D2E/DX2                !
 ! A303  A(78,81,82)           122.4761         estimate D2E/DX2                !
 ! A304  A(79,82,80)           111.9191         estimate D2E/DX2                !
 ! A305  A(79,82,81)           122.1829         estimate D2E/DX2                !
 ! A306  A(80,82,81)           122.1828         estimate D2E/DX2                !
 ! A307  A(55,83,57)           117.4838         estimate D2E/DX2                !
 ! A308  A(55,83,84)           121.3785         estimate D2E/DX2                !
 ! A309  A(57,83,84)           119.2317         estimate D2E/DX2                !
 ! A310  A(56,84,58)           117.4837         estimate D2E/DX2                !
 ! A311  A(56,84,83)           121.3787         estimate D2E/DX2                !
 ! A312  A(58,84,83)           119.2316         estimate D2E/DX2                !
 ! D1    D(17,1,5,9)            19.9055         estimate D2E/DX2                !
 ! D2    D(17,1,5,29)         -135.3186         estimate D2E/DX2                !
 ! D3    D(25,1,5,9)           138.2495         estimate D2E/DX2                !
 ! D4    D(25,1,5,29)          -16.9746         estimate D2E/DX2                !
 ! D5    D(98,1,5,9)          -103.0087         estimate D2E/DX2                !
 ! D6    D(98,1,5,29)          101.7672         estimate D2E/DX2                !
 ! D7    D(5,1,17,15)          -27.4044         estimate D2E/DX2                !
 ! D8    D(5,1,17,19)          135.4218         estimate D2E/DX2                !
 ! D9    D(25,1,17,15)        -139.4183         estimate D2E/DX2                !
 ! D10   D(25,1,17,19)          23.4079         estimate D2E/DX2                !
 ! D11   D(98,1,17,15)          96.4351         estimate D2E/DX2                !
 ! D12   D(98,1,17,19)        -100.7387         estimate D2E/DX2                !
 ! D13   D(5,1,25,23)         -141.4704         estimate D2E/DX2                !
 ! D14   D(5,1,25,27)           18.3551         estimate D2E/DX2                !
 ! D15   D(17,1,25,23)         -22.1531         estimate D2E/DX2                !
 ! D16   D(17,1,25,27)         137.6724         estimate D2E/DX2                !
 ! D17   D(98,1,25,23)         100.4918         estimate D2E/DX2                !
 ! D18   D(98,1,25,27)         -99.6827         estimate D2E/DX2                !
 ! D19   D(43,2,6,10)         -141.1909         estimate D2E/DX2                !
 ! D20   D(43,2,6,15)            9.5016         estimate D2E/DX2                !
 ! D21   D(44,2,6,10)          -25.8019         estimate D2E/DX2                !
 ! D22   D(44,2,6,15)          124.8906         estimate D2E/DX2                !
 ! D23   D(93,2,6,10)           97.9397         estimate D2E/DX2                !
 ! D24   D(93,2,6,15)         -111.3677         estimate D2E/DX2                !
 ! D25   D(6,2,43,13)          -11.1979         estimate D2E/DX2                !
 ! D26   D(6,2,43,39)          145.2651         estimate D2E/DX2                !
 ! D27   D(44,2,43,13)        -126.2239         estimate D2E/DX2                !
 ! D28   D(44,2,43,39)          30.239          estimate D2E/DX2                !
 ! D29   D(93,2,43,13)         110.4866         estimate D2E/DX2                !
 ! D30   D(93,2,43,39)         -93.0504         estimate D2E/DX2                !
 ! D31   D(6,2,44,40)         -143.9683         estimate D2E/DX2                !
 ! D32   D(6,2,44,47)           23.656          estimate D2E/DX2                !
 ! D33   D(43,2,44,40)         -34.0965         estimate D2E/DX2                !
 ! D34   D(43,2,44,47)         133.5278         estimate D2E/DX2                !
 ! D35   D(93,2,44,40)          90.4015         estimate D2E/DX2                !
 ! D36   D(93,2,44,47)        -101.9742         estimate D2E/DX2                !
 ! D37   D(18,3,7,12)          -19.9063         estimate D2E/DX2                !
 ! D38   D(18,3,7,30)          135.3183         estimate D2E/DX2                !
 ! D39   D(26,3,7,12)         -138.25           estimate D2E/DX2                !
 ! D40   D(26,3,7,30)           16.9745         estimate D2E/DX2                !
 ! D41   D(104,3,7,12)         103.0082         estimate D2E/DX2                !
 ! D42   D(104,3,7,30)        -101.7672         estimate D2E/DX2                !
 ! D43   D(7,3,18,16)           27.4049         estimate D2E/DX2                !
 ! D44   D(7,3,18,20)         -135.4212         estimate D2E/DX2                !
 ! D45   D(26,3,18,16)         139.4184         estimate D2E/DX2                !
 ! D46   D(26,3,18,20)         -23.4077         estimate D2E/DX2                !
 ! D47   D(104,3,18,16)        -96.4346         estimate D2E/DX2                !
 ! D48   D(104,3,18,20)        100.7393         estimate D2E/DX2                !
 ! D49   D(7,3,26,24)          141.4697         estimate D2E/DX2                !
 ! D50   D(7,3,26,28)          -18.3548         estimate D2E/DX2                !
 ! D51   D(18,3,26,24)          22.1526         estimate D2E/DX2                !
 ! D52   D(18,3,26,28)        -137.6719         estimate D2E/DX2                !
 ! D53   D(104,3,26,24)       -100.4928         estimate D2E/DX2                !
 ! D54   D(104,3,26,28)         99.6826         estimate D2E/DX2                !
 ! D55   D(45,4,8,11)           25.8017         estimate D2E/DX2                !
 ! D56   D(45,4,8,16)         -124.8913         estimate D2E/DX2                !
 ! D57   D(46,4,8,11)          141.191          estimate D2E/DX2                !
 ! D58   D(46,4,8,16)           -9.502          estimate D2E/DX2                !
 ! D59   D(95,4,8,11)          -97.9396         estimate D2E/DX2                !
 ! D60   D(95,4,8,16)          111.3674         estimate D2E/DX2                !
 ! D61   D(8,4,45,41)          143.9678         estimate D2E/DX2                !
 ! D62   D(8,4,45,48)          -23.6553         estimate D2E/DX2                !
 ! D63   D(46,4,45,41)          34.0961         estimate D2E/DX2                !
 ! D64   D(46,4,45,48)        -133.5269         estimate D2E/DX2                !
 ! D65   D(95,4,45,41)         -90.4024         estimate D2E/DX2                !
 ! D66   D(95,4,45,48)         101.9746         estimate D2E/DX2                !
 ! D67   D(8,4,46,14)           11.1981         estimate D2E/DX2                !
 ! D68   D(8,4,46,42)         -145.2649         estimate D2E/DX2                !
 ! D69   D(45,4,46,14)         126.224          estimate D2E/DX2                !
 ! D70   D(45,4,46,42)         -30.2389         estimate D2E/DX2                !
 ! D71   D(95,4,46,14)        -110.4862         estimate D2E/DX2                !
 ! D72   D(95,4,46,42)          93.0508         estimate D2E/DX2                !
 ! D73   D(1,5,9,13)            -2.8746         estimate D2E/DX2                !
 ! D74   D(1,5,9,35)          -157.1689         estimate D2E/DX2                !
 ! D75   D(29,5,9,13)          150.0249         estimate D2E/DX2                !
 ! D76   D(29,5,9,35)           -4.2694         estimate D2E/DX2                !
 ! D77   D(1,5,29,27)           10.3513         estimate D2E/DX2                !
 ! D78   D(1,5,29,31)          164.3998         estimate D2E/DX2                !
 ! D79   D(9,5,29,27)         -146.142          estimate D2E/DX2                !
 ! D80   D(9,5,29,31)            7.9065         estimate D2E/DX2                !
 ! D81   D(2,6,10,49)           -1.7356         estimate D2E/DX2                !
 ! D82   D(2,6,10,53)          150.5489         estimate D2E/DX2                !
 ! D83   D(15,6,10,49)        -150.1383         estimate D2E/DX2                !
 ! D84   D(15,6,10,53)           2.1463         estimate D2E/DX2                !
 ! D85   D(2,6,15,13)           -4.692          estimate D2E/DX2                !
 ! D86   D(2,6,15,17)         -154.3922         estimate D2E/DX2                !
 ! D87   D(10,6,15,13)         147.1818         estimate D2E/DX2                !
 ! D88   D(10,6,15,17)          -2.5184         estimate D2E/DX2                !
 ! D89   D(3,7,12,14)            2.8752         estimate D2E/DX2                !
 ! D90   D(3,7,12,36)          157.1695         estimate D2E/DX2                !
 ! D91   D(30,7,12,14)        -150.025          estimate D2E/DX2                !
 ! D92   D(30,7,12,36)           4.2693         estimate D2E/DX2                !
 ! D93   D(3,7,30,28)          -10.3514         estimate D2E/DX2                !
 ! D94   D(3,7,30,32)         -164.4003         estimate D2E/DX2                !
 ! D95   D(12,7,30,28)         146.1423         estimate D2E/DX2                !
 ! D96   D(12,7,30,32)          -7.9066         estimate D2E/DX2                !
 ! D97   D(4,8,11,50)            1.7355         estimate D2E/DX2                !
 ! D98   D(4,8,11,54)         -150.5492         estimate D2E/DX2                !
 ! D99   D(16,8,11,50)         150.1386         estimate D2E/DX2                !
 ! D100  D(16,8,11,54)          -2.1461         estimate D2E/DX2                !
 ! D101  D(4,8,16,14)            4.6924         estimate D2E/DX2                !
 ! D102  D(4,8,16,18)          154.3925         estimate D2E/DX2                !
 ! D103  D(11,8,16,14)        -147.1818         estimate D2E/DX2                !
 ! D104  D(11,8,16,18)           2.5182         estimate D2E/DX2                !
 ! D105  D(5,9,13,15)           -7.13           estimate D2E/DX2                !
 ! D106  D(5,9,13,43)         -151.7104         estimate D2E/DX2                !
 ! D107  D(35,9,13,15)         147.8548         estimate D2E/DX2                !
 ! D108  D(35,9,13,43)           3.2744         estimate D2E/DX2                !
 ! D109  D(5,9,35,33)           -4.8961         estimate D2E/DX2                !
 ! D110  D(5,9,35,37)          151.2793         estimate D2E/DX2                !
 ! D111  D(13,9,35,33)        -158.8468         estimate D2E/DX2                !
 ! D112  D(13,9,35,37)          -2.6714         estimate D2E/DX2                !
 ! D113  D(6,10,49,47)          30.9329         estimate D2E/DX2                !
 ! D114  D(6,10,49,51)         148.2507         estimate D2E/DX2                !
 ! D115  D(6,10,49,91)         -91.0621         estimate D2E/DX2                !
 ! D116  D(53,10,49,47)       -123.1166         estimate D2E/DX2                !
 ! D117  D(53,10,49,51)         -5.7988         estimate D2E/DX2                !
 ! D118  D(53,10,49,91)        114.8884         estimate D2E/DX2                !
 ! D119  D(6,10,53,19)          -1.361          estimate D2E/DX2                !
 ! D120  D(6,10,53,55)        -161.351          estimate D2E/DX2                !
 ! D121  D(49,10,53,19)        153.4704         estimate D2E/DX2                !
 ! D122  D(49,10,53,55)         -6.5196         estimate D2E/DX2                !
 ! D123  D(8,11,50,48)         -30.9328         estimate D2E/DX2                !
 ! D124  D(8,11,50,52)        -148.2506         estimate D2E/DX2                !
 ! D125  D(8,11,50,92)          91.0621         estimate D2E/DX2                !
 ! D126  D(54,11,50,48)        123.1168         estimate D2E/DX2                !
 ! D127  D(54,11,50,52)          5.799          estimate D2E/DX2                !
 ! D128  D(54,11,50,92)       -114.8883         estimate D2E/DX2                !
 ! D129  D(8,11,54,20)           1.3608         estimate D2E/DX2                !
 ! D130  D(8,11,54,56)         161.351          estimate D2E/DX2                !
 ! D131  D(50,11,54,20)       -153.4708         estimate D2E/DX2                !
 ! D132  D(50,11,54,56)          6.5194         estimate D2E/DX2                !
 ! D133  D(7,12,14,16)           7.1299         estimate D2E/DX2                !
 ! D134  D(7,12,14,46)         151.7102         estimate D2E/DX2                !
 ! D135  D(36,12,14,16)       -147.8548         estimate D2E/DX2                !
 ! D136  D(36,12,14,46)         -3.2744         estimate D2E/DX2                !
 ! D137  D(7,12,36,34)           4.8963         estimate D2E/DX2                !
 ! D138  D(7,12,36,38)        -151.2792         estimate D2E/DX2                !
 ! D139  D(14,12,36,34)        158.8469         estimate D2E/DX2                !
 ! D140  D(14,12,36,38)          2.6714         estimate D2E/DX2                !
 ! D141  D(9,13,15,6)         -151.289          estimate D2E/DX2                !
 ! D142  D(9,13,15,17)          -1.9528         estimate D2E/DX2                !
 ! D143  D(43,13,15,6)          -2.8435         estimate D2E/DX2                !
 ! D144  D(43,13,15,17)        146.4927         estimate D2E/DX2                !
 ! D145  D(9,13,43,2)          157.3509         estimate D2E/DX2                !
 ! D146  D(9,13,43,39)          -0.2317         estimate D2E/DX2                !
 ! D147  D(15,13,43,2)           9.1479         estimate D2E/DX2                !
 ! D148  D(15,13,43,39)       -148.4347         estimate D2E/DX2                !
 ! D149  D(12,14,16,8)         151.2887         estimate D2E/DX2                !
 ! D150  D(12,14,16,18)          1.9526         estimate D2E/DX2                !
 ! D151  D(46,14,16,8)           2.8432         estimate D2E/DX2                !
 ! D152  D(46,14,16,18)       -146.4929         estimate D2E/DX2                !
 ! D153  D(12,14,46,4)        -157.3509         estimate D2E/DX2                !
 ! D154  D(12,14,46,42)          0.2318         estimate D2E/DX2                !
 ! D155  D(16,14,46,4)          -9.1478         estimate D2E/DX2                !
 ! D156  D(16,14,46,42)        148.4349         estimate D2E/DX2                !
 ! D157  D(6,15,17,1)          165.4436         estimate D2E/DX2                !
 ! D158  D(6,15,17,19)           1.9837         estimate D2E/DX2                !
 ! D159  D(13,15,17,1)          20.353          estimate D2E/DX2                !
 ! D160  D(13,15,17,19)       -143.107          estimate D2E/DX2                !
 ! D161  D(8,16,18,3)         -165.4435         estimate D2E/DX2                !
 ! D162  D(8,16,18,20)          -1.9836         estimate D2E/DX2                !
 ! D163  D(14,16,18,3)         -20.3531         estimate D2E/DX2                !
 ! D164  D(14,16,18,20)        143.1068         estimate D2E/DX2                !
 ! D165  D(1,17,19,21)          -1.354          estimate D2E/DX2                !
 ! D166  D(1,17,19,53)        -163.7032         estimate D2E/DX2                !
 ! D167  D(15,17,19,21)        161.2268         estimate D2E/DX2                !
 ! D168  D(15,17,19,53)         -1.1225         estimate D2E/DX2                !
 ! D169  D(3,18,20,22)           1.3539         estimate D2E/DX2                !
 ! D170  D(3,18,20,54)         163.7031         estimate D2E/DX2                !
 ! D171  D(16,18,20,22)       -161.2267         estimate D2E/DX2                !
 ! D172  D(16,18,20,54)          1.1225         estimate D2E/DX2                !
 ! D173  D(17,19,21,23)        -22.0616         estimate D2E/DX2                !
 ! D174  D(17,19,21,57)       -132.827          estimate D2E/DX2                !
 ! D175  D(17,19,21,99)        103.1376         estimate D2E/DX2                !
 ! D176  D(53,19,21,23)        140.5356         estimate D2E/DX2                !
 ! D177  D(53,19,21,57)         29.7702         estimate D2E/DX2                !
 ! D178  D(53,19,21,99)        -94.2652         estimate D2E/DX2                !
 ! D179  D(17,19,53,10)          0.8334         estimate D2E/DX2                !
 ! D180  D(17,19,53,55)        157.6402         estimate D2E/DX2                !
 ! D181  D(21,19,53,10)       -161.9927         estimate D2E/DX2                !
 ! D182  D(21,19,53,55)         -5.1859         estimate D2E/DX2                !
 ! D183  D(18,20,22,24)         22.0617         estimate D2E/DX2                !
 ! D184  D(18,20,22,58)        132.8272         estimate D2E/DX2                !
 ! D185  D(18,20,22,103)      -103.1374         estimate D2E/DX2                !
 ! D186  D(54,20,22,24)       -140.5355         estimate D2E/DX2                !
 ! D187  D(54,20,22,58)        -29.7701         estimate D2E/DX2                !
 ! D188  D(54,20,22,103)        94.2654         estimate D2E/DX2                !
 ! D189  D(18,20,54,11)         -0.8333         estimate D2E/DX2                !
 ! D190  D(18,20,54,56)       -157.6403         estimate D2E/DX2                !
 ! D191  D(22,20,54,11)        161.9927         estimate D2E/DX2                !
 ! D192  D(22,20,54,56)          5.1857         estimate D2E/DX2                !
 ! D193  D(19,21,23,25)         24.2332         estimate D2E/DX2                !
 ! D194  D(19,21,23,61)       -135.4823         estimate D2E/DX2                !
 ! D195  D(57,21,23,25)        140.7825         estimate D2E/DX2                !
 ! D196  D(57,21,23,61)        -18.933          estimate D2E/DX2                !
 ! D197  D(99,21,23,25)       -100.0764         estimate D2E/DX2                !
 ! D198  D(99,21,23,61)        100.2081         estimate D2E/DX2                !
 ! D199  D(19,21,57,59)        132.9646         estimate D2E/DX2                !
 ! D200  D(19,21,57,83)        -25.8249         estimate D2E/DX2                !
 ! D201  D(23,21,57,59)         15.4114         estimate D2E/DX2                !
 ! D202  D(23,21,57,83)       -143.378          estimate D2E/DX2                !
 ! D203  D(99,21,57,59)       -103.8377         estimate D2E/DX2                !
 ! D204  D(99,21,57,83)         97.3728         estimate D2E/DX2                !
 ! D205  D(20,22,24,26)        -24.2336         estimate D2E/DX2                !
 ! D206  D(20,22,24,62)        135.4823         estimate D2E/DX2                !
 ! D207  D(58,22,24,26)       -140.783          estimate D2E/DX2                !
 ! D208  D(58,22,24,62)         18.933          estimate D2E/DX2                !
 ! D209  D(103,22,24,26)       100.0757         estimate D2E/DX2                !
 ! D210  D(103,22,24,62)      -100.2083         estimate D2E/DX2                !
 ! D211  D(20,22,58,60)       -132.9647         estimate D2E/DX2                !
 ! D212  D(20,22,58,84)         25.8249         estimate D2E/DX2                !
 ! D213  D(24,22,58,60)        -15.4116         estimate D2E/DX2                !
 ! D214  D(24,22,58,84)        143.378          estimate D2E/DX2                !
 ! D215  D(103,22,58,60)       103.8377         estimate D2E/DX2                !
 ! D216  D(103,22,58,84)       -97.3728         estimate D2E/DX2                !
 ! D217  D(21,23,25,1)          -1.7221         estimate D2E/DX2                !
 ! D218  D(21,23,25,27)       -159.7162         estimate D2E/DX2                !
 ! D219  D(61,23,25,1)         156.3541         estimate D2E/DX2                !
 ! D220  D(61,23,25,27)         -1.6399         estimate D2E/DX2                !
 ! D221  D(21,23,61,59)         14.9257         estimate D2E/DX2                !
 ! D222  D(21,23,61,63)        129.8101         estimate D2E/DX2                !
 ! D223  D(21,23,61,89)       -106.7858         estimate D2E/DX2                !
 ! D224  D(25,23,61,59)       -145.3575         estimate D2E/DX2                !
 ! D225  D(25,23,61,63)        -30.4731         estimate D2E/DX2                !
 ! D226  D(25,23,61,89)         92.931          estimate D2E/DX2                !
 ! D227  D(22,24,26,3)           1.7228         estimate D2E/DX2                !
 ! D228  D(22,24,26,28)        159.7158         estimate D2E/DX2                !
 ! D229  D(62,24,26,3)        -156.354          estimate D2E/DX2                !
 ! D230  D(62,24,26,28)          1.6391         estimate D2E/DX2                !
 ! D231  D(22,24,62,60)        -14.9255         estimate D2E/DX2                !
 ! D232  D(22,24,62,64)       -129.8099         estimate D2E/DX2                !
 ! D233  D(22,24,62,90)        106.7861         estimate D2E/DX2                !
 ! D234  D(26,24,62,60)        145.3582         estimate D2E/DX2                !
 ! D235  D(26,24,62,64)         30.4738         estimate D2E/DX2                !
 ! D236  D(26,24,62,90)        -92.9303         estimate D2E/DX2                !
 ! D237  D(1,25,27,29)         -12.8436         estimate D2E/DX2                !
 ! D238  D(1,25,27,65)        -127.5553         estimate D2E/DX2                !
 ! D239  D(1,25,27,85)         109.3105         estimate D2E/DX2                !
 ! D240  D(23,25,27,29)        147.2461         estimate D2E/DX2                !
[...]
 Alpha virt. eigenvalues --    1.65645   1.65706   1.65798   1.66129   1.66149
 Alpha virt. eigenvalues --    1.66455   1.66791   1.66804   1.67306   1.67395
 Alpha virt. eigenvalues --    1.67557   1.67792   1.67813   1.68025   1.68080
 Alpha virt. eigenvalues --    1.68689   1.68863   1.68958   1.69162   1.69222
 Alpha virt. eigenvalues --    1.69744   1.69958   1.70096   1.70285   1.70776
 Alpha virt. eigenvalues --    1.70791   1.71003   1.71143   1.71521   1.71693
 Alpha virt. eigenvalues --    1.71697   1.72031   1.72101   1.72179   1.72439
 Alpha virt. eigenvalues --    1.72673   1.72992   1.73639   1.74002   1.74174
 Alpha virt. eigenvalues --    1.74302   1.74838   1.74907   1.74939   1.75235
 Alpha virt. eigenvalues --    1.75268   1.75419   1.75654   1.76054   1.76308
 Alpha virt. eigenvalues --    1.76316   1.76415   1.77084   1.77100   1.77247
 Alpha virt. eigenvalues --    1.77755   1.77920   1.77984   1.78136   1.78753
 Alpha virt. eigenvalues --    1.79133   1.79449   1.79461   1.79724   1.79843
 Alpha virt. eigenvalues --    1.79894   1.80203   1.80499   1.80630   1.80725
 Alpha virt. eigenvalues --    1.81158   1.81240   1.81295   1.81619   1.81732
 Alpha virt. eigenvalues --    1.81947   1.82306   1.82376   1.82858   1.82920
 Alpha virt. eigenvalues --    1.83003   1.83491   1.83755   1.84028   1.84100
 Alpha virt. eigenvalues --    1.84341   1.84403   1.84812   1.85013   1.85122
 Alpha virt. eigenvalues --    1.85404   1.85820   1.85823   1.86501   1.86600
 Alpha virt. eigenvalues --    1.87048   1.87571   1.87881   1.87906   1.88121
 Alpha virt. eigenvalues --    1.88157   1.88975   1.89345   1.89436   1.90112
 Alpha virt. eigenvalues --    1.90281   1.90881   1.91178   1.91908   1.92222
 Alpha virt. eigenvalues --    1.92517   1.92854   1.93120   1.93151   1.93512
 Alpha virt. eigenvalues --    1.93953   1.93995   1.94576   1.94716   1.94755
 Alpha virt. eigenvalues --    1.94980   1.95555   1.95898   1.97022   1.97472
 Alpha virt. eigenvalues --    1.97596   1.97897   1.97952   1.98087   1.98244
 Alpha virt. eigenvalues --    1.99027   1.99505   1.99715   2.00169   2.00304
 Alpha virt. eigenvalues --    2.00361   2.01023   2.01487   2.01661   2.01901
 Alpha virt. eigenvalues --    2.02772   2.03207   2.03569   2.03708   2.03953
 Alpha virt. eigenvalues --    2.04296   2.04728   2.04805   2.05151   2.05644
 Alpha virt. eigenvalues --    2.06180   2.06610   2.07001   2.07176   2.07380
 Alpha virt. eigenvalues --    2.07598   2.07926   2.08648   2.08862   2.09769
 Alpha virt. eigenvalues --    2.09905   2.10261   2.10582   2.10843   2.11262
 Alpha virt. eigenvalues --    2.11281   2.12522   2.12580   2.12826   2.12923
 Alpha virt. eigenvalues --    2.13738   2.14008   2.14080   2.15180   2.15298
 Alpha virt. eigenvalues --    2.15717   2.16246   2.16364   2.16594   2.17192
 Alpha virt. eigenvalues --    2.17698   2.17719   2.18520   2.18797   2.18999
 Alpha virt. eigenvalues --    2.19052   2.19498   2.20014   2.20190   2.20735
 Alpha virt. eigenvalues --    2.20939   2.21304   2.21644   2.22226   2.22759
 Alpha virt. eigenvalues --    2.22765   2.23419   2.24056   2.24342   2.24637
 Alpha virt. eigenvalues --    2.25024   2.25364   2.25709   2.26085   2.26988
 Alpha virt. eigenvalues --    2.27153   2.27384   2.27876   2.27903   2.28257
 Alpha virt. eigenvalues --    2.28785   2.29166   2.29839   2.30330   2.30720
 Alpha virt. eigenvalues --    2.31157   2.31543   2.32487   2.32553   2.32792
 Alpha virt. eigenvalues --    2.32985   2.33610   2.34759   2.35397   2.36329
 Alpha virt. eigenvalues --    2.36487   2.37043   2.37271   2.38094   2.38281
 Alpha virt. eigenvalues --    2.38564   2.38802   2.38916   2.39482   2.39527
 Alpha virt. eigenvalues --    2.40334   2.41223   2.41228   2.42197   2.42261
 Alpha virt. eigenvalues --    2.43304   2.43328   2.43782   2.43978   2.45026
 Alpha virt. eigenvalues --    2.45174   2.46298   2.46298   2.46394   2.47071
 Alpha virt. eigenvalues --    2.47508   2.47645   2.48528   2.48554   2.48643
 Alpha virt. eigenvalues --    2.49722   2.50028   2.50385   2.50767   2.51184
 Alpha virt. eigenvalues --    2.51553   2.51874   2.52183   2.52689   2.53304
 Alpha virt. eigenvalues --    2.53517   2.53961   2.54198   2.54572   2.54912
 Alpha virt. eigenvalues --    2.55546   2.56205   2.56329   2.56690   2.56862
 Alpha virt. eigenvalues --    2.57060   2.57533   2.57656   2.58071   2.58524
 Alpha virt. eigenvalues --    2.58625   2.59204   2.59379   2.60112   2.60152
 Alpha virt. eigenvalues --    2.60700   2.61052   2.61101   2.61476   2.62084
 Alpha virt. eigenvalues --    2.62200   2.62712   2.63311   2.63618   2.63998
 Alpha virt. eigenvalues --    2.64788   2.64927   2.65612   2.65783   2.66204
 Alpha virt. eigenvalues --    2.66302   2.66453   2.66847   2.67313   2.67729
 Alpha virt. eigenvalues --    2.68415   2.68780   2.68974   2.69335   2.69765
 Alpha virt. eigenvalues --    2.69788   2.70013   2.70084   2.70989   2.71363
 Alpha virt. eigenvalues --    2.71503   2.71818   2.71969   2.72356   2.72364
 Alpha virt. eigenvalues --    2.73296   2.73622   2.74457   2.74803   2.75289
 Alpha virt. eigenvalues --    2.75427   2.75564   2.75697   2.75935   2.76294
 Alpha virt. eigenvalues --    2.76581   2.77300   2.77418   2.77848   2.77928
 Alpha virt. eigenvalues --    2.78897   2.79247   2.79638   2.80505   2.80630
 Alpha virt. eigenvalues --    2.81263   2.81595   2.81834   2.81864   2.82140
 Alpha virt. eigenvalues --    2.83207   2.83221   2.84242   2.84412   2.85111
 Alpha virt. eigenvalues --    2.85629   2.85978   2.86435   2.86922   2.87927
 Alpha virt. eigenvalues --    2.88028   2.88684   2.88963   2.89517   2.90863
 Alpha virt. eigenvalues --    2.91116   2.91682   2.92821   2.93340   2.93360
 Alpha virt. eigenvalues --    2.94341   2.95544   2.95928   2.96096   2.96280
 Alpha virt. eigenvalues --    2.98515   2.99413   3.00898   3.01631   3.04464
 Alpha virt. eigenvalues --    3.06227   3.06500   3.07292   3.07619   3.08980
 Alpha virt. eigenvalues --    3.09047   3.09357   3.10684   3.11706   3.14753
 Alpha virt. eigenvalues --    3.15665   3.16281   3.16401   3.17618   3.18034
 Alpha virt. eigenvalues --    3.19013   3.22005   3.22410   3.24208   3.25667
 Alpha virt. eigenvalues --    3.28068   3.28820   3.30926   3.32258   3.34405
 Alpha virt. eigenvalues --    3.34595   3.37661   3.40795   3.41292   3.42501
 Alpha virt. eigenvalues --    3.45187   3.46689   3.47518   3.51449   4.01028
 Alpha virt. eigenvalues --    4.01975   4.02828   4.03129   4.04359   4.05562
 Alpha virt. eigenvalues --    4.05755   4.07132   4.07616   4.07936   4.08290
 Alpha virt. eigenvalues --    4.09317   4.09318   4.10181   4.11284   4.11680
 Alpha virt. eigenvalues --    4.12411   4.12812   4.14792   4.15106   4.15986
 Alpha virt. eigenvalues --    4.16757   4.17132   4.17379   4.18424   4.18856
 Alpha virt. eigenvalues --    4.19334   4.20329   4.20452   4.20911   4.21619
 Alpha virt. eigenvalues --    4.22549   4.23614   4.24604   4.24747   4.25244
 Alpha virt. eigenvalues --    4.25303   4.25713   4.26955   4.26965   4.27170
 Alpha virt. eigenvalues --    4.27537   4.27565   4.28176   4.29189   4.29295
 Alpha virt. eigenvalues --    4.29342   4.29515   4.30077   4.30279   4.31253
 Alpha virt. eigenvalues --    4.33017   4.34223   4.35103   4.35944   4.36853
 Alpha virt. eigenvalues --    4.36980   4.38606   4.38763   4.39213   4.40421
 Alpha virt. eigenvalues --    4.40835   4.41292   4.41740   4.42167   4.42419
 Alpha virt. eigenvalues --    4.43354   4.44481   4.45297   4.46108   4.46348
 Alpha virt. eigenvalues --    4.47742   4.49183   4.50011   4.51854   4.53895
 Alpha virt. eigenvalues --    4.54001   4.56269   4.56542   4.57486   4.58504
 Alpha virt. eigenvalues --    4.59941   4.62926   4.64527   4.65891   4.68398
 Alpha virt. eigenvalues --    4.68632   4.69196   4.73816   4.77412   4.79234
 Alpha virt. eigenvalues --    4.80539   4.81373   4.81561   4.85714   4.86521
 Alpha virt. eigenvalues --    4.93658   4.95885   4.97159   4.98616   5.03366
 Alpha virt. eigenvalues --    5.04732   5.13153   5.19260
          Condensed to atoms (all electrons):
 Mulliken charges:
               1
     1  C   -0.361390
     2  C   -0.396231
     3  C   -0.361390
     4  C   -0.396231
     5  C    0.077655
     6  C    0.084552
     7  C    0.077655
     8  C    0.084552
     9  C    0.059827
    10  C    0.131727
    11  C    0.131727
    12  C    0.059827
    13  C   -0.015906
    14  C   -0.015906
    15  C    0.044887
    16  C    0.044887
    17  C    0.119014
    18  C    0.119014
    19  C    0.150305
    20  C    0.150305
    21  C   -0.386019
    22  C   -0.386019
    23  C    0.182325
    24  C    0.182325
    25  C    0.185431
    26  C    0.185431
    27  C   -0.371386
    28  C   -0.371386
    29  C    0.134618
    30  C    0.134618
    31  C    0.087322
    32  C    0.087322
    33  C   -0.010656
    34  C   -0.010656
    35  C    0.067692
    36  C    0.067692
    37  C    0.091156
    38  C    0.091156
    39  C    0.151773
    40  C    0.113736
    41  C    0.113736
    42  C    0.151773
    43  C    0.087587
    44  C    0.151116
    45  C    0.151116
    46  C    0.087587
    47  C    0.121979
    48  C    0.121979
    49  C   -0.375945
    50  C   -0.375945
    51  C    0.180959
    52  C    0.180959
    53  C    0.105300
    54  C    0.105300
    55  C   -0.380623
    56  C   -0.380623
    57  C    0.111499
    58  C    0.111499
    59  C    0.123015
    60  C    0.123015
    61  C   -0.375200
    62  C   -0.375200
    63  C    0.128089
    64  C    0.128089
    65  C    0.124874
    66  C    0.124874
    67  C    0.124254
    68  C    0.124254
    69  C   -0.380198
    70  C   -0.380199
    71  C    0.095893
    72  C    0.095893
    73  C    0.033127
    74  C    0.033127
    75  C    0.103670
    76  C    0.103670
    77  C   -0.352346
    78  C   -0.352346
    79  C   -0.379371
    80  C   -0.379371
    81  C    0.176862
    82  C    0.187919
    83  C    0.143482
    84  C    0.143482
    85  Cl   0.035615
    86  Cl   0.034628
    87  Cl   0.034628
    88  Cl   0.035615
    89  Cl   0.036998
    90  Cl   0.036997
    91  Cl   0.033984
    92  Cl   0.033984
    93  Cl   0.035617
    94  Cl   0.034337
    95  Cl   0.035617
    96  Cl   0.034337
    97  Cl   0.009444
    98  Cl   0.007326
    99  Cl   0.029417
   100  Cl   0.009444
   101  Cl   0.028652
   102  Cl   0.028652
   103  Cl   0.029417
   104  Cl   0.007326
 Sum of Mulliken charges =  -0.00000
 Mulliken charges with hydrogens summed into heavy atoms:
               1
     1  C   -0.361390
     2  C   -0.396231
     3  C   -0.361390
     4  C   -0.396231
     5  C    0.077655
     6  C    0.084552
     7  C    0.077655
     8  C    0.084552
     9  C    0.059827
    10  C    0.131727
    11  C    0.131727
    12  C    0.059827
    13  C   -0.015906
    14  C   -0.015906
    15  C    0.044887
    16  C    0.044887
    17  C    0.119014
    18  C    0.119014
    19  C    0.150305
    20  C    0.150305
    21  C   -0.386019
    22  C   -0.386019
    23  C    0.182325
    24  C    0.182325
    25  C    0.185431
    26  C    0.185431
    27  C   -0.371386
    28  C   -0.371386
    29  C    0.134618
    30  C    0.134618
    31  C    0.087322
    32  C    0.087322
    33  C   -0.010656
    34  C   -0.010656
    35  C    0.067692
    36  C    0.067692
    37  C    0.091156
    38  C    0.091156
    39  C    0.151773
    40  C    0.113736
    41  C    0.113736
    42  C    0.151773
    43  C    0.087587
    44  C    0.151116
    45  C    0.151116
    46  C    0.087587
    47  C    0.121979
    48  C    0.121979
    49  C   -0.375945
    50  C   -0.375945
    51  C    0.180959
    52  C    0.180959
    53  C    0.105300
    54  C    0.105300
    55  C   -0.380623
    56  C   -0.380623
    57  C    0.111499
    58  C    0.111499
    59  C    0.123015
    60  C    0.123015
    61  C   -0.375200
    62  C   -0.375200
    63  C    0.128089
    64  C    0.128089
    65  C    0.124874
    66  C    0.124874
    67  C    0.124254
    68  C    0.124254
    69  C   -0.380198
    70  C   -0.380199
    71  C    0.095893
    72  C    0.095893
    73  C    0.033127
    74  C    0.033127
    75  C    0.103670
    76  C    0.103670
    77  C   -0.352346
    78  C   -0.352346
    79  C   -0.379371
    80  C   -0.379371
    81  C    0.176862
    82  C    0.187919
    83  C    0.143482
    84  C    0.143482
    85  Cl   0.035615
    86  Cl   0.034628
    87  Cl   0.034628
    88  Cl   0.035615
    89  Cl   0.036998
    90  Cl   0.036997
    91  Cl   0.033984
    92  Cl   0.033984
    93  Cl   0.035617
    94  Cl   0.034337
    95  Cl   0.035617
    96  Cl   0.034337
    97  Cl   0.009444
    98  Cl   0.007326
    99  Cl   0.029417
   100  Cl   0.009444
   101  Cl   0.028652
   102  Cl   0.028652
   103  Cl   0.029417
   104  Cl   0.007326
 Electronic spatial extent (au):  <R**2>=          81728.0224
 Charge=             -0.0000 electrons
 Dipole moment (field-independent basis, Debye):
    X=             -1.5459    Y=             -1.9439    Z=              0.0000  Tot=              2.4837
 Quadrupole moment (field-independent basis, Debye-Ang):
   XX=           -766.1403   YY=           -746.9719   ZZ=           -739.6024
   XY=              2.6295   XZ=              0.0000   YZ=             -0.0000
 Traceless Quadrupole moment (field-independent basis, Debye-Ang):
   XX=            -15.2355   YY=              3.9330   ZZ=             11.3024
   XY=              2.6295   XZ=              0.0000   YZ=             -0.0000
 Octapole moment (field-independent basis, Debye-Ang**2):
  XXX=             88.8538  YYY=            -20.0695  ZZZ=              0.0001  XYY=              6.0967
  XXY=             52.3681  XXZ=             -0.0000  XZZ=            -60.8867  YZZ=             -4.2750
  YYZ=             -0.0000  XYZ=              0.0000
 Hexadecapole moment (field-independent basis, Debye-Ang**3):
 XXXX=         -40967.1224 YYYY=         -38976.5025 ZZZZ=         -33687.5386 XXXY=           -357.8310
 XXXZ=             -0.0000 YYYX=           -130.6486 YYYZ=             -0.0000 ZZZX=              0.0002
 ZZZY=             -0.0000 XXYY=         -13315.7059 XXZZ=         -12521.5640 YYZZ=         -12014.7759
 XXYZ=             -0.0000 YYXZ=             -0.0000 ZZXY=              4.5951
 N-N= 3.228587406584D+04 E-N=-9.383092341377D+04  KE= 1.234703164703D+04
 Leave Link  601 at Tue Jun 28 16:03:08 2022, MaxMem=  1342177280 cpu:              53.0 elap:               2.6
 (Enter /home/mkliu/g16/l9999.exe)
 1\1\GINC-NODE02\FOpt\RB3LYP\6-31G(d,p)\C84Cl20\MKLIU\28-Jun-2022\0\\#P
  opt b3lyp/6-31G(d, p) empiricaldispersion=GD3\\force\\0,1\C,8.2245654
 841,18.6220935469,10.6028307904\C,12.4756921532,19.9957122555,8.907894
 1938\C,8.2233041462,27.1276089503,10.6084327993\C,12.4748377112,25.757
 4848321,8.9116890719\C,7.9522143603,18.9474432243,9.148793315\C,11.864
 3469594,19.5769277478,10.2228421172\C,7.9510492737,26.8040940726,9.153
 9679155\C,11.8633686104,26.1743555386,10.2271873719\C,8.9583735002,19.
 1252930025,8.1573649876\C,12.1192258374,20.2347882173,11.4020624189\C,
 12.1184428115,25.5150179292,11.405540137\C,8.9572609268,26.6278487966,
 8.162306378\C,10.2979321121,19.0631566895,8.5967226764\C,10.2968011456
 ,26.6898035712,8.6017458048\C,10.6166594659,18.9734261315,10.025847013
 1\C,10.6155021425,26.7777460393,10.0309871584\C,9.6329822012,18.977861
 3063,11.0204389287\C,9.6318264347,26.7717089965,11.0255721745\C,9.9006
 966796,19.6458365433,12.2325975472\C,9.8997392354,26.102217069,12.2368
 499058\C,8.7682381921,20.0547412325,13.1490165528\C,8.7674022673,25.69
 17697281,13.1527292729\C,7.4491623608,20.152123358,12.4072690396\C,7.4
 483552106,25.5949735572,12.4108538878\C,7.2002831679,19.5000437953,11.
 2812241691\C,7.1992824483,26.2484619231,11.2856688564\C,6.1085873683,1
 9.9395080415,10.3295100008\C,6.1077168399,25.8099279804,10.3333764098\
 C,6.716641405,19.5533542405,9.0111794391\C,6.7156560619,26.1979983971,
 9.0155557892\C,6.3884327904,20.2140297679,7.8387059656\C,6.3876432,25.
 5387705447,7.8422130014\C,7.3195861172,20.3180725272,6.8069665601\C,7.
 3188271335,25.4363631078,6.8103376247\C,8.6695705353,19.8787314596,6.9
 663738822\C,8.668681222,25.8758941982,6.9703237867\C,9.7299240413,20.5
 914121326,6.2969139774\C,9.7292459071,25.1644104873,6.299925872\C,11.0
 265868115,20.5581219057,6.8187198255\C,12.6506723745,22.1820819244,7.7
 661976536\C,12.6504661555,23.5726729684,7.7671135375\C,11.0258988419,2
 5.1973979014,6.8217753759\C,11.3073657861,19.7578411903,7.9439995503\C
 ,12.8286011349,21.467495504,8.9472137461\C,12.8281831883,24.285755812,
 8.949069934\C,11.3064406641,25.9962788863,7.9481083579\C,13.0540166639
 ,22.1703908849,10.1515871605\C,13.0538074205,23.581341458,10.152516455
 2\C,13.0607996951,21.408642627,11.4810472293\C,13.0603647945,24.341339
 8004,11.4829787851\C,12.4225125271,22.2103095596,12.594849782\C,12.422
 3156253,23.5380171284,12.5957242423\C,11.1456983764,20.2594925697,12.4
 114720864\C,11.1449229256,25.4886952191,12.4149161916\C,11.4279369679,
 21.3860207594,13.385466985\C,11.4274957976,24.3609687582,13.3874263677
 \C,8.9455213576,21.4887739652,13.6013398176\C,8.9451108186,24.25719503
 49,13.6031631593\C,7.7462212677,22.1859742778,13.4704717796\C,7.746017
 5314,23.5598120527,13.4713766066\C,6.6733417822,21.3945284824,12.78171
 85933\C,6.672903234,24.351846193,12.7836663671\C,6.1787022853,22.16667
 80174,11.5461532147\C,6.1784925069,23.5811782336,11.5470848543\C,5.896
 9393106,21.4644396976,10.3610239557\C,5.8965210595,24.2848934434,10.36
 2881582\C,5.597941432,22.168731335,9.1688237703\C,5.5977318783,23.5820
 841923,9.1697546454\C,5.4295973336,21.3909066706,7.8454692559\C,5.4291
 568488,24.3616014165,7.8474258688\C,5.9514628594,22.1928588296,6.67124
 87575\C,5.9512599887,23.5613515087,6.6721501363\C,7.0057628572,21.5006
 534112,6.0277359328\C,7.0053544949,24.2547166619,6.0295498867\C,8.0078
 583604,22.1782104472,5.3554559063\C,8.0076507411,23.5783429983,5.35637
 80879\C,9.396966505,21.6162028306,5.2117488908\C,9.3965920906,24.14095
 14188,5.2134117391\C,12.0532705432,21.6278357534,6.4837466645\C,12.052
 8997228,24.1284307687,6.4853936193\C,10.2318357737,22.8786125369,5.346
 8154025\C,11.4317126318,22.8784192975,5.9103787658\C,10.1665656626,22.
 168850503,13.6793905087\C,10.1663567815,23.577378454,13.6803181984\Cl,
 4.5248552295,19.0701016853,10.674077733\Cl,3.6744808745,20.9126174131,
 7.6164745774\Cl,3.6738985933,24.8396714547,7.6190611071\Cl,4.523727028
 9,26.6784100125,10.679088786\Cl,5.2561393794,21.0105018035,13.89058791
 28\Cl,5.2555872483,24.7339915327,13.8930403896\Cl,14.7820771715,20.900
 9650691,11.8911343582\Cl,14.7814917115,24.8489871806,11.8937346167\Cl,
 13.947189972,18.9825488481,8.4821862143\Cl,13.3490585589,20.9448382233
 ,5.3654391217\Cl,13.9460349374,26.7716444745,8.4873163234\Cl,13.348484
 9216,24.813285053,5.3679870038\Cl,9.6283895475,20.8284146772,3.5459637
 19\Cl,7.9198860806,16.8191299919,10.9415475328\Cl,8.6560839836,18.9037
 273489,14.5867791272\Cl,9.6277811677,24.9310017046,3.5486657995\Cl,12.
 167026958,20.7554734169,14.9561634391\Cl,12.1663990744,24.9896656954,1
 4.9589521996\Cl,8.6549070191,26.8408553112,14.5920068226\Cl,7.91809014
 61,28.9300340645,10.94952432\\Version=ES64L-G16RevA.03\State=1-A\HF=-1
 2405.0415498\RMSD=4.578e-09\RMSF=1.780e-05\Dipole=-0.1586029,0.0006121
 ,-0.9641929\Quadrupole=-5.4428229,8.403087,-2.960264,-0.0068529,7.2839
 474,0.008565\PG=C01 [X(C84Cl20)]\\@


 IF YOU DON'T HAVE THE LAW - ARGUE THE FACTS.
 IF YOU DON'T HAVE THE FACTS - ARGUE THE LAW.
 IF YOU DON'T HAVE EITHER - POUND THE TABLE.
 Job cpu time:       1 days 22 hours 12 minutes 50.0 seconds.
 Elapsed time:       0 days  1 hours 55 minutes 46.5 seconds.
 File lengths (MBytes):  RWF=   1649 Int=      0 D2E=      0 Chk=    205 Scr=      1
 Normal termination of Gaussian 16 at Tue Jun 28 16:03:10 2022.
