 Entering Gaussian System, Link 0=g16
 Input=C84_14_Cl22.gjf
 Output=C84_14_Cl22.log
 Initial command:
 /home/mkliu/g16/l1.exe "/data/scratch/Gau-32406.inp" -scrdir="/data/scratch/"
 Entering Link 1 = /home/mkliu/g16/l1.exe PID=     32407.
  
 Copyright (c) 1988,1990,1992,1993,1995,1998,2003,2009,2016,
            Gaussian, Inc.  All Rights Reserved.
  
 This is part of the Gaussian(R) 16 program.  It is based on
 the Gaussian(R) 09 system (copyright 2009, Gaussian, Inc.),
 the Gaussian(R) 03 system (copyright 2003, Gaussian, Inc.),
 the Gaussian(R) 98 system (copyright 1998, Gaussian, Inc.),
 the Gaussian(R) 94 system (copyright 1995, Gaussian, Inc.),
 the Gaussian 92(TM) system (copyright 1992, Gaussian, Inc.),
 the Gaussian 90(TM) system (copyright 1990, Gaussian, Inc.),
 the Gaussian 88(TM) system (copyright 1988, Gaussian, Inc.),
 the Gaussian 86(TM) system (copyright 1986, Carnegie Mellon
 University), and the Gaussian 82(TM) system (copyright 1983,
 Carnegie Mellon University). Gaussian is a federally registered
 trademark of Gaussian, Inc.
  
 This software contains proprietary and confidential information,
 including trade secrets, belonging to Gaussian, Inc.
  
 This software is provided under written license and may be
 used, copied, transmitted, or stored only in accord with that
 written license.
  
 The following legend is applicable only to US Government
 contracts under FAR:
  
                    RESTRICTED RIGHTS LEGEND
  
 Use, reproduction and disclosure by the US Government is
 subject to restrictions as set forth in subparagraphs (a)
 and (c) of the Commercial Computer Software - Restricted
 Rights clause in FAR 52.227-19.
  
 Gaussian, Inc.
 340 Quinnipiac St., Bldg. 40, Wallingford CT 06492
  
  
 ---------------------------------------------------------------
 Warning -- This program may not be used in any manner that
 competes with the business of Gaussian, Inc. or will provide
 assistance to any competitor of Gaussian, Inc.  The licensee
 of this program is prohibited from giving any competitor of
 Gaussian, Inc. access to this program.  By using this program,
 the user acknowledges that Gaussian, Inc. is engaged in the
 business of creating and licensing software in the field of
 computational chemistry and represents and warrants to the
 licensee that it is not a competitor of Gaussian, Inc. and that
 it will not use this program in any manner prohibited above.
 ---------------------------------------------------------------
  

 Cite this work as:
 Gaussian 16, Revision A.03,
 M. J. Frisch, G. W. Trucks, H. B. Schlegel, G. E. Scuseria, 
 M. A. Robb, J. R. Cheeseman, G. Scalmani, V. Barone, 
 G. A. Petersson, H. Nakatsuji, X. Li, M. Caricato, A. V. Marenich, 
 J. Bloino, B. G. Janesko, R. Gomperts, B. Mennucci, H. P. Hratchian, 
 J. V. Ortiz, A. F. Izmaylov, J. L. Sonnenberg, D. Williams-Young, 
 F. Ding, F. Lipparini, F. Egidi, J. Goings, B. Peng, A. Petrone, 
 T. Henderson, D. Ranasinghe, V. G. Zakrzewski, J. Gao, N. Rega, 
 G. Zheng, W. Liang, M. Hada, M. Ehara, K. Toyota, R. Fukuda, 
 J. Hasegawa, M. Ishida, T. Nakajima, Y. Honda, O. Kitao, H. Nakai, 
 T. Vreven, K. Throssell, J. A. Montgomery, Jr., J. E. Peralta, 
 F. Ogliaro, M. J. Bearpark, J. J. Heyd, E. N. Brothers, K. N. Kudin, 
 V. N. Staroverov, T. A. Keith, R. Kobayashi, J. Normand, 
 K. Raghavachari, A. P. Rendell, J. C. Burant, S. S. Iyengar, 
 J. Tomasi, M. Cossi, J. M. Millam, M. Klene, C. Adamo, R. Cammi, 
 J. W. Ochterski, R. L. Martin, K. Morokuma, O. Farkas, 
 J. B. Foresman, and D. J. Fox, Gaussian, Inc., Wallingford CT, 2016.
 
 ******************************************
 Gaussian 16:  ES64L-G16RevA.03 25-Dec-2016
                24-Jun-2022 
 ******************************************
 %mem=10GB
 %chk=C84_14_Cl22.chk
 %nprocshared=48
 Will use up to   48 processors via shared memory.
 ------------------------------------------------
 #P opt b3lyp/6-31G(d, p) empiricaldispersion=GD3
 ------------------------------------------------
 1/18=20,19=15,26=3,38=1/1,3;
 2/9=110,12=2,17=6,18=5,40=1/2;
 3/5=1,6=6,7=101,11=2,25=1,30=1,71=1,74=-5,124=31/1,2,3;
 4//1;
 5/5=2,38=5/2;
 6/7=2,8=2,9=2,10=2,28=1/1;
 7//1,2,3,16;
 1/18=20,19=15,26=3/3(2);
 2/9=110/2;
 99//99;
 2/9=110/2;
 3/5=1,6=6,7=101,11=2,25=1,30=1,71=1,74=-5,124=31/1,2,3;
 4/5=5,16=3,69=1/1;
 5/5=2,38=5/2;
 7//1,2,3,16;
 1/18=20,19=15,26=3/3(-5);
 2/9=110/2;
 6/7=2,8=2,9=2,10=2,19=2,28=1/1;
 99/9=1/99;
 Leave Link    1 at Fri Jun 24 12:39:12 2022, MaxMem=  1342177280 cpu:               2.1 elap:               0.1
 (Enter /home/mkliu/g16/l101.exe)
 -----
 force
 -----
 Symbolic Z-matrix:
 Charge =  0 Multiplicity = 1
 C                     8.22859   18.65079   10.60425 
 C                     12.46128   20.01414   8.91177 
 C                     8.22859   27.10172   10.60424 
 C                     12.46128   25.73836   8.91176 
 C                     7.96083   18.99134   9.16177 
 C                     11.85275   19.60486   10.21849 
 C                     7.96082   26.76116   9.16177 
 C                     11.85274   26.14765   10.21848 
 C                     8.9501    19.18558   8.17828 
 C                     12.10838   20.25718   11.39363 
 C                     12.10837   25.49532   11.39362 
 C                     8.95009   26.56693   8.17828 
 C                     10.28468   19.10912   8.61214 
 C                     10.28468   26.64338   8.61214 
 C                     10.59977   19.00896   10.02539 
 C                     10.59977   26.74355   10.02539 
 C                     9.6256    19.01217   11.01785 
 C                     9.6256    26.74034   11.01784 
 C                     9.89875   19.67131   12.22406 
 C                     9.89875   26.0812   12.22405 
 C                     8.7816    20.07171   13.14548 
 C                     8.7816    25.68079   13.14548 
 C                     7.47085   20.17454   12.40863 
 C                     7.47084   25.57796   12.40863 
 C                     7.21534   19.5268   11.28484 
 C                     7.21534   26.2257   11.28484 
 C                     6.12477   19.97109   10.34784 
 C                     6.12477   25.78141   10.34784 
 C                     6.73605   19.60932   9.03603 
 C                     6.73605   26.14318   9.03603 
 C                     6.42165   20.28723   7.87494 
 C                     6.42164   25.46527   7.87494 
 C                     7.32727   20.37032   6.83476 
 C                     7.32726   25.38218   6.83476 
 C                     8.66396   19.94522   6.99929 
 C                     8.66396   25.80728   6.99929 
 C                     9.72735   20.62517   6.33164 
 C                     9.72735   25.12733   6.33163 
 C                     11.01778   20.58841   6.84257 
 C                     12.62442   22.18254   7.7866 
 C                     12.62442   23.56996   7.7866 
 C                     11.01778   25.16409   6.84257 
 C                     11.29586   19.80045   7.96601 
 C                     12.79842   21.47742   8.96382 
 C                     12.79842   24.27508   8.96381 
 C                     11.29586   25.95205   7.96601 
 C                     13.02022   22.17658   10.16073 
 C                     13.02022   23.57592   10.16072 
 C                     13.04832   21.4199   11.47636 
 C                     13.0483   24.33259   11.47635 
 C                     12.40982   22.21419   12.582 
 C                     12.40977   23.53829   12.58195 
 C                     11.13669   20.27862   12.40039 
 C                     11.13668   25.47388   12.40038 
 C                     11.4266   21.39285   13.37097 
 C                     11.42658   24.35965   13.37095 
 C                     8.96728   21.49723   13.58571 
 C                     8.96727   24.25527   13.58571 
 C                     7.76721   22.19301   13.46168 
 C                     7.7672    23.55949   13.46169 
 C                     6.69675   21.40722   12.78285 
 C                     6.69674   24.34529   12.78285 
 C                     6.23172   22.17483   11.55345 
 C                     6.23172   23.57767   11.55345 
 C                     5.93885   21.47956   10.37802 
 C                     5.93885   24.27294   10.37802 
 C                     5.62676   22.17738   9.19899 
 C                     5.62676   23.57512   9.19899 
 C                     5.44151   21.41923   7.88902 
 C                     5.44151   24.33328   7.88902 
 C                     5.93434   22.21461   6.71154 
 C                     5.93433   23.5379   6.71154 
 C                     6.86267   21.3962   5.84793 
 C                     6.86266   24.3563   5.84793 
 C                     8.01676   22.20958   5.41091 
 C                     8.01676   23.54292   5.41091 
 C                     9.39143   21.63184   5.25927 
 C                     9.39143   24.12066   5.25927 
 C                     12.05152   21.63176   6.50499 
 C                     12.05152   24.12074   6.50499 
 C                     10.22798   22.87625   5.3893 
 C                     11.43289   22.87625   5.93563 
 C                     10.17618   22.17437   13.65469 
 C                     10.17617   23.57813   13.65469 
 Cl                    7.93799   16.89164   10.92532 
 Cl                    12.13871   20.77262   14.90992 
 Cl                    12.13875   24.97985   14.90989 
 Cl                    8.68368   18.94019   14.54703 
 Cl                    8.68368   26.8123   14.54703 
 Cl                    5.27486   21.05506   13.82753 
 Cl                    5.27485   24.69744   13.82752 
 Cl                    13.908    19.05021   8.45554 
 Cl                    13.908    26.70229   8.45553 
 Cl                    13.32708   20.94134   5.43702 
 Cl                    13.32708   24.81116   5.43702 
 Cl                    14.74692   20.9525   11.84965 
 Cl                    14.74689   24.79997   11.84969 
 Cl                    7.93799   28.86087   10.92531 
 Cl                    4.55422   19.16232   10.68407 
 Cl                    4.55422   26.59019   10.68407 
 Cl                    3.72211   20.92127   7.73142 
 Cl                    3.7221    24.83123   7.73143 
 Cl                    6.01706   20.62602   4.45116 
 Cl                    6.01707   25.12649   4.45115 
 Cl                    9.60052   20.8397   3.64496 
 Cl                    9.60052   24.91281   3.64496 
 
 ITRead=  0  0  0  0  0  0  0  0  0  0  0  0  0  0  0  0  0  0  0  0
 ITRead=  0  0  0  0  0  0  0  0  0  0  0  0  0  0  0  0  0  0  0  0
 ITRead=  0  0  0  0  0  0  0  0  0  0  0  0  0  0  0  0  0  0  0  0
 ITRead=  0  0  0  0  0  0  0  0  0  0  0  0  0  0  0  0  0  0  0  0
 ITRead=  0  0  0  0  0  0  0  0  0  0  0  0  0  0  0  0  0  0  0  0
 ITRead=  0  0  0  0  0  0
 MicOpt= -1 -1 -1 -1 -1 -1 -1 -1 -1 -1 -1 -1 -1 -1 -1 -1 -1 -1 -1 -1
 MicOpt= -1 -1 -1 -1 -1 -1 -1 -1 -1 -1 -1 -1 -1 -1 -1 -1 -1 -1 -1 -1
 MicOpt= -1 -1 -1 -1 -1 -1 -1 -1 -1 -1 -1 -1 -1 -1 -1 -1 -1 -1 -1 -1
 MicOpt= -1 -1 -1 -1 -1 -1 -1 -1 -1 -1 -1 -1 -1 -1 -1 -1 -1 -1 -1 -1
 MicOpt= -1 -1 -1 -1 -1 -1 -1 -1 -1 -1 -1 -1 -1 -1 -1 -1 -1 -1 -1 -1
 MicOpt= -1 -1 -1 -1 -1 -1
 NAtoms=    106 NQM=      106 NQMF=       0 NMMI=      0 NMMIF=      0
                NMic=       0 NMicF=      0.
                    Isotopes and Nuclear Properties:
 (Nuclear quadrupole moments (NQMom) in fm**2, nuclear magnetic moments (NMagM)
  in nuclear magnetons)

  Atom         1           2           3           4           5           6           7           8           9          10
 IAtWgt=          12          12          12          12          12          12          12          12          12          12
 AtmWgt=  12.0000000  12.0000000  12.0000000  12.0000000  12.0000000  12.0000000  12.0000000  12.0000000  12.0000000  12.0000000
 NucSpn=           0           0           0           0           0           0           0           0           0           0
 AtZEff=  -0.0000000  -0.0000000  -0.0000000  -0.0000000  -0.0000000  -0.0000000  -0.0000000  -0.0000000  -0.0000000  -0.0000000
 NQMom=    0.0000000   0.0000000   0.0000000   0.0000000   0.0000000   0.0000000   0.0000000   0.0000000   0.0000000   0.0000000
 NMagM=    0.0000000   0.0000000   0.0000000   0.0000000   0.0000000   0.0000000   0.0000000   0.0000000   0.0000000   0.0000000
 AtZNuc=   6.0000000   6.0000000   6.0000000   6.0000000   6.0000000   6.0000000   6.0000000   6.0000000   6.0000000   6.0000000

  Atom        11          12          13          14          15          16          17          18          19          20
 IAtWgt=          12          12          12          12          12          12          12          12          12          12
 AtmWgt=  12.0000000  12.0000000  12.0000000  12.0000000  12.0000000  12.0000000  12.0000000  12.0000000  12.0000000  12.0000000
 NucSpn=           0           0           0           0           0           0           0           0           0           0
 AtZEff=  -0.0000000  -0.0000000  -0.0000000  -0.0000000  -0.0000000  -0.0000000  -0.0000000  -0.0000000  -0.0000000  -0.0000000
 NQMom=    0.0000000   0.0000000   0.0000000   0.0000000   0.0000000   0.0000000   0.0000000   0.0000000   0.0000000   0.0000000
 NMagM=    0.0000000   0.0000000   0.0000000   0.0000000   0.0000000   0.0000000   0.0000000   0.0000000   0.0000000   0.0000000
 AtZNuc=   6.0000000   6.0000000   6.0000000   6.0000000   6.0000000   6.0000000   6.0000000   6.0000000   6.0000000   6.0000000

  Atom        21          22          23          24          25          26          27          28          29          30
 IAtWgt=          12          12          12          12          12          12          12          12          12          12
 AtmWgt=  12.0000000  12.0000000  12.0000000  12.0000000  12.0000000  12.0000000  12.0000000  12.0000000  12.0000000  12.0000000
 NucSpn=           0           0           0           0           0           0           0           0           0           0
 AtZEff=  -0.0000000  -0.0000000  -0.0000000  -0.0000000  -0.0000000  -0.0000000  -0.0000000  -0.0000000  -0.0000000  -0.0000000
 NQMom=    0.0000000   0.0000000   0.0000000   0.0000000   0.0000000   0.0000000   0.0000000   0.0000000   0.0000000   0.0000000
 NMagM=    0.0000000   0.0000000   0.0000000   0.0000000   0.0000000   0.0000000   0.0000000   0.0000000   0.0000000   0.0000000
 AtZNuc=   6.0000000   6.0000000   6.0000000   6.0000000   6.0000000   6.0000000   6.0000000   6.0000000   6.0000000   6.0000000

  Atom        31          32          33          34          35          36          37          38          39          40
 IAtWgt=          12          12          12          12          12          12          12          12          12          12
 AtmWgt=  12.0000000  12.0000000  12.0000000  12.0000000  12.0000000  12.0000000  12.0000000  12.0000000  12.0000000  12.0000000
 NucSpn=           0           0           0           0           0           0           0           0           0           0
 AtZEff=  -0.0000000  -0.0000000  -0.0000000  -0.0000000  -0.0000000  -0.0000000  -0.0000000  -0.0000000  -0.0000000  -0.0000000
 NQMom=    0.0000000   0.0000000   0.0000000   0.0000000   0.0000000   0.0000000   0.0000000   0.0000000   0.0000000   0.0000000
 NMagM=    0.0000000   0.0000000   0.0000000   0.0000000   0.0000000   0.0000000   0.0000000   0.0000000   0.0000000   0.0000000
 AtZNuc=   6.0000000   6.0000000   6.0000000   6.0000000   6.0000000   6.0000000   6.0000000   6.0000000   6.0000000   6.0000000

  Atom        41          42          43          44          45          46          47          48          49          50
 IAtWgt=          12          12          12          12          12          12          12          12          12          12
 AtmWgt=  12.0000000  12.0000000  12.0000000  12.0000000  12.0000000  12.0000000  12.0000000  12.0000000  12.0000000  12.0000000
 NucSpn=           0           0           0           0           0           0           0           0           0           0
 AtZEff=  -0.0000000  -0.0000000  -0.0000000  -0.0000000  -0.0000000  -0.0000000  -0.0000000  -0.0000000  -0.0000000  -0.0000000
 NQMom=    0.0000000   0.0000000   0.0000000   0.0000000   0.0000000   0.0000000   0.0000000   0.0000000   0.0000000   0.0000000
 NMagM=    0.0000000   0.0000000   0.0000000   0.0000000   0.0000000   0.0000000   0.0000000   0.0000000   0.0000000   0.0000000
 AtZNuc=   6.0000000   6.0000000   6.0000000   6.0000000   6.0000000   6.0000000   6.0000000   6.0000000   6.0000000   6.0000000

  Atom        51          52          53          54          55          56          57          58          59          60
 IAtWgt=          12          12          12          12          12          12          12          12          12          12
 AtmWgt=  12.0000000  12.0000000  12.0000000  12.0000000  12.0000000  12.0000000  12.0000000  12.0000000  12.0000000  12.0000000
 NucSpn=           0           0           0           0           0           0           0           0           0           0
 AtZEff=  -0.0000000  -0.0000000  -0.0000000  -0.0000000  -0.0000000  -0.0000000  -0.0000000  -0.0000000  -0.0000000  -0.0000000
 NQMom=    0.0000000   0.0000000   0.0000000   0.0000000   0.0000000   0.0000000   0.0000000   0.0000000   0.0000000   0.0000000
 NMagM=    0.0000000   0.0000000   0.0000000   0.0000000   0.0000000   0.0000000   0.0000000   0.0000000   0.0000000   0.0000000
 AtZNuc=   6.0000000   6.0000000   6.0000000   6.0000000   6.0000000   6.0000000   6.0000000   6.0000000   6.0000000   6.0000000

  Atom        61          62          63          64          65          66          67          68          69          70
 IAtWgt=          12          12          12          12          12          12          12          12          12          12
 AtmWgt=  12.0000000  12.0000000  12.0000000  12.0000000  12.0000000  12.0000000  12.0000000  12.0000000  12.0000000  12.0000000
 NucSpn=           0           0           0           0           0           0           0           0           0           0
 AtZEff=  -0.0000000  -0.0000000  -0.0000000  -0.0000000  -0.0000000  -0.0000000  -0.0000000  -0.0000000  -0.0000000  -0.0000000
 NQMom=    0.0000000   0.0000000   0.0000000   0.0000000   0.0000000   0.0000000   0.0000000   0.0000000   0.0000000   0.0000000
 NMagM=    0.0000000   0.0000000   0.0000000   0.0000000   0.0000000   0.0000000   0.0000000   0.0000000   0.0000000   0.0000000
 AtZNuc=   6.0000000   6.0000000   6.0000000   6.0000000   6.0000000   6.0000000   6.0000000   6.0000000   6.0000000   6.0000000

  Atom        71          72          73          74          75          76          77          78          79          80
 IAtWgt=          12          12          12          12          12          12          12          12          12          12
 AtmWgt=  12.0000000  12.0000000  12.0000000  12.0000000  12.0000000  12.0000000  12.0000000  12.0000000  12.0000000  12.0000000
 NucSpn=           0           0           0           0           0           0           0           0           0           0
 AtZEff=  -0.0000000  -0.0000000  -0.0000000  -0.0000000  -0.0000000  -0.0000000  -0.0000000  -0.0000000  -0.0000000  -0.0000000
 NQMom=    0.0000000   0.0000000   0.0000000   0.0000000   0.0000000   0.0000000   0.0000000   0.0000000   0.0000000   0.0000000
 NMagM=    0.0000000   0.0000000   0.0000000   0.0000000   0.0000000   0.0000000   0.0000000   0.0000000   0.0000000   0.0000000
 AtZNuc=   6.0000000   6.0000000   6.0000000   6.0000000   6.0000000   6.0000000   6.0000000   6.0000000   6.0000000   6.0000000

  Atom        81          82          83          84          85          86          87          88          89          90
 IAtWgt=          12          12          12          12          35          35          35          35          35          35
 AtmWgt=  12.0000000  12.0000000  12.0000000  12.0000000  34.9688527  34.9688527  34.9688527  34.9688527  34.9688527  34.9688527
 NucSpn=           0           0           0           0           3           3           3           3           3           3
 AtZEff=  -0.0000000  -0.0000000  -0.0000000  -0.0000000  -0.0000000  -0.0000000  -0.0000000  -0.0000000  -0.0000000  -0.0000000
 NQMom=    0.0000000   0.0000000   0.0000000   0.0000000  -8.1650000  -8.1650000  -8.1650000  -8.1650000  -8.1650000  -8.1650000
 NMagM=    0.0000000   0.0000000   0.0000000   0.0000000   0.8218740   0.8218740   0.8218740   0.8218740   0.8218740   0.8218740
 AtZNuc=   6.0000000   6.0000000   6.0000000   6.0000000  17.0000000  17.0000000  17.0000000  17.0000000  17.0000000  17.0000000

  Atom        91          92          93          94          95          96          97          98          99         100
 IAtWgt=          35          35          35          35          35          35          35          35          35          35
 AtmWgt=  34.9688527  34.9688527  34.9688527  34.9688527  34.9688527  34.9688527  34.9688527  34.9688527  34.9688527  34.9688527
 NucSpn=           3           3           3           3           3           3           3           3           3           3
 AtZEff=  -0.0000000  -0.0000000  -0.0000000  -0.0000000  -0.0000000  -0.0000000  -0.0000000  -0.0000000  -0.0000000  -0.0000000
 NQMom=   -8.1650000  -8.1650000  -8.1650000  -8.1650000  -8.1650000  -8.1650000  -8.1650000  -8.1650000  -8.1650000  -8.1650000
 NMagM=    0.8218740   0.8218740   0.8218740   0.8218740   0.8218740   0.8218740   0.8218740   0.8218740   0.8218740   0.8218740
 AtZNuc=  17.0000000  17.0000000  17.0000000  17.0000000  17.0000000  17.0000000  17.0000000  17.0000000  17.0000000  17.0000000

  Atom       101         102         103         104         105         106
 IAtWgt=          35          35          35          35          35          35
 AtmWgt=  34.9688527  34.9688527  34.9688527  34.9688527  34.9688527  34.9688527
 NucSpn=           3           3           3           3           3           3
 AtZEff=  -0.0000000  -0.0000000  -0.0000000  -0.0000000  -0.0000000  -0.0000000
 NQMom=   -8.1650000  -8.1650000  -8.1650000  -8.1650000  -8.1650000  -8.1650000
 NMagM=    0.8218740   0.8218740   0.8218740   0.8218740   0.8218740   0.8218740
 AtZNuc=  17.0000000  17.0000000  17.0000000  17.0000000  17.0000000  17.0000000
 Leave Link  101 at Fri Jun 24 12:39:12 2022, MaxMem=  1342177280 cpu:              14.8 elap:               0.3
 (Enter /home/mkliu/g16/l103.exe)

 GradGradGradGradGradGradGradGradGradGradGradGradGradGradGradGradGradGrad
 Berny optimization.
 Initialization pass.
                           ----------------------------
                           !    Initial Parameters    !
                           ! (Angstroms and Degrees)  !
 --------------------------                            --------------------------
 ! Name  Definition              Value          Derivative Info.                !
 --------------------------------------------------------------------------------
 ! R1    R(1,5)                  1.5061         estimate D2E/DX2                !
 ! R2    R(1,17)                 1.5011         estimate D2E/DX2                !
 ! R3    R(1,25)                 1.5024         estimate D2E/DX2                !
 ! R4    R(1,85)                 1.8117         estimate D2E/DX2                !
 ! R5    R(2,6)                  1.4984         estimate D2E/DX2                !
 ! R6    R(2,43)                 1.516          estimate D2E/DX2                !
 ! R7    R(2,44)                 1.5025         estimate D2E/DX2                !
 ! R8    R(2,92)                 1.7973         estimate D2E/DX2                !
 ! R9    R(3,7)                  1.5061         estimate D2E/DX2                !
 ! R10   R(3,18)                 1.5011         estimate D2E/DX2                !
 ! R11   R(3,26)                 1.5024         estimate D2E/DX2                !
 ! R12   R(3,98)                 1.8117         estimate D2E/DX2                !
 ! R13   R(4,8)                  1.4984         estimate D2E/DX2                !
 ! R14   R(4,45)                 1.5025         estimate D2E/DX2                !
 ! R15   R(4,46)                 1.516          estimate D2E/DX2                !
 ! R16   R(4,93)                 1.7973         estimate D2E/DX2                !
 ! R17   R(5,9)                  1.4084         estimate D2E/DX2                !
 ! R18   R(5,29)                 1.3776         estimate D2E/DX2                !
 ! R19   R(6,10)                 1.3681         estimate D2E/DX2                !
 ! R20   R(6,15)                 1.4008         estimate D2E/DX2                !
 ! R21   R(7,12)                 1.4084         estimate D2E/DX2                !
 ! R22   R(7,30)                 1.3776         estimate D2E/DX2                !
 ! R23   R(8,11)                 1.3681         estimate D2E/DX2                !
 ! R24   R(8,16)                 1.4008         estimate D2E/DX2                !
 ! R25   R(9,13)                 1.4054         estimate D2E/DX2                !
 ! R26   R(9,35)                 1.4314         estimate D2E/DX2                !
 ! R27   R(10,49)                1.4974         estimate D2E/DX2                !
 ! R28   R(10,53)                1.3994         estimate D2E/DX2                !
 ! R29   R(11,50)                1.4974         estimate D2E/DX2                !
 ! R30   R(11,54)                1.3994         estimate D2E/DX2                !
 ! R31   R(12,14)                1.4054         estimate D2E/DX2                !
 ! R32   R(12,36)                1.4314         estimate D2E/DX2                !
 ! R33   R(13,15)                1.4514         estimate D2E/DX2                !
 ! R34   R(13,43)                1.3849         estimate D2E/DX2                !
 ! R35   R(14,16)                1.4514         estimate D2E/DX2                !
 ! R36   R(14,46)                1.3849         estimate D2E/DX2                !
 ! R37   R(15,17)                1.3907         estimate D2E/DX2                !
 ! R38   R(16,18)                1.3907         estimate D2E/DX2                !
 ! R39   R(17,19)                1.4014         estimate D2E/DX2                !
 ! R40   R(18,20)                1.4014         estimate D2E/DX2                !
 ! R41   R(19,21)                1.5025         estimate D2E/DX2                !
 ! R42   R(19,53)                1.3901         estimate D2E/DX2                !
 ! R43   R(20,22)                1.5025         estimate D2E/DX2                !
 ! R44   R(20,54)                1.3901         estimate D2E/DX2                !
 ! R45   R(21,23)                1.5072         estimate D2E/DX2                !
 ! R46   R(21,57)                1.5035         estimate D2E/DX2                !
 ! R47   R(21,88)                1.804          estimate D2E/DX2                !
 ! R48   R(22,24)                1.5072         estimate D2E/DX2                !
 ! R49   R(22,58)                1.5035         estimate D2E/DX2                !
 ! R50   R(22,89)                1.804          estimate D2E/DX2                !
 ! R51   R(23,25)                1.322          estimate D2E/DX2                !
 ! R52   R(23,61)                1.5029         estimate D2E/DX2                !
 ! R53   R(24,26)                1.322          estimate D2E/DX2                !
 ! R54   R(24,62)                1.5029         estimate D2E/DX2                !
 ! R55   R(25,27)                1.5049         estimate D2E/DX2                !
 ! R56   R(26,28)                1.5049         estimate D2E/DX2                !
 ! R57   R(27,29)                1.4918         estimate D2E/DX2                !
 ! R58   R(27,65)                1.5202         estimate D2E/DX2                !
 ! R59   R(27,99)                1.7983         estimate D2E/DX2                !
 ! R60   R(28,30)                1.4918         estimate D2E/DX2                !
 ! R61   R(28,66)                1.5202         estimate D2E/DX2                !
 ! R62   R(28,100)               1.7983         estimate D2E/DX2                !
 ! R63   R(29,31)                1.3808         estimate D2E/DX2                !
 ! R64   R(30,32)                1.3808         estimate D2E/DX2                !
 ! R65   R(31,33)                1.3817         estimate D2E/DX2                !
 ! R66   R(31,69)                1.4974         estimate D2E/DX2                !
 ! R67   R(32,34)                1.3817         estimate D2E/DX2                !
 ! R68   R(32,70)                1.4974         estimate D2E/DX2                !
 ! R69   R(33,35)                1.4123         estimate D2E/DX2                !
 ! R70   R(33,73)                1.4974         estimate D2E/DX2                !
 ! R71   R(34,36)                1.4123         estimate D2E/DX2                !
 ! R72   R(34,74)                1.4974         estimate D2E/DX2                !
 ! R73   R(35,37)                1.4279         estimate D2E/DX2                !
 ! R74   R(36,38)                1.4279         estimate D2E/DX2                !
 ! R75   R(37,39)                1.3884         estimate D2E/DX2                !
 ! R76   R(37,77)                1.5087         estimate D2E/DX2                !
 ! R77   R(38,42)                1.3884         estimate D2E/DX2                !
 ! R78   R(38,78)                1.5087         estimate D2E/DX2                !
 ! R79   R(39,43)                1.4001         estimate D2E/DX2                !
 ! R80   R(39,79)                1.507          estimate D2E/DX2                !
 ! R81   R(40,41)                1.3874         estimate D2E/DX2                !
 ! R82   R(40,44)                1.3832         estimate D2E/DX2                !
 ! R83   R(40,79)                1.508          estimate D2E/DX2                !
 ! R84   R(41,45)                1.3832         estimate D2E/DX2                !
 ! R85   R(41,80)                1.508          estimate D2E/DX2                !
 ! R86   R(42,46)                1.4001         estimate D2E/DX2                !
 ! R87   R(42,80)                1.507          estimate D2E/DX2                !
 ! R88   R(44,47)                1.4038         estimate D2E/DX2                !
 ! R89   R(45,48)                1.4038         estimate D2E/DX2                !
 ! R90   R(47,48)                1.3993         estimate D2E/DX2                !
 ! R91   R(47,49)                1.518          estimate D2E/DX2                !
 ! R92   R(48,50)                1.518          estimate D2E/DX2                !
 ! R93   R(49,51)                1.5037         estimate D2E/DX2                !
 ! R94   R(49,96)                1.8008         estimate D2E/DX2                !
 ! R95   R(50,52)                1.5037         estimate D2E/DX2                !
 ! R96   R(50,97)                1.8008         estimate D2E/DX2                !
 ! R97   R(51,52)                1.3241         estimate D2E/DX2                !
 ! R98   R(51,55)                1.5046         estimate D2E/DX2                !
 ! R99   R(52,56)                1.5046         estimate D2E/DX2                !
 ! R100  R(53,55)                1.5058         estimate D2E/DX2                !
 ! R101  R(54,56)                1.5058         estimate D2E/DX2                !
 ! R102  R(55,83)                1.5016         estimate D2E/DX2                !
 ! R103  R(55,86)                1.8056         estimate D2E/DX2                !
 ! R104  R(56,84)                1.5016         estimate D2E/DX2                !
 ! R105  R(56,87)                1.8056         estimate D2E/DX2                !
 ! R106  R(57,59)                1.3927         estimate D2E/DX2                !
 ! R107  R(57,83)                1.3873         estimate D2E/DX2                !
 ! R108  R(58,60)                1.3927         estimate D2E/DX2                !
 ! R109  R(58,84)                1.3873         estimate D2E/DX2                !
 ! R110  R(59,60)                1.3665         estimate D2E/DX2                !
 ! R111  R(59,61)                1.4914         estimate D2E/DX2                !
 ! R112  R(60,62)                1.4914         estimate D2E/DX2                !
 ! R113  R(61,63)                1.5221         estimate D2E/DX2                !
 ! R114  R(61,90)                1.7992         estimate D2E/DX2                !
 ! R115  R(62,64)                1.5221         estimate D2E/DX2                !
 ! R116  R(62,91)                1.7992         estimate D2E/DX2                !
 ! R117  R(63,64)                1.4028         estimate D2E/DX2                !
 ! R118  R(63,65)                1.3967         estimate D2E/DX2                !
 ! R119  R(64,66)                1.3967         estimate D2E/DX2                !
 ! R120  R(65,67)                1.4052         estimate D2E/DX2                !
 ! R121  R(66,68)                1.4052         estimate D2E/DX2                !
 ! R122  R(67,68)                1.3977         estimate D2E/DX2                !
 ! R123  R(67,69)                1.5248         estimate D2E/DX2                !
 ! R124  R(68,70)                1.5248         estimate D2E/DX2                !
 ! R125  R(69,71)                1.504          estimate D2E/DX2                !
 ! R126  R(69,101)               1.797          estimate D2E/DX2                !
 ! R127  R(70,72)                1.504          estimate D2E/DX2                !
 ! R128  R(70,102)               1.797          estimate D2E/DX2                !
 ! R129  R(71,72)                1.3233         estimate D2E/DX2                !
 ! R130  R(71,73)                1.5091         estimate D2E/DX2                !
 ! R131  R(72,74)                1.5091         estimate D2E/DX2                !
 ! R132  R(73,75)                1.478          estimate D2E/DX2                !
 ! R133  R(73,103)               1.8053         estimate D2E/DX2                !
 ! R134  R(74,76)                1.478          estimate D2E/DX2                !
 ! R135  R(74,104)               1.8053         estimate D2E/DX2                !
 ! R136  R(75,76)                1.3333         estimate D2E/DX2                !
 ! R137  R(75,77)                1.4988         estimate D2E/DX2                !
 ! R138  R(76,78)                1.4988         estimate D2E/DX2                !
 ! R139  R(77,81)                1.5051         estimate D2E/DX2                !
 ! R140  R(77,105)               1.8103         estimate D2E/DX2                !
 ! R141  R(78,81)                1.5051         estimate D2E/DX2                !
 ! R142  R(78,106)               1.8103         estimate D2E/DX2                !
 ! R143  R(79,82)                1.5019         estimate D2E/DX2                !
 ! R144  R(79,94)                1.8012         estimate D2E/DX2                !
 ! R145  R(80,82)                1.5019         estimate D2E/DX2                !
 ! R146  R(80,95)                1.8012         estimate D2E/DX2                !
 ! R147  R(81,82)                1.323          estimate D2E/DX2                !
 ! R148  R(83,84)                1.4038         estimate D2E/DX2                !
 ! A1    A(5,1,17)             112.0187         estimate D2E/DX2                !
 ! A2    A(5,1,25)             100.4931         estimate D2E/DX2                !
 ! A3    A(5,1,85)             111.1477         estimate D2E/DX2                !
 ! A4    A(17,1,25)            111.2515         estimate D2E/DX2                !
 ! A5    A(17,1,85)            109.5247         estimate D2E/DX2                !
 ! A6    A(25,1,85)            112.1915         estimate D2E/DX2                !
 ! A7    A(6,2,43)             101.1471         estimate D2E/DX2                !
 ! A8    A(6,2,44)             109.0823         estimate D2E/DX2                !
 ! A9    A(6,2,92)             113.6883         estimate D2E/DX2                !
 ! A10   A(43,2,44)            109.3527         estimate D2E/DX2                !
 ! A11   A(43,2,92)            112.633          estimate D2E/DX2                !
 ! A12   A(44,2,92)            110.5174         estimate D2E/DX2                !
 ! A13   A(7,3,18)             112.0186         estimate D2E/DX2                !
 ! A14   A(7,3,26)             100.4931         estimate D2E/DX2                !
 ! A15   A(7,3,98)             111.1478         estimate D2E/DX2                !
 ! A16   A(18,3,26)            111.2515         estimate D2E/DX2                !
 ! A17   A(18,3,98)            109.5247         estimate D2E/DX2                !
 ! A18   A(26,3,98)            112.1915         estimate D2E/DX2                !
 ! A19   A(8,4,45)             109.0825         estimate D2E/DX2                !
 ! A20   A(8,4,46)             101.147          estimate D2E/DX2                !
 ! A21   A(8,4,93)             113.6883         estimate D2E/DX2                !
 ! A22   A(45,4,46)            109.3527         estimate D2E/DX2                !
 ! A23   A(45,4,93)            110.5171         estimate D2E/DX2                !
 ! A24   A(46,4,93)            112.6331         estimate D2E/DX2                !
 ! A25   A(1,5,9)              125.1062         estimate D2E/DX2                !
 ! A26   A(1,5,29)             110.2985         estimate D2E/DX2                !
 ! A27   A(9,5,29)             119.9255         estimate D2E/DX2                !
 ! A28   A(2,6,10)             122.8824         estimate D2E/DX2                !
 ! A29   A(2,6,15)             111.0529         estimate D2E/DX2                !
 ! A30   A(10,6,15)            119.2318         estimate D2E/DX2                !
 ! A31   A(3,7,12)             125.1063         estimate D2E/DX2                !
 ! A32   A(3,7,30)             110.2984         estimate D2E/DX2                !
 ! A33   A(12,7,30)            119.9255         estimate D2E/DX2                !
 ! A34   A(4,8,11)             122.8821         estimate D2E/DX2                !
 ! A35   A(4,8,16)             111.0531         estimate D2E/DX2                !
 ! A36   A(11,8,16)            119.2317         estimate D2E/DX2                !
 ! A37   A(5,9,13)             116.3548         estimate D2E/DX2                !
 ! A38   A(5,9,35)             120.5266         estimate D2E/DX2                !
 ! A39   A(13,9,35)            118.2263         estimate D2E/DX2                !
 ! A40   A(6,10,49)            122.3415         estimate D2E/DX2                !
 ! A41   A(6,10,53)            119.7038         estimate D2E/DX2                !
 ! A42   A(49,10,53)           112.5952         estimate D2E/DX2                !
 ! A43   A(8,11,50)            122.3414         estimate D2E/DX2                !
 ! A44   A(8,11,54)            119.7039         estimate D2E/DX2                !
 ! A45   A(50,11,54)           112.5951         estimate D2E/DX2                !
 ! A46   A(7,12,14)            116.3548         estimate D2E/DX2                !
 ! A47   A(7,12,36)            120.5266         estimate D2E/DX2                !
 ! A48   A(14,12,36)           118.2262         estimate D2E/DX2                !
 ! A49   A(9,13,15)            120.697          estimate D2E/DX2                !
 ! A50   A(9,13,43)            121.478          estimate D2E/DX2                !
 ! A51   A(15,13,43)           109.2828         estimate D2E/DX2                !
 ! A52   A(12,14,16)           120.6969         estimate D2E/DX2                !
 ! A53   A(12,14,46)           121.4781         estimate D2E/DX2                !
 ! A54   A(16,14,46)           109.2828         estimate D2E/DX2                !
 ! A55   A(6,15,13)            107.4            estimate D2E/DX2                !
 ! A56   A(6,15,17)            121.8172         estimate D2E/DX2                !
 ! A57   A(13,15,17)           122.8642         estimate D2E/DX2                !
 ! A58   A(8,16,14)            107.3999         estimate D2E/DX2                !
 ! A59   A(8,16,18)            121.8172         estimate D2E/DX2                !
 ! A60   A(14,16,18)           122.8642         estimate D2E/DX2                !
 ! A61   A(1,17,15)            117.0482         estimate D2E/DX2                !
 ! A62   A(1,17,19)            122.125          estimate D2E/DX2                !
 ! A63   A(15,17,19)           118.6063         estimate D2E/DX2                !
 ! A64   A(3,18,16)            117.0483         estimate D2E/DX2                !
 ! A65   A(3,18,20)            122.1248         estimate D2E/DX2                !
 ! A66   A(16,18,20)           118.6064         estimate D2E/DX2                !
 ! A67   A(17,19,21)           120.5485         estimate D2E/DX2                !
 ! A68   A(17,19,53)           119.2241         estimate D2E/DX2                !
 ! A69   A(21,19,53)           117.9003         estimate D2E/DX2                !
 ! A70   A(18,20,22)           120.5488         estimate D2E/DX2                !
 ! A71   A(18,20,54)           119.2239         estimate D2E/DX2                !
 ! A72   A(22,20,54)           117.9            estimate D2E/DX2                !
 ! A73   A(19,21,23)           111.4078         estimate D2E/DX2                !
 ! A74   A(19,21,57)           109.9031         estimate D2E/DX2                !
 ! A75   A(19,21,88)           110.4678         estimate D2E/DX2                !
 ! A76   A(23,21,57)           100.7114         estimate D2E/DX2                !
 ! A77   A(23,21,88)           112.0503         estimate D2E/DX2                !
 ! A78   A(57,21,88)           111.9586         estimate D2E/DX2                !
 ! A79   A(20,22,24)           111.4077         estimate D2E/DX2                !
 ! A80   A(20,22,58)           109.9034         estimate D2E/DX2                !
 ! A81   A(20,22,89)           110.4677         estimate D2E/DX2                !
 ! A82   A(24,22,58)           100.7114         estimate D2E/DX2                !
 ! A83   A(24,22,89)           112.0504         estimate D2E/DX2                !
 ! A84   A(58,22,89)           111.9583         estimate D2E/DX2                !
 ! A85   A(21,23,25)           123.3828         estimate D2E/DX2                !
 ! A86   A(21,23,61)           112.4681         estimate D2E/DX2                !
 ! A87   A(25,23,61)           120.9288         estimate D2E/DX2                !
 ! A88   A(22,24,26)           123.3827         estimate D2E/DX2                !
 ! A89   A(22,24,62)           112.468          estimate D2E/DX2                !
 ! A90   A(26,24,62)           120.9289         estimate D2E/DX2                !
 ! A91   A(1,25,23)            122.7115         estimate D2E/DX2                !
 ! A92   A(1,25,27)            112.2608         estimate D2E/DX2                !
 ! A93   A(23,25,27)           121.6463         estimate D2E/DX2                !
 ! A94   A(3,26,24)            122.7117         estimate D2E/DX2                !
 ! A95   A(3,26,28)            112.2607         estimate D2E/DX2                !
 ! A96   A(24,26,28)           121.6462         estimate D2E/DX2                !
 ! A97   A(25,27,29)           100.3096         estimate D2E/DX2                !
 ! A98   A(25,27,65)           111.6679         estimate D2E/DX2                !
 ! A99   A(25,27,99)           112.564          estimate D2E/DX2                !
 ! A100  A(29,27,65)           107.9517         estimate D2E/DX2                !
 ! A101  A(29,27,99)           114.4074         estimate D2E/DX2                !
 ! A102  A(65,27,99)           109.619          estimate D2E/DX2                !
 ! A103  A(26,28,30)           100.3097         estimate D2E/DX2                !
 ! A104  A(26,28,66)           111.6679         estimate D2E/DX2                !
 ! A105  A(26,28,100)          112.5639         estimate D2E/DX2                !
 ! A106  A(30,28,66)           107.9517         estimate D2E/DX2                !
 ! A107  A(30,28,100)          114.4075         estimate D2E/DX2                !
 ! A108  A(66,28,100)          109.6191         estimate D2E/DX2                !
 ! A109  A(5,29,27)            113.1311         estimate D2E/DX2                !
 ! A110  A(5,29,31)            119.9627         estimate D2E/DX2                !
 ! A111  A(27,29,31)           121.8084         estimate D2E/DX2                !
 ! A112  A(7,30,28)            113.1311         estimate D2E/DX2                !
 ! A113  A(7,30,32)            119.9627         estimate D2E/DX2                !
 ! A114  A(28,30,32)           121.8085         estimate D2E/DX2                !
 ! A115  A(29,31,33)           120.8864         estimate D2E/DX2                !
 ! A116  A(29,31,69)           120.8162         estimate D2E/DX2                !
 ! A117  A(33,31,69)           112.9944         estimate D2E/DX2                !
 ! A118  A(30,32,34)           120.8864         estimate D2E/DX2                !
 ! A119  A(30,32,70)           120.8162         estimate D2E/DX2                !
 ! A120  A(34,32,70)           112.9944         estimate D2E/DX2                !
 ! A121  A(31,33,35)           120.9686         estimate D2E/DX2                !
 ! A122  A(31,33,73)           109.5107         estimate D2E/DX2                !
 ! A123  A(35,33,73)           125.2167         estimate D2E/DX2                !
 ! A124  A(32,34,36)           120.9686         estimate D2E/DX2                !
 ! A125  A(32,34,74)           109.5108         estimate D2E/DX2                !
 ! A126  A(36,34,74)           125.2167         estimate D2E/DX2                !
 ! A127  A(9,35,33)            116.4162         estimate D2E/DX2                !
 ! A128  A(9,35,37)            119.2729         estimate D2E/DX2                !
 ! A129  A(33,35,37)           120.4682         estimate D2E/DX2                !
 ! A130  A(12,36,34)           116.4162         estimate D2E/DX2                !
 ! A131  A(12,36,38)           119.2729         estimate D2E/DX2                !
 ! A132  A(34,36,38)           120.4682         estimate D2E/DX2                !
 ! A133  A(35,37,39)           120.4974         estimate D2E/DX2                !
 ! A134  A(35,37,77)           118.9646         estimate D2E/DX2                !
 ! A135  A(39,37,77)           119.0899         estimate D2E/DX2                !
 ! A136  A(36,38,42)           120.4975         estimate D2E/DX2                !
 ! A137  A(36,38,78)           118.9646         estimate D2E/DX2                !
 ! A138  A(42,38,78)           119.0899         estimate D2E/DX2                !
 ! A139  A(37,39,43)           119.6555         estimate D2E/DX2                !
 ! A140  A(37,39,79)           122.4651         estimate D2E/DX2                !
 ! A141  A(43,39,79)           115.6659         estimate D2E/DX2                !
 ! A142  A(41,40,44)           120.6486         estimate D2E/DX2                !
 ! A143  A(41,40,79)           111.4222         estimate D2E/DX2                !
 ! A144  A(44,40,79)           125.7956         estimate D2E/DX2                !
 ! A145  A(40,41,45)           120.6484         estimate D2E/DX2                !
 ! A146  A(40,41,80)           111.4225         estimate D2E/DX2                !
 ! A147  A(45,41,80)           125.7955         estimate D2E/DX2                !
 ! A148  A(38,42,46)           119.6555         estimate D2E/DX2                !
 ! A149  A(38,42,80)           122.4652         estimate D2E/DX2                !
 ! A150  A(46,42,80)           115.666          estimate D2E/DX2                !
 ! A151  A(2,43,13)            109.9136         estimate D2E/DX2                !
 ! A152  A(2,43,39)            125.0236         estimate D2E/DX2                !
 ! A153  A(13,43,39)           120.6826         estimate D2E/DX2                !
 ! A154  A(2,44,40)            116.024          estimate D2E/DX2                !
 ! A155  A(2,44,47)            123.3696         estimate D2E/DX2                !
 ! A156  A(40,44,47)           119.4474         estimate D2E/DX2                !
 ! A157  A(4,45,41)            116.0241         estimate D2E/DX2                !
 ! A158  A(4,45,48)            123.3697         estimate D2E/DX2                !
 ! A159  A(41,45,48)           119.4472         estimate D2E/DX2                !
 ! A160  A(4,46,14)            109.9137         estimate D2E/DX2                !
 ! A161  A(4,46,42)            125.0235         estimate D2E/DX2                !
 ! A162  A(14,46,42)           120.6826         estimate D2E/DX2                !
 ! A163  A(44,47,48)           119.8712         estimate D2E/DX2                !
 ! A164  A(44,47,49)           119.5795         estimate D2E/DX2                !
 ! A165  A(48,47,49)           119.8998         estimate D2E/DX2                !
 ! A166  A(45,48,47)           119.872          estimate D2E/DX2                !
 ! A167  A(45,48,50)           119.5792         estimate D2E/DX2                !
 ! A168  A(47,48,50)           119.8992         estimate D2E/DX2                !
 ! A169  A(10,49,47)           109.1204         estimate D2E/DX2                !
 ! A170  A(10,49,51)           100.6176         estimate D2E/DX2                !
 ! A171  A(10,49,96)           113.7025         estimate D2E/DX2                !
 ! A172  A(47,49,51)           111.4756         estimate D2E/DX2                !
 ! A173  A(47,49,96)           109.0564         estimate D2E/DX2                !
 ! A174  A(51,49,96)           112.6563         estimate D2E/DX2                !
 ! A175  A(11,50,48)           109.1213         estimate D2E/DX2                !
 ! A176  A(11,50,52)           100.6172         estimate D2E/DX2                !
 ! A177  A(11,50,97)           113.7026         estimate D2E/DX2                !
 ! A178  A(48,50,52)           111.4744         estimate D2E/DX2                !
 ! A179  A(48,50,97)           109.0568         estimate D2E/DX2                !
 ! A180  A(52,50,97)           112.6564         estimate D2E/DX2                !
 ! A181  A(49,51,52)           121.8857         estimate D2E/DX2                !
 ! A182  A(49,51,55)           112.0054         estimate D2E/DX2                !
 ! A183  A(52,51,55)           123.0851         estimate D2E/DX2                !
 ! A184  A(50,52,51)           121.8878         estimate D2E/DX2                !
 ! A185  A(50,52,56)           112.0055         estimate D2E/DX2                !
 ! A186  A(51,52,56)           123.0866         estimate D2E/DX2                !
 ! A187  A(10,53,19)           121.3598         estimate D2E/DX2                !
 ! A188  A(10,53,55)           109.9605         estimate D2E/DX2                !
 ! A189  A(19,53,55)           125.2024         estimate D2E/DX2                !
 ! A190  A(11,54,20)           121.36           estimate D2E/DX2                !
 ! A191  A(11,54,56)           109.9603         estimate D2E/DX2                !
 ! A192  A(20,54,56)           125.2023         estimate D2E/DX2                !
 ! A193  A(51,55,53)           101.0548         estimate D2E/DX2                !
 ! A194  A(51,55,83)           111.0466         estimate D2E/DX2                !
 ! A195  A(51,55,86)           112.1307         estimate D2E/DX2                !
 ! A196  A(53,55,83)           110.2776         estimate D2E/DX2                !
 ! A197  A(53,55,86)           111.7849         estimate D2E/DX2                !
 ! A198  A(83,55,86)           110.2527         estimate D2E/DX2                !
 ! A199  A(52,56,54)           101.0544         estimate D2E/DX2                !
 ! A200  A(52,56,84)           111.0458         estimate D2E/DX2                !
 ! A201  A(52,56,87)           112.1308         estimate D2E/DX2                !
 ! A202  A(54,56,84)           110.2785         estimate D2E/DX2                !
 ! A203  A(54,56,87)           111.785          estimate D2E/DX2                !
 ! A204  A(84,56,87)           110.2529         estimate D2E/DX2                !
 ! A205  A(21,57,59)           109.9497         estimate D2E/DX2                !
 ! A206  A(21,57,83)           125.7998         estimate D2E/DX2                !
 ! A207  A(59,57,83)           120.7595         estimate D2E/DX2                !
 ! A208  A(22,58,60)           109.9498         estimate D2E/DX2                !
 ! A209  A(22,58,84)           125.7999         estimate D2E/DX2                !
 ! A210  A(60,58,84)           120.7594         estimate D2E/DX2                !
 ! A211  A(57,59,60)           119.9726         estimate D2E/DX2                !
 ! A212  A(57,59,61)           113.3155         estimate D2E/DX2                !
 ! A213  A(60,59,61)           121.7958         estimate D2E/DX2                !
 ! A214  A(58,60,59)           119.9723         estimate D2E/DX2                !
 ! A215  A(58,60,62)           113.3154         estimate D2E/DX2                !
 ! A216  A(59,60,62)           121.796          estimate D2E/DX2                !
 ! A217  A(23,61,59)           100.1247         estimate D2E/DX2                !
 ! A218  A(23,61,63)           111.7079         estimate D2E/DX2                !
 ! A219  A(23,61,90)           113.0221         estimate D2E/DX2                !
 ! A220  A(59,61,63)           108.7359         estimate D2E/DX2                !
 ! A221  A(59,61,90)           113.9591         estimate D2E/DX2                !
 ! A222  A(63,61,90)           109.0403         estimate D2E/DX2                !
 ! A223  A(24,62,60)           100.1248         estimate D2E/DX2                !
 ! A224  A(24,62,64)           111.7078         estimate D2E/DX2                !
 ! A225  A(24,62,91)           113.0222         estimate D2E/DX2                !
 ! A226  A(60,62,64)           108.7358         estimate D2E/DX2                !
 ! A227  A(60,62,91)           113.9591         estimate D2E/DX2                !
 ! A228  A(64,62,91)           109.0403         estimate D2E/DX2                !
 ! A229  A(61,63,64)           120.2852         estimate D2E/DX2                !
 ! A230  A(61,63,65)           119.5206         estimate D2E/DX2                !
 ! A231  A(64,63,65)           119.854          estimate D2E/DX2                !
 ! A232  A(62,64,63)           120.2851         estimate D2E/DX2                !
 ! A233  A(62,64,66)           119.5206         estimate D2E/DX2                !
 ! A234  A(63,64,66)           119.8541         estimate D2E/DX2                !
 ! A235  A(27,65,63)           119.0137         estimate D2E/DX2                !
 ! A236  A(27,65,67)           120.218          estimate D2E/DX2                !
 ! A237  A(63,65,67)           120.3645         estimate D2E/DX2                !
 ! A238  A(28,66,64)           119.0138         estimate D2E/DX2                !
 ! A239  A(28,66,68)           120.2179         estimate D2E/DX2                !
 ! A240  A(64,66,68)           120.3646         estimate D2E/DX2                !
 ! A241  A(65,67,68)           119.7761         estimate D2E/DX2                !
 ! A242  A(65,67,69)           120.0599         estimate D2E/DX2                !
 ! A243  A(68,67,69)           119.815          estimate D2E/DX2                !
 ! A244  A(66,68,67)           119.776          estimate D2E/DX2                !
 ! A245  A(66,68,70)           120.0599         estimate D2E/DX2                !
 ! A246  A(67,68,70)           119.8151         estimate D2E/DX2                !
 ! A247  A(31,69,67)           107.7236         estimate D2E/DX2                !
 ! A248  A(31,69,71)           100.2503         estimate D2E/DX2                !
 ! A249  A(31,69,101)          114.5813         estimate D2E/DX2                !
 ! A250  A(67,69,71)           111.7053         estimate D2E/DX2                !
 ! A251  A(67,69,101)          109.2299         estimate D2E/DX2                !
 ! A252  A(71,69,101)          113.0428         estimate D2E/DX2                !
 ! A253  A(32,70,68)           107.7235         estimate D2E/DX2                !
 ! A254  A(32,70,72)           100.2503         estimate D2E/DX2                !
 ! A255  A(32,70,102)          114.5812         estimate D2E/DX2                !
 ! A256  A(68,70,72)           111.7055         estimate D2E/DX2                !
 ! A257  A(68,70,102)          109.2299         estimate D2E/DX2                !
 ! A258  A(72,70,102)          113.0428         estimate D2E/DX2                !
 ! A259  A(69,71,72)           121.928          estimate D2E/DX2                !
 ! A260  A(69,71,73)           111.2724         estimate D2E/DX2                !
 ! A261  A(72,71,73)           122.8411         estimate D2E/DX2                !
 ! A262  A(70,72,71)           121.9275         estimate D2E/DX2                !
 ! A263  A(70,72,74)           111.2724         estimate D2E/DX2                !
 ! A264  A(71,72,74)           122.8409         estimate D2E/DX2                !
 ! A265  A(33,73,71)           100.6768         estimate D2E/DX2                !
 ! A266  A(33,73,75)           109.2461         estimate D2E/DX2                !
 ! A267  A(33,73,103)          111.2812         estimate D2E/DX2                !
 ! A268  A(71,73,75)           110.5547         estimate D2E/DX2                !
 ! A269  A(71,73,103)          112.7049         estimate D2E/DX2                !
 ! A270  A(75,73,103)          111.8236         estimate D2E/DX2                !
 ! A271  A(34,74,72)           100.6769         estimate D2E/DX2                !
 ! A272  A(34,74,76)           109.246          estimate D2E/DX2                !
 ! A273  A(34,74,104)          111.2811         estimate D2E/DX2                !
 ! A274  A(72,74,76)           110.5549         estimate D2E/DX2                !
 ! A275  A(72,74,104)          112.7049         estimate D2E/DX2                !
 ! A276  A(76,74,104)          111.8237         estimate D2E/DX2                !
 ! A277  A(73,75,76)           123.389          estimate D2E/DX2                !
 ! A278  A(73,75,77)           122.2727         estimate D2E/DX2                !
 ! A279  A(76,75,77)           112.6723         estimate D2E/DX2                !
 ! A280  A(74,76,75)           123.3891         estimate D2E/DX2                !
 ! A281  A(74,76,78)           122.2728         estimate D2E/DX2                !
 ! A282  A(75,76,78)           112.6721         estimate D2E/DX2                !
 ! A283  A(37,77,75)           112.9226         estimate D2E/DX2                !
 ! A284  A(37,77,81)           111.5009         estimate D2E/DX2                !
 ! A285  A(37,77,105)          108.4301         estimate D2E/DX2                !
 ! A286  A(75,77,81)           100.5057         estimate D2E/DX2                !
 ! A287  A(75,77,105)          111.3964         estimate D2E/DX2                !
 ! A288  A(81,77,105)          112.0016         estimate D2E/DX2                !
 ! A289  A(38,78,76)           112.9226         estimate D2E/DX2                !
 ! A290  A(38,78,81)           111.5009         estimate D2E/DX2                !
 ! A291  A(38,78,106)          108.4301         estimate D2E/DX2                !
 ! A292  A(76,78,81)           100.5058         estimate D2E/DX2                !
 ! A293  A(76,78,106)          111.3964         estimate D2E/DX2                !
 ! A294  A(81,78,106)          112.0017         estimate D2E/DX2                !
 ! A295  A(39,79,40)           108.8493         estimate D2E/DX2                !
 ! A296  A(39,79,82)           112.089          estimate D2E/DX2                !
 ! A297  A(39,79,94)           110.6842         estimate D2E/DX2                !
 ! A298  A(40,79,82)           100.1381         estimate D2E/DX2                !
 ! A299  A(40,79,94)           112.0163         estimate D2E/DX2                !
 ! A300  A(82,79,94)           112.6153         estimate D2E/DX2                !
 ! A301  A(41,80,42)           108.8494         estimate D2E/DX2                !
 ! A302  A(41,80,82)           100.138          estimate D2E/DX2                !
 ! A303  A(41,80,95)           112.0163         estimate D2E/DX2                !
 ! A304  A(42,80,82)           112.089          estimate D2E/DX2                !
 ! A305  A(42,80,95)           110.6842         estimate D2E/DX2                !
 ! A306  A(82,80,95)           112.6153         estimate D2E/DX2                !
 ! A307  A(77,81,78)           111.5435         estimate D2E/DX2                !
 ! A308  A(77,81,82)           122.8122         estimate D2E/DX2                !
 ! A309  A(78,81,82)           122.8123         estimate D2E/DX2                !
 ! A310  A(79,82,80)           111.9155         estimate D2E/DX2                !
 ! A311  A(79,82,81)           122.1199         estimate D2E/DX2                !
 ! A312  A(80,82,81)           122.1198         estimate D2E/DX2                !
 ! A313  A(55,83,57)           117.5287         estimate D2E/DX2                !
 ! A314  A(55,83,84)           121.3633         estimate D2E/DX2                !
 ! A315  A(57,83,84)           119.2145         estimate D2E/DX2                !
 ! A316  A(56,84,58)           117.5283         estimate D2E/DX2                !
 ! A317  A(56,84,83)           121.3628         estimate D2E/DX2                !
 ! A318  A(58,84,83)           119.2152         estimate D2E/DX2                !
 ! D1    D(17,1,5,9)            20.562          estimate D2E/DX2                !
 ! D2    D(17,1,5,29)         -134.9709         estimate D2E/DX2                !
 ! D3    D(25,1,5,9)           138.7607         estimate D2E/DX2                !
 ! D4    D(25,1,5,29)          -16.7722         estimate D2E/DX2                !
 ! D5    D(85,1,5,9)          -102.3243         estimate D2E/DX2                !
 ! D6    D(85,1,5,29)          102.1428         estimate D2E/DX2                !
 ! D7    D(5,1,17,15)          -28.0151         estimate D2E/DX2                !
 ! D8    D(5,1,17,19)          134.8042         estimate D2E/DX2                !
 ! D9    D(25,1,17,15)        -139.6109         estimate D2E/DX2                !
 ! D10   D(25,1,17,19)          23.2084         estimate D2E/DX2                !
 ! D11   D(85,1,17,15)          95.7855         estimate D2E/DX2                !
 ! D12   D(85,1,17,19)        -101.3952         estimate D2E/DX2                !
 ! D13   D(5,1,25,23)         -140.5976         estimate D2E/DX2                !
 ! D14   D(5,1,25,27)           18.9054         estimate D2E/DX2                !
 ! D15   D(17,1,25,23)         -21.838          estimate D2E/DX2                !
 ! D16   D(17,1,25,27)         137.665          estimate D2E/DX2                !
 ! D17   D(85,1,25,23)         101.2502         estimate D2E/DX2                !
 ! D18   D(85,1,25,27)         -99.2468         estimate D2E/DX2                !
 ! D19   D(43,2,6,10)         -141.154          estimate D2E/DX2                !
 ! D20   D(43,2,6,15)            9.5324         estimate D2E/DX2                !
 ! D21   D(44,2,6,10)          -25.968          estimate D2E/DX2                !
 ! D22   D(44,2,6,15)          124.7184         estimate D2E/DX2                !
 ! D23   D(92,2,6,10)           97.8643         estimate D2E/DX2                !
 ! D24   D(92,2,6,15)         -111.4493         estimate D2E/DX2                !
 ! D25   D(6,2,43,13)          -10.9793         estimate D2E/DX2                !
 ! D26   D(6,2,43,39)          145.4587         estimate D2E/DX2                !
 ! D27   D(44,2,43,13)        -125.9639         estimate D2E/DX2                !
 ! D28   D(44,2,43,39)          30.4741         estimate D2E/DX2                !
 ! D29   D(92,2,43,13)         110.7434         estimate D2E/DX2                !
 ! D30   D(92,2,43,39)         -92.8186         estimate D2E/DX2                !
 ! D31   D(6,2,44,40)         -143.9817         estimate D2E/DX2                !
 ! D32   D(6,2,44,47)           23.6156         estimate D2E/DX2                !
 ! D33   D(43,2,44,40)         -34.2069         estimate D2E/DX2                !
 ! D34   D(43,2,44,47)         133.3903         estimate D2E/DX2                !
 ! D35   D(92,2,44,40)          90.3301         estimate D2E/DX2                !
 ! D36   D(92,2,44,47)        -102.0726         estimate D2E/DX2                !
 ! D37   D(18,3,7,12)          -20.5619         estimate D2E/DX2                !
 ! D38   D(18,3,7,30)          134.971          estimate D2E/DX2                !
 ! D39   D(26,3,7,12)         -138.7606         estimate D2E/DX2                !
 ! D40   D(26,3,7,30)           16.7723         estimate D2E/DX2                !
 ! D41   D(98,3,7,12)          102.3243         estimate D2E/DX2                !
 ! D42   D(98,3,7,30)         -102.1427         estimate D2E/DX2                !
 ! D43   D(7,3,18,16)           28.0151         estimate D2E/DX2                !
 ! D44   D(7,3,18,20)         -134.8041         estimate D2E/DX2                !
 ! D45   D(26,3,18,16)         139.6108         estimate D2E/DX2                !
 ! D46   D(26,3,18,20)         -23.2083         estimate D2E/DX2                !
 ! D47   D(98,3,18,16)         -95.7855         estimate D2E/DX2                !
 ! D48   D(98,3,18,20)         101.3953         estimate D2E/DX2                !
 ! D49   D(7,3,26,24)          140.5976         estimate D2E/DX2                !
 ! D50   D(7,3,26,28)          -18.9055         estimate D2E/DX2                !
 ! D51   D(18,3,26,24)          21.838          estimate D2E/DX2                !
 ! D52   D(18,3,26,28)        -137.6651         estimate D2E/DX2                !
 ! D53   D(98,3,26,24)        -101.2502         estimate D2E/DX2                !
 ! D54   D(98,3,26,28)          99.2468         estimate D2E/DX2                !
 ! D55   D(45,4,8,11)           25.9676         estimate D2E/DX2                !
 ! D56   D(45,4,8,16)         -124.7184         estimate D2E/DX2                !
 ! D57   D(46,4,8,11)          141.1537         estimate D2E/DX2                !
 ! D58   D(46,4,8,16)           -9.5323         estimate D2E/DX2                !
 ! D59   D(93,4,8,11)          -97.8646         estimate D2E/DX2                !
 ! D60   D(93,4,8,16)          111.4494         estimate D2E/DX2                !
 ! D61   D(8,4,45,41)          143.9817         estimate D2E/DX2                !
 ! D62   D(8,4,45,48)          -23.6156         estimate D2E/DX2                !
 ! D63   D(46,4,45,41)          34.207          estimate D2E/DX2                !
 ! D64   D(46,4,45,48)        -133.3903         estimate D2E/DX2                !
 ! D65   D(93,4,45,41)         -90.3301         estimate D2E/DX2                !
 ! D66   D(93,4,45,48)         102.0726         estimate D2E/DX2                !
 ! D67   D(8,4,46,14)           10.9792         estimate D2E/DX2                !
 ! D68   D(8,4,46,42)         -145.4588         estimate D2E/DX2                !
 ! D69   D(45,4,46,14)         125.9641         estimate D2E/DX2                !
 ! D70   D(45,4,46,42)         -30.474          estimate D2E/DX2                !
 ! D71   D(93,4,46,14)        -110.7434         estimate D2E/DX2                !
 ! D72   D(93,4,46,42)          92.8185         estimate D2E/DX2                !
 ! D73   D(1,5,9,13)            -2.9525         estimate D2E/DX2                !
 ! D74   D(1,5,9,35)          -157.7596         estimate D2E/DX2                !
 ! D75   D(29,5,9,13)          150.4188         estimate D2E/DX2                !
 ! D76   D(29,5,9,35)           -4.3883         estimate D2E/DX2                !
 ! D77   D(1,5,29,27)            9.4502         estimate D2E/DX2                !
 ! D78   D(1,5,29,31)          164.6585         estimate D2E/DX2                !
 ! D79   D(9,5,29,27)         -147.5361         estimate D2E/DX2                !
 ! D80   D(9,5,29,31)            7.6722         estimate D2E/DX2                !
 ! D81   D(2,6,10,49)           -1.5156         estimate D2E/DX2                !
 ! D82   D(2,6,10,53)          150.7089         estimate D2E/DX2                !
 ! D83   D(15,6,10,49)        -149.9425         estimate D2E/DX2                !
 ! D84   D(15,6,10,53)           2.282          estimate D2E/DX2                !
 ! D85   D(2,6,15,13)           -4.9426         estimate D2E/DX2                !
 ! D86   D(2,6,15,17)         -154.6737         estimate D2E/DX2                !
 ! D87   D(10,6,15,13)         146.9483         estimate D2E/DX2                !
 ! D88   D(10,6,15,17)          -2.7828         estimate D2E/DX2                !
 ! D89   D(3,7,12,14)            2.9524         estimate D2E/DX2                !
 ! D90   D(3,7,12,36)          157.7596         estimate D2E/DX2                !
 ! D91   D(30,7,12,14)        -150.4189         estimate D2E/DX2                !
 ! D92   D(30,7,12,36)           4.3883         estimate D2E/DX2                !
 ! D93   D(3,7,30,28)           -9.4502         estimate D2E/DX2                !
 ! D94   D(3,7,30,32)         -164.6587         estimate D2E/DX2                !
 ! D95   D(12,7,30,28)         147.5361         estimate D2E/DX2                !
 ! D96   D(12,7,30,32)          -7.6723         estimate D2E/DX2                !
 ! D97   D(4,8,11,50)            1.5154         estimate D2E/DX2                !
 ! D98   D(4,8,11,54)         -150.7087         estimate D2E/DX2                !
 ! D99   D(16,8,11,50)         149.9419         estimate D2E/DX2                !
 ! D100  D(16,8,11,54)          -2.2822         estimate D2E/DX2                !
 ! D101  D(4,8,16,14)            4.9426         estimate D2E/DX2                !
 ! D102  D(4,8,16,18)          154.6735         estimate D2E/DX2                !
 ! D103  D(11,8,16,14)        -146.9479         estimate D2E/DX2                !
 ! D104  D(11,8,16,18)           2.783          estimate D2E/DX2                !
 ! D105  D(5,9,13,15)           -7.682          estimate D2E/DX2                !
 ! D106  D(5,9,13,43)         -152.1519         estimate D2E/DX2                !
 ! D107  D(35,9,13,15)         147.726          estimate D2E/DX2                !
 ! D108  D(35,9,13,43)           3.2562         estimate D2E/DX2                !
 ! D109  D(5,9,35,33)           -5.4833         estimate D2E/DX2                !
 ! D110  D(5,9,35,37)          152.5681         estimate D2E/DX2                !
 ! D111  D(13,9,35,33)        -159.8314         estimate D2E/DX2                !
 ! D112  D(13,9,35,37)          -1.78           estimate D2E/DX2                !
 ! D113  D(6,10,49,47)          30.8315         estimate D2E/DX2                !
 ! D114  D(6,10,49,51)         148.1682         estimate D2E/DX2                !
 ! D115  D(6,10,49,96)         -91.1468         estimate D2E/DX2                !
 ! D116  D(53,10,49,47)       -123.165          estimate D2E/DX2                !
 ! D117  D(53,10,49,51)         -5.8282         estimate D2E/DX2                !
 ! D118  D(53,10,49,96)        114.8567         estimate D2E/DX2                !
 ! D119  D(6,10,53,19)          -1.2993         estimate D2E/DX2                !
 ! D120  D(6,10,53,55)        -161.2794         estimate D2E/DX2                !
 ! D121  D(49,10,53,19)        153.458          estimate D2E/DX2                !
 ! D122  D(49,10,53,55)         -6.522          estimate D2E/DX2                !
 ! D123  D(8,11,50,48)         -30.8307         estimate D2E/DX2                !
 ! D124  D(8,11,50,52)        -148.1664         estimate D2E/DX2                !
 ! D125  D(8,11,50,97)          91.1487         estimate D2E/DX2                !
 ! D126  D(54,11,50,48)        123.1654         estimate D2E/DX2                !
 ! D127  D(54,11,50,52)          5.8297         estimate D2E/DX2                !
 ! D128  D(54,11,50,97)       -114.8551         estimate D2E/DX2                !
 ! D129  D(8,11,54,20)           1.2993         estimate D2E/DX2                !
 ! D130  D(8,11,54,56)         161.279          estimate D2E/DX2                !
 ! D131  D(50,11,54,20)       -153.4577         estimate D2E/DX2                !
 ! D132  D(50,11,54,56)          6.522          estimate D2E/DX2                !
 ! D133  D(7,12,14,16)           7.682          estimate D2E/DX2                !
 ! D134  D(7,12,14,46)         152.1518         estimate D2E/DX2                !
 ! D135  D(36,12,14,16)       -147.7262         estimate D2E/DX2                !
 ! D136  D(36,12,14,46)         -3.2564         estimate D2E/DX2                !
 ! D137  D(7,12,36,34)           5.4833         estimate D2E/DX2                !
 ! D138  D(7,12,36,38)        -152.5681         estimate D2E/DX2                !
 ! D139  D(14,12,36,34)        159.8316         estimate D2E/DX2                !
 ! D140  D(14,12,36,38)          1.7801         estimate D2E/DX2                !
 ! D141  D(9,13,15,6)         -150.7805         estimate D2E/DX2                !
 ! D142  D(9,13,15,17)          -1.4394         estimate D2E/DX2                !
 ! D143  D(43,13,15,6)          -2.4534         estimate D2E/DX2                !
 ! D144  D(43,13,15,17)        146.8878         estimate D2E/DX2                !
 ! D145  D(9,13,43,2)          156.8087         estimate D2E/DX2                !
 ! D146  D(9,13,43,39)          -0.8179         estimate D2E/DX2                !
 ! D147  D(15,13,43,2)           8.7738         estimate D2E/DX2                !
 ! D148  D(15,13,43,39)       -148.8529         estimate D2E/DX2                !
 ! D149  D(12,14,16,8)         150.7804         estimate D2E/DX2                !
 ! D150  D(12,14,16,18)          1.4394         estimate D2E/DX2                !
 ! D151  D(46,14,16,8)           2.4533         estimate D2E/DX2                !
 ! D152  D(46,14,16,18)       -146.8876         estimate D2E/DX2                !
 ! D153  D(12,14,46,4)        -156.8085         estimate D2E/DX2                !
 ! D154  D(12,14,46,42)          0.818          estimate D2E/DX2                !
 ! D155  D(16,14,46,4)          -8.7737         estimate D2E/DX2                !
 ! D156  D(16,14,46,42)        148.8529         estimate D2E/DX2                !
 ! D157  D(6,15,17,1)          165.617          estimate D2E/DX2                !
 ! D158  D(6,15,17,19)           2.1724         estimate D2E/DX2                !
 ! D159  D(13,15,17,1)          20.5515         estimate D2E/DX2                !
 ! D160  D(13,15,17,19)       -142.8931         estimate D2E/DX2                !
 ! D161  D(8,16,18,3)         -165.6168         estimate D2E/DX2                !
 ! D162  D(8,16,18,20)          -2.1724         estimate D2E/DX2                !
 ! D163  D(14,16,18,3)         -20.5516         estimate D2E/DX2                !
 ! D164  D(14,16,18,20)        142.8929         estimate D2E/DX2                !
 ! D165  D(1,17,19,21)          -1.3512         estimate D2E/DX2                !
 ! D166  D(1,17,19,53)        -163.6711         estimate D2E/DX2                !
 ! D167  D(15,17,19,21)        161.2117         estimate D2E/DX2                !
 ! D168  D(15,17,19,53)         -1.1081         estimate D2E/DX2                !
 ! D169  D(3,18,20,22)           1.3512         estimate D2E/DX2                !
 ! D170  D(3,18,20,54)         163.6708         estimate D2E/DX2                !
 ! D171  D(16,18,20,22)       -161.2116         estimate D2E/DX2                !
 ! D172  D(16,18,20,54)          1.1079         estimate D2E/DX2                !
 ! D173  D(17,19,21,23)        -21.9389         estimate D2E/DX2                !
 ! D174  D(17,19,21,57)       -132.6872         estimate D2E/DX2                !
 ! D175  D(17,19,21,88)        103.283          estimate D2E/DX2                !
 ! D176  D(53,19,21,23)        140.6091         estimate D2E/DX2                !
 ! D177  D(53,19,21,57)         29.8608         estimate D2E/DX2                !
 ! D178  D(53,19,21,88)        -94.169          estimate D2E/DX2                !
 ! D179  D(17,19,53,10)          0.6945         estimate D2E/DX2                !
 ! D180  D(17,19,53,55)        157.5033         estimate D2E/DX2                !
 ! D181  D(21,19,53,10)       -162.091          estimate D2E/DX2                !
 ! D182  D(21,19,53,55)         -5.2822         estimate D2E/DX2                !
 ! D183  D(18,20,22,24)         21.9388         estimate D2E/DX2                !
 ! D184  D(18,20,22,58)        132.6872         estimate D2E/DX2                !
 ! D185  D(18,20,22,89)       -103.2832         estimate D2E/DX2                !
 ! D186  D(54,20,22,24)       -140.6089         estimate D2E/DX2                !
 ! D187  D(54,20,22,58)        -29.8605         estimate D2E/DX2                !
 ! D188  D(54,20,22,89)         94.1691         estimate D2E/DX2                !
 ! D189  D(18,20,54,11)         -0.6943         estimate D2E/DX2                !
 ! D190  D(18,20,54,56)       -157.5027         estimate D2E/DX2                !
 ! D191  D(22,20,54,11)        162.091          estimate D2E/DX2                !
 ! D192  D(22,20,54,56)          5.2826         estimate D2E/DX2                !
 ! D193  D(19,21,23,25)         24.2107         estimate D2E/DX2                !
 ! D194  D(19,21,23,61)       -135.6074         estimate D2E/DX2                !
 ! D195  D(57,21,23,25)        140.7174         estimate D2E/DX2                !
 ! D196  D(57,21,23,61)        -19.1007         estimate D2E/DX2                !
 ! D197  D(88,21,23,25)       -100.1247         estimate D2E/DX2                !
 ! D198  D(88,21,23,61)        100.0573         estimate D2E/DX2                !
 ! D199  D(19,21,57,59)        133.0257         estimate D2E/DX2                !
 ! D200  D(19,21,57,83)        -25.8202         estimate D2E/DX2                !
 ! D201  D(23,21,57,59)         15.4086         estimate D2E/DX2                !
 ! D202  D(23,21,57,83)       -143.4373         estimate D2E/DX2                !
 ! D203  D(88,21,57,59)       -103.8157         estimate D2E/DX2                !
 ! D204  D(88,21,57,83)         97.3384         estimate D2E/DX2                !
 ! D205  D(20,22,24,26)        -24.2104         estimate D2E/DX2                !
 ! D206  D(20,22,24,62)        135.6076         estimate D2E/DX2                !
 ! D207  D(58,22,24,26)       -140.7174         estimate D2E/DX2                !
 ! D208  D(58,22,24,62)         19.1006         estimate D2E/DX2                !
 ! D209  D(89,22,24,26)        100.1249         estimate D2E/DX2                !
 ! D210  D(89,22,24,62)       -100.0571         estimate D2E/DX2                !
 ! D211  D(20,22,58,60)       -133.0257         estimate D2E/DX2                !
 ! D212  D(20,22,58,84)         25.8202         estimate D2E/DX2                !
 ! D213  D(24,22,58,60)        -15.4086         estimate D2E/DX2                !
 ! D214  D(24,22,58,84)        143.4373         estimate D2E/DX2                !
 ! D215  D(89,22,58,60)        103.8157         estimate D2E/DX2                !
 ! D216  D(89,22,58,84)        -97.3384         estimate D2E/DX2                !
 ! D217  D(21,23,25,1)          -1.9337         estimate D2E/DX2                !
 ! D218  D(21,23,25,27)       -159.5589         estimate D2E/DX2                !
 ! D219  D(61,23,25,1)         156.2482         estimate D2E/DX2                !
 ! D220  D(61,23,25,27)         -1.377          estimate D2E/DX2                !
 ! D221  D(21,23,61,59)         15.1729         estimate D2E/DX2                !
 ! D222  D(21,23,61,63)        130.1517         estimate D2E/DX2                !
 ! D223  D(21,23,61,90)       -106.4339         estimate D2E/DX2                !
 ! D224  D(25,23,61,59)       -145.2038         estimate D2E/DX2                !
 ! D225  D(25,23,61,63)        -30.225          estimate D2E/DX2                !
 ! D226  D(25,23,61,90)         93.1894         estimate D2E/DX2                !
 ! D227  D(22,24,26,3)           1.9336         estimate D2E/DX2                !
 ! D228  D(22,24,26,28)        159.5588         estimate D2E/DX2                !
 ! D229  D(62,24,26,3)        -156.2482         estimate D2E/DX2                !
[...]
 Alpha virt. eigenvalues --    1.66587   1.66873   1.67223   1.67555   1.67626
 Alpha virt. eigenvalues --    1.67929   1.68075   1.68375   1.68457   1.68776
 Alpha virt. eigenvalues --    1.69275   1.69298   1.69650   1.69659   1.69991
 Alpha virt. eigenvalues --    1.70206   1.70371   1.70486   1.70814   1.70862
 Alpha virt. eigenvalues --    1.71374   1.71429   1.71580   1.71682   1.72098
 Alpha virt. eigenvalues --    1.72380   1.72815   1.72915   1.73209   1.73270
 Alpha virt. eigenvalues --    1.73466   1.73820   1.73858   1.74255   1.74707
 Alpha virt. eigenvalues --    1.74741   1.74952   1.74961   1.75172   1.75408
 Alpha virt. eigenvalues --    1.75414   1.76040   1.76099   1.76338   1.76637
 Alpha virt. eigenvalues --    1.76876   1.77119   1.77386   1.77532   1.77581
 Alpha virt. eigenvalues --    1.78154   1.78344   1.78460   1.78894   1.78958
 Alpha virt. eigenvalues --    1.79121   1.79135   1.79599   1.79781   1.79832
 Alpha virt. eigenvalues --    1.80119   1.80299   1.80711   1.80933   1.81052
 Alpha virt. eigenvalues --    1.81435   1.81615   1.81737   1.81891   1.82124
 Alpha virt. eigenvalues --    1.82234   1.82264   1.82768   1.83252   1.83484
 Alpha virt. eigenvalues --    1.83581   1.83921   1.84070   1.84223   1.84472
 Alpha virt. eigenvalues --    1.84854   1.84926   1.85254   1.85330   1.85444
 Alpha virt. eigenvalues --    1.86022   1.86297   1.86563   1.86749   1.86781
 Alpha virt. eigenvalues --    1.87629   1.87686   1.87821   1.87886   1.88151
 Alpha virt. eigenvalues --    1.88687   1.88904   1.89129   1.89562   1.90098
 Alpha virt. eigenvalues --    1.90462   1.90837   1.91409   1.91787   1.92058
 Alpha virt. eigenvalues --    1.92570   1.92678   1.93016   1.93583   1.93760
 Alpha virt. eigenvalues --    1.93871   1.94215   1.94376   1.94856   1.94899
 Alpha virt. eigenvalues --    1.95423   1.95947   1.96565   1.96619   1.97511
 Alpha virt. eigenvalues --    1.97631   1.97838   1.97896   1.98095   1.98982
 Alpha virt. eigenvalues --    1.99264   1.99517   1.99692   2.00328   2.00856
 Alpha virt. eigenvalues --    2.01077   2.01489   2.01609   2.01971   2.02049
 Alpha virt. eigenvalues --    2.02573   2.02983   2.03647   2.04019   2.04447
 Alpha virt. eigenvalues --    2.04476   2.04630   2.05105   2.05819   2.05828
 Alpha virt. eigenvalues --    2.06704   2.07168   2.07201   2.07432   2.07982
 Alpha virt. eigenvalues --    2.08039   2.08456   2.08591   2.09572   2.09579
 Alpha virt. eigenvalues --    2.10233   2.10958   2.11167   2.11251   2.11699
 Alpha virt. eigenvalues --    2.12526   2.13010   2.13095   2.13125   2.13318
 Alpha virt. eigenvalues --    2.13835   2.13883   2.15289   2.15355   2.15733
 Alpha virt. eigenvalues --    2.15914   2.16183   2.16762   2.16812   2.17553
 Alpha virt. eigenvalues --    2.17737   2.18455   2.19057   2.19286   2.19527
 Alpha virt. eigenvalues --    2.19652   2.20009   2.20253   2.20413   2.20666
 Alpha virt. eigenvalues --    2.21039   2.21399   2.21807   2.22255   2.23086
 Alpha virt. eigenvalues --    2.23523   2.23938   2.24130   2.24218   2.24410
 Alpha virt. eigenvalues --    2.25090   2.25511   2.25619   2.25993   2.26089
 Alpha virt. eigenvalues --    2.27116   2.27331   2.27458   2.28240   2.28536
 Alpha virt. eigenvalues --    2.29305   2.29513   2.29754   2.30940   2.31491
 Alpha virt. eigenvalues --    2.31637   2.31722   2.32008   2.32839   2.32987
 Alpha virt. eigenvalues --    2.33409   2.33554   2.34299   2.34756   2.35918
 Alpha virt. eigenvalues --    2.36654   2.36798   2.37449   2.37471   2.38273
 Alpha virt. eigenvalues --    2.38364   2.39230   2.39384   2.39568   2.39937
 Alpha virt. eigenvalues --    2.40534   2.40568   2.41517   2.42473   2.42841
 Alpha virt. eigenvalues --    2.43354   2.44105   2.44134   2.44451   2.45154
 Alpha virt. eigenvalues --    2.45242   2.45732   2.45795   2.46440   2.47248
 Alpha virt. eigenvalues --    2.47831   2.48093   2.48198   2.48682   2.49040
 Alpha virt. eigenvalues --    2.49725   2.49773   2.50094   2.50983   2.51278
 Alpha virt. eigenvalues --    2.51315   2.51543   2.52210   2.52554   2.52666
 Alpha virt. eigenvalues --    2.53289   2.53807   2.54241   2.54636   2.54653
 Alpha virt. eigenvalues --    2.55170   2.55622   2.55860   2.56164   2.56752
 Alpha virt. eigenvalues --    2.57226   2.57342   2.57586   2.58043   2.58972
 Alpha virt. eigenvalues --    2.58997   2.59059   2.59447   2.59680   2.60184
 Alpha virt. eigenvalues --    2.60540   2.60552   2.60755   2.61660   2.62133
 Alpha virt. eigenvalues --    2.62298   2.62556   2.62903   2.63042   2.63433
 Alpha virt. eigenvalues --    2.63954   2.64749   2.65420   2.65653   2.66016
 Alpha virt. eigenvalues --    2.66094   2.66219   2.66833   2.66833   2.67396
 Alpha virt. eigenvalues --    2.68048   2.68058   2.68348   2.68868   2.68934
 Alpha virt. eigenvalues --    2.69397   2.69757   2.70037   2.70120   2.70358
 Alpha virt. eigenvalues --    2.70909   2.71064   2.71886   2.72352   2.73150
 Alpha virt. eigenvalues --    2.73664   2.73720   2.74332   2.74684   2.74750
 Alpha virt. eigenvalues --    2.74807   2.75352   2.75872   2.75961   2.76052
 Alpha virt. eigenvalues --    2.76310   2.77124   2.77890   2.78042   2.78952
 Alpha virt. eigenvalues --    2.79534   2.79799   2.80247   2.80297   2.81336
 Alpha virt. eigenvalues --    2.81408   2.81753   2.82002   2.82082   2.82785
 Alpha virt. eigenvalues --    2.82894   2.83241   2.83437   2.84122   2.84475
 Alpha virt. eigenvalues --    2.85370   2.85409   2.86552   2.87575   2.87602
 Alpha virt. eigenvalues --    2.88312   2.88949   2.89359   2.90943   2.91325
 Alpha virt. eigenvalues --    2.91489   2.91919   2.92377   2.93183   2.93683
 Alpha virt. eigenvalues --    2.94308   2.94947   2.96338   2.96549   2.97057
 Alpha virt. eigenvalues --    2.98380   3.01362   3.01513   3.02655   3.04385
 Alpha virt. eigenvalues --    3.04669   3.06213   3.07886   3.08553   3.08642
 Alpha virt. eigenvalues --    3.08777   3.09762   3.10120   3.11837   3.14101
 Alpha virt. eigenvalues --    3.14378   3.14963   3.16084   3.17161   3.18898
 Alpha virt. eigenvalues --    3.19650   3.20461   3.21646   3.22231   3.25734
 Alpha virt. eigenvalues --    3.26875   3.27217   3.28945   3.33060   3.33924
 Alpha virt. eigenvalues --    3.35627   3.39832   3.40324   3.40706   3.43355
 Alpha virt. eigenvalues --    3.46011   3.46476   3.48907   4.01437   4.01999
 Alpha virt. eigenvalues --    4.02976   4.03345   4.04278   4.06186   4.06462
 Alpha virt. eigenvalues --    4.07134   4.07908   4.08258   4.08783   4.09315
 Alpha virt. eigenvalues --    4.09424   4.10665   4.11669   4.12478   4.12927
 Alpha virt. eigenvalues --    4.14368   4.14929   4.15546   4.16026   4.16672
 Alpha virt. eigenvalues --    4.17143   4.18035   4.18731   4.19303   4.20130
 Alpha virt. eigenvalues --    4.20452   4.20501   4.21596   4.22110   4.22959
 Alpha virt. eigenvalues --    4.23302   4.24291   4.24694   4.25278   4.25301
 Alpha virt. eigenvalues --    4.25458   4.26610   4.26981   4.27075   4.27564
 Alpha virt. eigenvalues --    4.28093   4.28360   4.28576   4.29074   4.29146
 Alpha virt. eigenvalues --    4.29491   4.29843   4.30244   4.30347   4.31063
 Alpha virt. eigenvalues --    4.33302   4.34726   4.35649   4.36424   4.36516
 Alpha virt. eigenvalues --    4.37478   4.37928   4.38547   4.38555   4.39558
 Alpha virt. eigenvalues --    4.40414   4.41310   4.41373   4.42106   4.42367
 Alpha virt. eigenvalues --    4.42385   4.42895   4.44891   4.45761   4.45970
 Alpha virt. eigenvalues --    4.47271   4.47920   4.49279   4.50613   4.51402
 Alpha virt. eigenvalues --    4.53931   4.54048   4.56197   4.56647   4.56963
 Alpha virt. eigenvalues --    4.57181   4.59204   4.62111   4.65590   4.65639
 Alpha virt. eigenvalues --    4.67911   4.68206   4.69678   4.71637   4.77046
 Alpha virt. eigenvalues --    4.79296   4.80418   4.81317   4.82126   4.87341
 Alpha virt. eigenvalues --    4.87693   4.89292   4.94556   4.94793   4.98721
 Alpha virt. eigenvalues --    5.00048   5.03814   5.06471   5.19572
          Condensed to atoms (all electrons):
 Mulliken charges:
               1
     1  C   -0.364536
     2  C   -0.396250
     3  C   -0.364536
     4  C   -0.396250
     5  C    0.082564
     6  C    0.084462
     7  C    0.082564
     8  C    0.084462
     9  C    0.057162
    10  C    0.131941
    11  C    0.131941
    12  C    0.057162
    13  C   -0.015923
    14  C   -0.015923
    15  C    0.046014
    16  C    0.046014
    17  C    0.117907
    18  C    0.117907
    19  C    0.150076
    20  C    0.150076
    21  C   -0.386289
    22  C   -0.386289
    23  C    0.181674
    24  C    0.181674
    25  C    0.185937
    26  C    0.185937
    27  C   -0.374763
    28  C   -0.374763
    29  C    0.129029
    30  C    0.129029
    31  C    0.131265
    32  C    0.131265
    33  C    0.053084
    34  C    0.053084
    35  C    0.091344
    36  C    0.091344
    37  C    0.076055
    38  C    0.076055
    39  C    0.155812
    40  C    0.113287
    41  C    0.113287
    42  C    0.155812
    43  C    0.086665
    44  C    0.150844
    45  C    0.150844
    46  C    0.086665
    47  C    0.121617
    48  C    0.121617
    49  C   -0.375763
    50  C   -0.375763
    51  C    0.180770
    52  C    0.180771
    53  C    0.105831
    54  C    0.105831
    55  C   -0.380763
    56  C   -0.380763
    57  C    0.111771
    58  C    0.111771
    59  C    0.123107
    60  C    0.123107
    61  C   -0.374795
    62  C   -0.374795
    63  C    0.125361
    64  C    0.125361
    65  C    0.128888
    66  C    0.128888
    67  C    0.122812
    68  C    0.122812
    69  C   -0.369595
    70  C   -0.369595
    71  C    0.181657
    72  C    0.181657
    73  C   -0.352412
    74  C   -0.352412
    75  C    0.200954
    76  C    0.200954
    77  C   -0.346148
    78  C   -0.346148
    79  C   -0.379246
    80  C   -0.379246
    81  C    0.187878
    82  C    0.182672
    83  C    0.143401
    84  C    0.143401
    85  Cl   0.014368
    86  Cl   0.029850
    87  Cl   0.029850
    88  Cl   0.030986
    89  Cl   0.030986
    90  Cl   0.037808
    91  Cl   0.037808
    92  Cl   0.037686
    93  Cl   0.037686
    94  Cl   0.036254
    95  Cl   0.036254
    96  Cl   0.035246
    97  Cl   0.035246
    98  Cl   0.014368
    99  Cl   0.038963
   100  Cl   0.038963
   101  Cl   0.036801
   102  Cl   0.036801
   103  Cl   0.034488
   104  Cl   0.034488
   105  Cl   0.027467
   106  Cl   0.027467
 Sum of Mulliken charges =  -0.00000
 Mulliken charges with hydrogens summed into heavy atoms:
               1
     1  C   -0.364536
     2  C   -0.396250
     3  C   -0.364536
     4  C   -0.396250
     5  C    0.082564
     6  C    0.084462
     7  C    0.082564
     8  C    0.084462
     9  C    0.057162
    10  C    0.131941
    11  C    0.131941
    12  C    0.057162
    13  C   -0.015923
    14  C   -0.015923
    15  C    0.046014
    16  C    0.046014
    17  C    0.117907
    18  C    0.117907
    19  C    0.150076
    20  C    0.150076
    21  C   -0.386289
    22  C   -0.386289
    23  C    0.181674
    24  C    0.181674
    25  C    0.185937
    26  C    0.185937
    27  C   -0.374763
    28  C   -0.374763
    29  C    0.129029
    30  C    0.129029
    31  C    0.131265
    32  C    0.131265
    33  C    0.053084
    34  C    0.053084
    35  C    0.091344
    36  C    0.091344
    37  C    0.076055
    38  C    0.076055
    39  C    0.155812
    40  C    0.113287
    41  C    0.113287
    42  C    0.155812
    43  C    0.086665
    44  C    0.150844
    45  C    0.150844
    46  C    0.086665
    47  C    0.121617
    48  C    0.121617
    49  C   -0.375763
    50  C   -0.375763
    51  C    0.180770
    52  C    0.180771
    53  C    0.105831
    54  C    0.105831
    55  C   -0.380763
    56  C   -0.380763
    57  C    0.111771
    58  C    0.111771
    59  C    0.123107
    60  C    0.123107
    61  C   -0.374795
    62  C   -0.374795
    63  C    0.125361
    64  C    0.125361
    65  C    0.128888
    66  C    0.128888
    67  C    0.122812
    68  C    0.122812
    69  C   -0.369595
    70  C   -0.369595
    71  C    0.181657
    72  C    0.181657
    73  C   -0.352412
    74  C   -0.352412
    75  C    0.200954
    76  C    0.200954
    77  C   -0.346148
    78  C   -0.346148
    79  C   -0.379246
    80  C   -0.379246
    81  C    0.187878
    82  C    0.182672
    83  C    0.143401
    84  C    0.143401
    85  Cl   0.014368
    86  Cl   0.029850
    87  Cl   0.029850
    88  Cl   0.030986
    89  Cl   0.030986
    90  Cl   0.037808
    91  Cl   0.037808
    92  Cl   0.037686
    93  Cl   0.037686
    94  Cl   0.036254
    95  Cl   0.036254
    96  Cl   0.035246
    97  Cl   0.035246
    98  Cl   0.014368
    99  Cl   0.038963
   100  Cl   0.038963
   101  Cl   0.036801
   102  Cl   0.036801
   103  Cl   0.034488
   104  Cl   0.034488
   105  Cl   0.027467
   106  Cl   0.027467
 Electronic spatial extent (au):  <R**2>=          87257.2613
 Charge=              0.0000 electrons
 Dipole moment (field-independent basis, Debye):
    X=             -0.2548    Y=              1.2586    Z=             -0.0000  Tot=              1.2841
 Quadrupole moment (field-independent basis, Debye-Ang):
   XX=           -788.0230   YY=           -787.1599   ZZ=           -762.6317
   XY=              0.6559   XZ=             -0.0000   YZ=              0.0000
 Traceless Quadrupole moment (field-independent basis, Debye-Ang):
   XX=             -8.7514   YY=             -7.8884   ZZ=             16.6398
   XY=              0.6559   XZ=             -0.0000   YZ=              0.0000
 Octapole moment (field-independent basis, Debye-Ang**2):
  XXX=             23.1986  YYY=            -25.7867  ZZZ=             -0.0000  XYY=             11.2962
  XXY=            -27.7630  XXZ=             -0.0000  XZZ=            -42.5980  YZZ=             48.9174
  YYZ=              0.0000  XYZ=             -0.0000
 Hexadecapole moment (field-independent basis, Debye-Ang**3):
 XXXX=         -45924.6505 YYYY=         -40333.1138 ZZZZ=         -34250.8036 XXXY=            -49.8118
 XXXZ=             -0.0001 YYYX=             98.8712 YYYZ=             -0.0000 ZZZX=             -0.0000
 ZZZY=              0.0000 XXYY=         -14426.0939 XXZZ=         -13260.4033 YYZZ=         -12551.8640
 XXYZ=              0.0000 YYXZ=             -0.0000 ZZXY=             43.5029
 N-N= 3.448689368761D+04 E-N=-1.004180712946D+05  KE= 1.326462817947D+04
 Leave Link  601 at Fri Jun 24 13:38:26 2022, MaxMem=  1342177280 cpu:              46.0 elap:               1.3
 (Enter /home/mkliu/g16/l9999.exe)
 1\1\GINC-NODE02\FOpt\RB3LYP\6-31G(d,p)\C84Cl22\MKLIU\24-Jun-2022\0\\#P
  opt b3lyp/6-31G(d, p) empiricaldispersion=GD3\\force\\0,1\C,8.2253711
 566,18.6365022623,10.6138554023\C,12.479510868,19.9968956187,8.9096720
 121\C,8.2253712798,27.1159977107,10.6138554703\C,12.4795109522,25.7556
 042749,8.9096720336\C,7.9535146198,18.9856355256,9.1640378716\C,11.866
 9986612,19.5809582145,10.2256049542\C,7.9535147419,26.7668645059,9.164
 0379257\C,11.8669986902,26.1715415545,10.2256049748\C,8.9545270964,19.
 1675491873,8.1709432814\C,12.1251716768,20.2374641555,11.404942531\C,1
 2.1251716325,25.5150355,11.404942493\C,8.9545272041,26.5849508431,8.17
 09433128\C,10.2945293452,19.0828897113,8.6025496828\C,10.2945294588,26
 .6696102409,8.6025497258\C,10.6159895775,18.9840353637,10.0306274965\C
 ,10.6159896537,26.7684644775,10.0306275378\C,9.6354341662,18.988062729
 7,11.0286061217\C,9.6354342589,26.764437159,11.028606183\C,9.907385615
 ,19.6522304491,12.2412105806\C,9.9073856923,26.1002694099,12.241210620
 2\C,8.7780548423,20.0592069859,13.1626497699\C,8.7780549115,25.6932929
 568,13.1626498188\C,7.4547089458,20.1571614026,12.4278768316\C,7.45470
 90377,25.5953385829,12.4278768791\C,7.2005452621,19.5076874267,11.3019
 707946\C,7.200545355,26.2448125655,11.3019708388\C,6.1042087533,19.949
 4438537,10.3556559302\C,6.1042088433,25.8030561861,10.3556559667\C,6.7
 257927509,19.5967508047,9.035931036\C,6.7257928451,26.1557492765,9.035
 9310751\C,6.4061234849,20.2765991495,7.8681666503\C,6.4061235463,25.47
 59009787,7.8681666693\C,7.3140181425,20.3659216133,6.8282382566\C,7.31
 40182013,25.3865785092,6.8282382589\C,8.663157409,19.9315588658,6.9862
 954107\C,8.6631574886,25.8209411892,6.9862954325\C,9.7339671842,20.608
 995911,6.3047235335\C,9.7339672529,25.1435041007,6.3047235551\C,11.032
 1017251,20.5633363556,6.819504022\C,12.6615587129,22.1809681021,7.7635
 90108\C,12.6615587495,23.5715317866,7.7635901603\C,11.032101786,25.189
 1636036,6.8195040445\C,11.3087899816,19.7661602825,7.9475933344\C,12.8
 36575993,21.4677711264,8.9465836064\C,12.8365761341,24.2847287488,8.94
 65836586\C,11.3087900904,25.9863396695,7.9475933544\C,13.0614262485,22
 .1708142041,10.1510909734\C,13.0614263719,23.5816856132,10.1510910513\
 C,13.0686683637,21.409844355,11.4816082377\C,13.0686686042,24.34265558
 17,11.4816083145\C,12.4326160596,22.212489318,12.5961845423\C,12.43261
 6686,23.540010796,12.596185105\C,11.1540770728,20.2634161815,12.416760
 3715\C,11.1540770622,25.4890834822,12.4167602925\C,11.4394891074,21.38
 92240252,13.3900615428\C,11.4394892159,24.3632759419,13.390061753\C,8.
 9567895577,21.4927200827,13.6148183768\C,8.9567896365,24.2597798696,13
 .6148184995\C,7.7561492131,22.1893885751,13.4906244819\C,7.7561492783,
 23.5631114023,13.4906245034\C,6.6781127332,21.3969558458,12.8102053199
 \C,6.6781128014,24.3555441556,12.8102053662\C,6.1672633425,22.16899665
 99,11.5806571974\C,6.1672633814,23.5835033733,11.5806572161\C,5.871794
 6493,21.4680867126,10.3984677797\C,5.8717947277,24.2844133375,10.39846
 7802\C,5.5566427504,22.1727419679,9.2091832712\C,5.5566428076,23.57975
 81157,9.2091832902\C,5.4130827033,21.4102051719,7.8760326396\C,5.41308
 27844,24.3422949246,7.8760326748\C,5.9094289484,22.2137522827,6.694864
 3531\C,5.9094290757,23.5387477852,6.6948644529\C,6.8564175539,21.39803
 43031,5.8356273937\C,6.8564176069,24.3544657707,5.8356274477\C,8.01772
 16523,22.2074888039,5.379321111\C,8.0177216838,23.5450112571,5.3793211
 5\C,9.398973208,21.6250590833,5.2220952336\C,9.3989732437,24.127440957
 4,5.2220952296\C,12.0653086273,21.6254893061,6.4795110551\C,12.0653086
 763,24.1270106374,6.479511099\C,10.2424066711,22.8762500044,5.34742582
 69\C,11.4450232656,22.87624999,5.9044594435\C,10.1786195247,22.1721081
 909,13.6872513123\C,10.1786196263,23.5803916926,13.6872514161\Cl,7.920
 5201337,16.8320911482,10.9184813262\Cl,12.1820874912,20.7589739959,14.
 9588080541\Cl,12.1820868466,24.993526703,14.9588083745\Cl,8.6729467144
 ,18.9057875725,14.5983324725\Cl,8.6729466752,26.8467125145,14.59833245
 49\Cl,5.2729104557,21.0065248284,13.9316631263\Cl,5.2729105386,24.7459
 751478,13.9316631817\Cl,13.9455288044,18.9773959883,8.4837067321\Cl,13
 .9455288162,26.7751039997,8.4837067486\Cl,13.3592758232,20.93623424,5.
 3657638688\Cl,13.3592759344,24.8162657078,5.3657639857\Cl,14.789629834
 8,20.9005247048,11.8893646702\Cl,14.78963008,24.8519758971,11.88936403
 63\Cl,7.9205203602,28.9204088603,10.9184814346\Cl,4.5367696988,19.0464
 999626,10.6832562867\Cl,4.536769772,26.7060000513,10.6832562937\Cl,3.6
 72651345,20.8694056909,7.6413905087\Cl,3.6726514267,24.8830943441,7.64
 13904902\Cl,5.9958786491,20.6056879085,4.4072080504\Cl,5.995878591,25.
 1468120262,4.4072080925\Cl,9.609611296,20.8248698144,3.5664525386\Cl,9
 .6096112622,24.9276302076,3.5664525832\\Version=ES64L-G16RevA.03\State
 =1-A\HF=-13325.4345363\RMSD=3.462e-09\RMSF=1.703e-05\Dipole=0.4123831,
 -0.0000004,-0.2918396\Quadrupole=-5.6090558,12.3712837,-6.7622279,-0.0
 000026,0.0910273,-0.0000044\PG=C01 [X(C84Cl22)]\\@


 Cherishing children is the mark of a civilized society.
 -- Joan Ganz Cooney
 Job cpu time:       1 days 22 hours 54 minutes 34.7 seconds.
 Elapsed time:       0 days  0 hours 58 minutes 50.6 seconds.
 File lengths (MBytes):  RWF=   1725 Int=      0 D2E=      0 Chk=    215 Scr=      1
 Normal termination of Gaussian 16 at Fri Jun 24 13:38:30 2022.
