 Entering Gaussian System, Link 0=g16
 Input=2_addons_C84_14_Cl22_rank_6.gjf
 Output=2_addons_C84_14_Cl22_rank_6.log
 Initial command:
 /home/mkliu/g16/l1.exe "/data/scratch/Gau-3906.inp" -scrdir="/data/scratch/"
 Entering Link 1 = /home/mkliu/g16/l1.exe PID=      3907.
  
 Copyright (c) 1988,1990,1992,1993,1995,1998,2003,2009,2016,
            Gaussian, Inc.  All Rights Reserved.
  
 This is part of the Gaussian(R) 16 program.  It is based on
 the Gaussian(R) 09 system (copyright 2009, Gaussian, Inc.),
 the Gaussian(R) 03 system (copyright 2003, Gaussian, Inc.),
 the Gaussian(R) 98 system (copyright 1998, Gaussian, Inc.),
 the Gaussian(R) 94 system (copyright 1995, Gaussian, Inc.),
 the Gaussian 92(TM) system (copyright 1992, Gaussian, Inc.),
 the Gaussian 90(TM) system (copyright 1990, Gaussian, Inc.),
 the Gaussian 88(TM) system (copyright 1988, Gaussian, Inc.),
 the Gaussian 86(TM) system (copyright 1986, Carnegie Mellon
 University), and the Gaussian 82(TM) system (copyright 1983,
 Carnegie Mellon University). Gaussian is a federally registered
 trademark of Gaussian, Inc.
  
 This software contains proprietary and confidential information,
 including trade secrets, belonging to Gaussian, Inc.
  
 This software is provided under written license and may be
 used, copied, transmitted, or stored only in accord with that
 written license.
  
 The following legend is applicable only to US Government
 contracts under FAR:
  
                    RESTRICTED RIGHTS LEGEND
  
 Use, reproduction and disclosure by the US Government is
 subject to restrictions as set forth in subparagraphs (a)
 and (c) of the Commercial Computer Software - Restricted
 Rights clause in FAR 52.227-19.
  
 Gaussian, Inc.
 340 Quinnipiac St., Bldg. 40, Wallingford CT 06492
  
  
 ---------------------------------------------------------------
 Warning -- This program may not be used in any manner that
 competes with the business of Gaussian, Inc. or will provide
 assistance to any competitor of Gaussian, Inc.  The licensee
 of this program is prohibited from giving any competitor of
 Gaussian, Inc. access to this program.  By using this program,
 the user acknowledges that Gaussian, Inc. is engaged in the
 business of creating and licensing software in the field of
 computational chemistry and represents and warrants to the
 licensee that it is not a competitor of Gaussian, Inc. and that
 it will not use this program in any manner prohibited above.
 ---------------------------------------------------------------
  

 Cite this work as:
 Gaussian 16, Revision A.03,
 M. J. Frisch, G. W. Trucks, H. B. Schlegel, G. E. Scuseria, 
 M. A. Robb, J. R. Cheeseman, G. Scalmani, V. Barone, 
 G. A. Petersson, H. Nakatsuji, X. Li, M. Caricato, A. V. Marenich, 
 J. Bloino, B. G. Janesko, R. Gomperts, B. Mennucci, H. P. Hratchian, 
 J. V. Ortiz, A. F. Izmaylov, J. L. Sonnenberg, D. Williams-Young, 
 F. Ding, F. Lipparini, F. Egidi, J. Goings, B. Peng, A. Petrone, 
 T. Henderson, D. Ranasinghe, V. G. Zakrzewski, J. Gao, N. Rega, 
 G. Zheng, W. Liang, M. Hada, M. Ehara, K. Toyota, R. Fukuda, 
 J. Hasegawa, M. Ishida, T. Nakajima, Y. Honda, O. Kitao, H. Nakai, 
 T. Vreven, K. Throssell, J. A. Montgomery, Jr., J. E. Peralta, 
 F. Ogliaro, M. J. Bearpark, J. J. Heyd, E. N. Brothers, K. N. Kudin, 
 V. N. Staroverov, T. A. Keith, R. Kobayashi, J. Normand, 
 K. Raghavachari, A. P. Rendell, J. C. Burant, S. S. Iyengar, 
 J. Tomasi, M. Cossi, J. M. Millam, M. Klene, C. Adamo, R. Cammi, 
 J. W. Ochterski, R. L. Martin, K. Morokuma, O. Farkas, 
 J. B. Foresman, and D. J. Fox, Gaussian, Inc., Wallingford CT, 2016.
 
 ******************************************
 Gaussian 16:  ES64L-G16RevA.03 25-Dec-2016
                28-Jun-2022 
 ******************************************
 %mem=10GB
 %chk=2_addons_C84_14_Cl22_rank_6.chk
 %nprocshared=24
 Will use up to   24 processors via shared memory.
 ------------------------------------------------
 #P opt b3lyp/6-31G(d, p) empiricaldispersion=GD3
 ------------------------------------------------
 1/18=20,19=15,26=3,38=1/1,3;
 2/9=110,12=2,17=6,18=5,40=1/2;
 3/5=1,6=6,7=101,11=2,25=1,30=1,71=1,74=-5,124=31/1,2,3;
 4//1;
 5/5=2,38=5/2;
 6/7=2,8=2,9=2,10=2,28=1/1;
 7//1,2,3,16;
 1/18=20,19=15,26=3/3(2);
 2/9=110/2;
 99//99;
 2/9=110/2;
 3/5=1,6=6,7=101,11=2,25=1,30=1,71=1,74=-5,124=31/1,2,3;
 4/5=5,16=3,69=1/1;
 5/5=2,38=5/2;
 7//1,2,3,16;
 1/18=20,19=15,26=3/3(-5);
 2/9=110/2;
 6/7=2,8=2,9=2,10=2,19=2,28=1/1;
 99/9=1/99;
 Leave Link    1 at Tue Jun 28 07:57:23 2022, MaxMem=  1342177280 cpu:               0.6 elap:               0.1
 (Enter /home/mkliu/g16/l101.exe)
 -----
 force
 -----
 Symbolic Z-matrix:
 Charge =  0 Multiplicity = 1
 C                     8.28351   18.88225   10.52973 
 C                     12.28674   20.17086   8.96405 
 C                     8.28325   26.87014   10.52995 
 C                     12.28657   25.58189   8.96421 
 C                     7.97656   18.93714   9.14408 
 C                     11.8559   19.58937   10.20103 
 C                     7.9763    26.81531   9.14429 
 C                     11.85569   26.16329   10.20121 
 C                     8.97029   19.09746   8.15024 
 C                     12.1231   20.23497   11.37699 
 C                     12.12293   25.51763   11.37713 
 C                     8.97004   26.6551   8.15044 
 C                     10.29359   19.02954   8.62323 
 C                     10.29334   26.72309   8.62344 
 C                     10.60101   18.91837   10.00091 
 C                     10.60075   26.83421   10.00113 
 C                     9.60653   18.93965   11.00625 
 C                     9.60627   26.8128   11.00647 
 C                     9.88464   19.62914   12.25612 
 C                     9.88442   26.12326   12.2563 
 C                     8.82081   20.23985   12.95255 
 C                     8.82063   25.51246   12.9527 
 C                     7.48802   20.2343   12.3982 
 C                     7.48783   25.51796   12.39835 
 C                     7.22172   19.56565   11.22853 
 C                     7.2215    26.18665   11.22871 
 C                     6.30939   20.12424   10.29379 
 C                     6.30921   25.62807   10.29393 
 C                     6.71065   19.59365   9.01034 
 C                     6.71044   26.15873   9.01051 
 C                     6.39427   20.23901   7.86463 
 C                     6.39409   25.51343   7.86475 
 C                     7.35045   20.32464   6.81493 
 C                     7.35027   25.42794   6.81503 
 C                     8.67726   19.86074   6.96112 
 C                     8.67705   25.89189   6.96127 
 C                     9.73438   20.58899   6.29088 
 C                     9.73423   25.16375   6.291 
 C                     11.07107   20.57568   6.85097 
 C                     12.76214   22.15391   7.75014 
 C                     12.76207   23.59893   7.7502 
 C                     11.07092   25.17711   6.8511 
 C                     11.33834   19.7882   7.97964 
 C                     12.92874   21.43188   8.94057 
 C                     12.92865   24.32091   8.94065 
 C                     11.33814   25.96454   7.97982 
 C                     13.16677   22.15141   10.17736 
 C                     13.16673   23.60133   10.1774 
 C                     12.83195   21.48879   11.37086 
 C                     12.83187   24.26387   11.37094 
 C                     12.38028   22.19049   12.52645 
 C                     12.38026   23.56207   12.52649 
 C                     11.14527   20.24408   12.43583 
 C                     11.1451   25.5084   12.43597 
 C                     11.30146   21.46055   13.14819 
 C                     11.30137   24.29191   13.14827 
 C                     8.97719   21.46137   13.65732 
 C                     8.97708   24.29092   13.65742 
 C                     7.74441   22.19344   13.51859 
 C                     7.74431   23.5588   13.51871 
 C                     6.86355   21.48881   12.63372 
 C                     6.86343   24.26341   12.63382 
 C                     6.13003   22.15663   11.62551 
 C                     6.12995   23.5956   11.62557 
 C                     5.84766   21.44692   10.4049 
 C                     5.84755   24.30536   10.40497 
 C                     5.54733   22.18899   9.19404 
 C                     5.54727   23.56334   9.19405 
 C                     5.44717   21.40807   7.88191 
 C                     5.44702   24.34435   7.88194 
 C                     5.96503   22.19824   6.71782 
 C                     5.9648    23.55432   6.71766 
 C                     7.02531   21.49042   6.067 
 C                     7.02516   24.26221   6.06698 
 C                     8.03437   22.16007   5.39968 
 C                     8.03431   23.59264   5.3997 
 C                     9.3786    21.69801   5.50138 
 C                     9.37852   24.05476   5.50144 
 C                     11.91059   21.7069   6.70822 
 C                     11.91051   24.04595   6.70829 
 C                     10.20819   22.87641   5.44039 
 C                     11.44181   22.87643   6.0286 
 C                     10.20965   22.1492   13.71859 
 C                     10.20959   23.60316   13.71862 
 Cl                    3.72186   20.89383   7.67331 
 Cl                    3.72169   24.85862   7.67354 
 
 ITRead=  0  0  0  0  0  0  0  0  0  0  0  0  0  0  0  0  0  0  0  0
 ITRead=  0  0  0  0  0  0  0  0  0  0  0  0  0  0  0  0  0  0  0  0
 ITRead=  0  0  0  0  0  0  0  0  0  0  0  0  0  0  0  0  0  0  0  0
 ITRead=  0  0  0  0  0  0  0  0  0  0  0  0  0  0  0  0  0  0  0  0
 ITRead=  0  0  0  0  0  0
 MicOpt= -1 -1 -1 -1 -1 -1 -1 -1 -1 -1 -1 -1 -1 -1 -1 -1 -1 -1 -1 -1
 MicOpt= -1 -1 -1 -1 -1 -1 -1 -1 -1 -1 -1 -1 -1 -1 -1 -1 -1 -1 -1 -1
 MicOpt= -1 -1 -1 -1 -1 -1 -1 -1 -1 -1 -1 -1 -1 -1 -1 -1 -1 -1 -1 -1
 MicOpt= -1 -1 -1 -1 -1 -1 -1 -1 -1 -1 -1 -1 -1 -1 -1 -1 -1 -1 -1 -1
 MicOpt= -1 -1 -1 -1 -1 -1
 NAtoms=     86 NQM=       86 NQMF=       0 NMMI=      0 NMMIF=      0
                NMic=       0 NMicF=      0.
                    Isotopes and Nuclear Properties:
 (Nuclear quadrupole moments (NQMom) in fm**2, nuclear magnetic moments (NMagM)
  in nuclear magnetons)

  Atom         1           2           3           4           5           6           7           8           9          10
 IAtWgt=          12          12          12          12          12          12          12          12          12          12
 AtmWgt=  12.0000000  12.0000000  12.0000000  12.0000000  12.0000000  12.0000000  12.0000000  12.0000000  12.0000000  12.0000000
 NucSpn=           0           0           0           0           0           0           0           0           0           0
 AtZEff=  -0.0000000  -0.0000000  -0.0000000  -0.0000000  -0.0000000  -0.0000000  -0.0000000  -0.0000000  -0.0000000  -0.0000000
 NQMom=    0.0000000   0.0000000   0.0000000   0.0000000   0.0000000   0.0000000   0.0000000   0.0000000   0.0000000   0.0000000
 NMagM=    0.0000000   0.0000000   0.0000000   0.0000000   0.0000000   0.0000000   0.0000000   0.0000000   0.0000000   0.0000000
 AtZNuc=   6.0000000   6.0000000   6.0000000   6.0000000   6.0000000   6.0000000   6.0000000   6.0000000   6.0000000   6.0000000

  Atom        11          12          13          14          15          16          17          18          19          20
 IAtWgt=          12          12          12          12          12          12          12          12          12          12
 AtmWgt=  12.0000000  12.0000000  12.0000000  12.0000000  12.0000000  12.0000000  12.0000000  12.0000000  12.0000000  12.0000000
 NucSpn=           0           0           0           0           0           0           0           0           0           0
 AtZEff=  -0.0000000  -0.0000000  -0.0000000  -0.0000000  -0.0000000  -0.0000000  -0.0000000  -0.0000000  -0.0000000  -0.0000000
 NQMom=    0.0000000   0.0000000   0.0000000   0.0000000   0.0000000   0.0000000   0.0000000   0.0000000   0.0000000   0.0000000
 NMagM=    0.0000000   0.0000000   0.0000000   0.0000000   0.0000000   0.0000000   0.0000000   0.0000000   0.0000000   0.0000000
 AtZNuc=   6.0000000   6.0000000   6.0000000   6.0000000   6.0000000   6.0000000   6.0000000   6.0000000   6.0000000   6.0000000

  Atom        21          22          23          24          25          26          27          28          29          30
 IAtWgt=          12          12          12          12          12          12          12          12          12          12
 AtmWgt=  12.0000000  12.0000000  12.0000000  12.0000000  12.0000000  12.0000000  12.0000000  12.0000000  12.0000000  12.0000000
 NucSpn=           0           0           0           0           0           0           0           0           0           0
 AtZEff=  -0.0000000  -0.0000000  -0.0000000  -0.0000000  -0.0000000  -0.0000000  -0.0000000  -0.0000000  -0.0000000  -0.0000000
 NQMom=    0.0000000   0.0000000   0.0000000   0.0000000   0.0000000   0.0000000   0.0000000   0.0000000   0.0000000   0.0000000
 NMagM=    0.0000000   0.0000000   0.0000000   0.0000000   0.0000000   0.0000000   0.0000000   0.0000000   0.0000000   0.0000000
 AtZNuc=   6.0000000   6.0000000   6.0000000   6.0000000   6.0000000   6.0000000   6.0000000   6.0000000   6.0000000   6.0000000

  Atom        31          32          33          34          35          36          37          38          39          40
 IAtWgt=          12          12          12          12          12          12          12          12          12          12
 AtmWgt=  12.0000000  12.0000000  12.0000000  12.0000000  12.0000000  12.0000000  12.0000000  12.0000000  12.0000000  12.0000000
 NucSpn=           0           0           0           0           0           0           0           0           0           0
 AtZEff=  -0.0000000  -0.0000000  -0.0000000  -0.0000000  -0.0000000  -0.0000000  -0.0000000  -0.0000000  -0.0000000  -0.0000000
 NQMom=    0.0000000   0.0000000   0.0000000   0.0000000   0.0000000   0.0000000   0.0000000   0.0000000   0.0000000   0.0000000
 NMagM=    0.0000000   0.0000000   0.0000000   0.0000000   0.0000000   0.0000000   0.0000000   0.0000000   0.0000000   0.0000000
 AtZNuc=   6.0000000   6.0000000   6.0000000   6.0000000   6.0000000   6.0000000   6.0000000   6.0000000   6.0000000   6.0000000

  Atom        41          42          43          44          45          46          47          48          49          50
 IAtWgt=          12          12          12          12          12          12          12          12          12          12
 AtmWgt=  12.0000000  12.0000000  12.0000000  12.0000000  12.0000000  12.0000000  12.0000000  12.0000000  12.0000000  12.0000000
 NucSpn=           0           0           0           0           0           0           0           0           0           0
 AtZEff=  -0.0000000  -0.0000000  -0.0000000  -0.0000000  -0.0000000  -0.0000000  -0.0000000  -0.0000000  -0.0000000  -0.0000000
 NQMom=    0.0000000   0.0000000   0.0000000   0.0000000   0.0000000   0.0000000   0.0000000   0.0000000   0.0000000   0.0000000
 NMagM=    0.0000000   0.0000000   0.0000000   0.0000000   0.0000000   0.0000000   0.0000000   0.0000000   0.0000000   0.0000000
 AtZNuc=   6.0000000   6.0000000   6.0000000   6.0000000   6.0000000   6.0000000   6.0000000   6.0000000   6.0000000   6.0000000

  Atom        51          52          53          54          55          56          57          58          59          60
 IAtWgt=          12          12          12          12          12          12          12          12          12          12
 AtmWgt=  12.0000000  12.0000000  12.0000000  12.0000000  12.0000000  12.0000000  12.0000000  12.0000000  12.0000000  12.0000000
 NucSpn=           0           0           0           0           0           0           0           0           0           0
 AtZEff=  -0.0000000  -0.0000000  -0.0000000  -0.0000000  -0.0000000  -0.0000000  -0.0000000  -0.0000000  -0.0000000  -0.0000000
 NQMom=    0.0000000   0.0000000   0.0000000   0.0000000   0.0000000   0.0000000   0.0000000   0.0000000   0.0000000   0.0000000
 NMagM=    0.0000000   0.0000000   0.0000000   0.0000000   0.0000000   0.0000000   0.0000000   0.0000000   0.0000000   0.0000000
 AtZNuc=   6.0000000   6.0000000   6.0000000   6.0000000   6.0000000   6.0000000   6.0000000   6.0000000   6.0000000   6.0000000

  Atom        61          62          63          64          65          66          67          68          69          70
 IAtWgt=          12          12          12          12          12          12          12          12          12          12
 AtmWgt=  12.0000000  12.0000000  12.0000000  12.0000000  12.0000000  12.0000000  12.0000000  12.0000000  12.0000000  12.0000000
 NucSpn=           0           0           0           0           0           0           0           0           0           0
 AtZEff=  -0.0000000  -0.0000000  -0.0000000  -0.0000000  -0.0000000  -0.0000000  -0.0000000  -0.0000000  -0.0000000  -0.0000000
 NQMom=    0.0000000   0.0000000   0.0000000   0.0000000   0.0000000   0.0000000   0.0000000   0.0000000   0.0000000   0.0000000
 NMagM=    0.0000000   0.0000000   0.0000000   0.0000000   0.0000000   0.0000000   0.0000000   0.0000000   0.0000000   0.0000000
 AtZNuc=   6.0000000   6.0000000   6.0000000   6.0000000   6.0000000   6.0000000   6.0000000   6.0000000   6.0000000   6.0000000

  Atom        71          72          73          74          75          76          77          78          79          80
 IAtWgt=          12          12          12          12          12          12          12          12          12          12
 AtmWgt=  12.0000000  12.0000000  12.0000000  12.0000000  12.0000000  12.0000000  12.0000000  12.0000000  12.0000000  12.0000000
 NucSpn=           0           0           0           0           0           0           0           0           0           0
 AtZEff=  -0.0000000  -0.0000000  -0.0000000  -0.0000000  -0.0000000  -0.0000000  -0.0000000  -0.0000000  -0.0000000  -0.0000000
 NQMom=    0.0000000   0.0000000   0.0000000   0.0000000   0.0000000   0.0000000   0.0000000   0.0000000   0.0000000   0.0000000
 NMagM=    0.0000000   0.0000000   0.0000000   0.0000000   0.0000000   0.0000000   0.0000000   0.0000000   0.0000000   0.0000000
 AtZNuc=   6.0000000   6.0000000   6.0000000   6.0000000   6.0000000   6.0000000   6.0000000   6.0000000   6.0000000   6.0000000

  Atom        81          82          83          84          85          86
 IAtWgt=          12          12          12          12          35          35
 AtmWgt=  12.0000000  12.0000000  12.0000000  12.0000000  34.9688527  34.9688527
 NucSpn=           0           0           0           0           3           3
 AtZEff=  -0.0000000  -0.0000000  -0.0000000  -0.0000000  -0.0000000  -0.0000000
 NQMom=    0.0000000   0.0000000   0.0000000   0.0000000  -8.1650000  -8.1650000
 NMagM=    0.0000000   0.0000000   0.0000000   0.0000000   0.8218740   0.8218740
 AtZNuc=   6.0000000   6.0000000   6.0000000   6.0000000  17.0000000  17.0000000
 Leave Link  101 at Tue Jun 28 07:57:23 2022, MaxMem=  1342177280 cpu:               6.5 elap:               0.3
 (Enter /home/mkliu/g16/l103.exe)

 GradGradGradGradGradGradGradGradGradGradGradGradGradGradGradGradGradGrad
 Berny optimization.
 Initialization pass.
                           ----------------------------
                           !    Initial Parameters    !
                           ! (Angstroms and Degrees)  !
 --------------------------                            --------------------------
 ! Name  Definition              Value          Derivative Info.                !
 --------------------------------------------------------------------------------
 ! R1    R(1,5)                  1.4203         estimate D2E/DX2                !
 ! R2    R(1,17)                 1.4074         estimate D2E/DX2                !
 ! R3    R(1,25)                 1.4432         estimate D2E/DX2                !
 ! R4    R(2,6)                  1.4331         estimate D2E/DX2                !
 ! R5    R(2,43)                 1.4195         estimate D2E/DX2                !
 ! R6    R(2,44)                 1.4152         estimate D2E/DX2                !
 ! R7    R(3,7)                  1.4203         estimate D2E/DX2                !
 ! R8    R(3,18)                 1.4074         estimate D2E/DX2                !
 ! R9    R(3,26)                 1.4432         estimate D2E/DX2                !
 ! R10   R(4,8)                  1.4331         estimate D2E/DX2                !
 ! R11   R(4,45)                 1.4152         estimate D2E/DX2                !
 ! R12   R(4,46)                 1.4195         estimate D2E/DX2                !
 ! R13   R(5,9)                  1.4145         estimate D2E/DX2                !
 ! R14   R(5,29)                 1.4323         estimate D2E/DX2                !
 ! R15   R(6,10)                 1.3679         estimate D2E/DX2                !
 ! R16   R(6,15)                 1.437          estimate D2E/DX2                !
 ! R17   R(7,12)                 1.4145         estimate D2E/DX2                !
 ! R18   R(7,30)                 1.4323         estimate D2E/DX2                !
 ! R19   R(8,11)                 1.3679         estimate D2E/DX2                !
 ! R20   R(8,16)                 1.437          estimate D2E/DX2                !
 ! R21   R(9,13)                 1.4069         estimate D2E/DX2                !
 ! R22   R(9,35)                 1.4431         estimate D2E/DX2                !
 ! R23   R(10,49)                1.4403         estimate D2E/DX2                !
 ! R24   R(10,53)                1.4413         estimate D2E/DX2                !
 ! R25   R(11,50)                1.4403         estimate D2E/DX2                !
 ! R26   R(11,54)                1.4413         estimate D2E/DX2                !
 ! R27   R(12,14)                1.4069         estimate D2E/DX2                !
 ! R28   R(12,36)                1.4431         estimate D2E/DX2                !
 ! R29   R(13,15)                1.4159         estimate D2E/DX2                !
 ! R30   R(13,43)                1.4427         estimate D2E/DX2                !
 ! R31   R(14,16)                1.4159         estimate D2E/DX2                !
 ! R32   R(14,46)                1.4427         estimate D2E/DX2                !
 ! R33   R(15,17)                1.4143         estimate D2E/DX2                !
 ! R34   R(16,18)                1.4143         estimate D2E/DX2                !
 ! R35   R(17,19)                1.4543         estimate D2E/DX2                !
 ! R36   R(18,20)                1.4543         estimate D2E/DX2                !
 ! R37   R(19,21)                1.4106         estimate D2E/DX2                !
 ! R38   R(19,53)                1.4141         estimate D2E/DX2                !
 ! R39   R(20,22)                1.4106         estimate D2E/DX2                !
 ! R40   R(20,54)                1.4141         estimate D2E/DX2                !
 ! R41   R(21,23)                1.4435         estimate D2E/DX2                !
 ! R42   R(21,57)                1.4189         estimate D2E/DX2                !
 ! R43   R(22,24)                1.4435         estimate D2E/DX2                !
 ! R44   R(22,58)                1.4189         estimate D2E/DX2                !
 ! R45   R(23,25)                1.3734         estimate D2E/DX2                !
 ! R46   R(23,61)                1.421          estimate D2E/DX2                !
 ! R47   R(24,26)                1.3734         estimate D2E/DX2                !
 ! R48   R(24,62)                1.421          estimate D2E/DX2                !
 ! R49   R(25,27)                1.4206         estimate D2E/DX2                !
 ! R50   R(26,28)                1.4206         estimate D2E/DX2                !
 ! R51   R(27,29)                1.4456         estimate D2E/DX2                !
 ! R52   R(27,65)                1.4054         estimate D2E/DX2                !
 ! R53   R(28,30)                1.4456         estimate D2E/DX2                !
 ! R54   R(28,66)                1.4054         estimate D2E/DX2                !
 ! R55   R(29,31)                1.3525         estimate D2E/DX2                !
 ! R56   R(30,32)                1.3525         estimate D2E/DX2                !
 ! R57   R(31,33)                1.4225         estimate D2E/DX2                !
 ! R58   R(31,69)                1.5047         estimate D2E/DX2                !
 ! R59   R(32,34)                1.4225         estimate D2E/DX2                !
 ! R60   R(32,70)                1.5047         estimate D2E/DX2                !
 ! R61   R(33,35)                1.4131         estimate D2E/DX2                !
 ! R62   R(33,73)                1.4227         estimate D2E/DX2                !
 ! R63   R(34,36)                1.4132         estimate D2E/DX2                !
 ! R64   R(34,74)                1.4227         estimate D2E/DX2                !
 ! R65   R(35,37)                1.4481         estimate D2E/DX2                !
 ! R66   R(36,38)                1.4481         estimate D2E/DX2                !
 ! R67   R(37,39)                1.4494         estimate D2E/DX2                !
 ! R68   R(37,77)                1.4071         estimate D2E/DX2                !
 ! R69   R(38,42)                1.4494         estimate D2E/DX2                !
 ! R70   R(38,78)                1.4071         estimate D2E/DX2                !
 ! R71   R(39,43)                1.4019         estimate D2E/DX2                !
 ! R72   R(39,79)                1.4159         estimate D2E/DX2                !
 ! R73   R(40,41)                1.445          estimate D2E/DX2                !
 ! R74   R(40,44)                1.4022         estimate D2E/DX2                !
 ! R75   R(40,79)                1.4179         estimate D2E/DX2                !
 ! R76   R(41,45)                1.4022         estimate D2E/DX2                !
 ! R77   R(41,80)                1.4179         estimate D2E/DX2                !
 ! R78   R(42,46)                1.4019         estimate D2E/DX2                !
 ! R79   R(42,80)                1.4159         estimate D2E/DX2                !
 ! R80   R(44,47)                1.4505         estimate D2E/DX2                !
 ! R81   R(45,48)                1.4505         estimate D2E/DX2                !
 ! R82   R(47,48)                1.4499         estimate D2E/DX2                !
 ! R83   R(47,49)                1.4056         estimate D2E/DX2                !
 ! R84   R(48,50)                1.4056         estimate D2E/DX2                !
 ! R85   R(49,51)                1.4254         estimate D2E/DX2                !
 ! R86   R(50,52)                1.4254         estimate D2E/DX2                !
 ! R87   R(51,52)                1.3716         estimate D2E/DX2                !
 ! R88   R(51,55)                1.4433         estimate D2E/DX2                !
 ! R89   R(52,56)                1.4433         estimate D2E/DX2                !
 ! R90   R(53,55)                1.4183         estimate D2E/DX2                !
 ! R91   R(54,56)                1.4183         estimate D2E/DX2                !
 ! R92   R(55,83)                1.4113         estimate D2E/DX2                !
 ! R93   R(56,84)                1.4113         estimate D2E/DX2                !
 ! R94   R(57,59)                1.4405         estimate D2E/DX2                !
 ! R95   R(57,83)                1.4127         estimate D2E/DX2                !
 ! R96   R(58,60)                1.4405         estimate D2E/DX2                !
 ! R97   R(58,84)                1.4127         estimate D2E/DX2                !
 ! R98   R(59,60)                1.3654         estimate D2E/DX2                !
 ! R99   R(59,61)                1.4337         estimate D2E/DX2                !
 ! R100  R(60,62)                1.4337         estimate D2E/DX2                !
 ! R101  R(61,63)                1.4144         estimate D2E/DX2                !
 ! R102  R(62,64)                1.4144         estimate D2E/DX2                !
 ! R103  R(63,64)                1.439          estimate D2E/DX2                !
 ! R104  R(63,65)                1.4399         estimate D2E/DX2                !
 ! R105  R(64,66)                1.4399         estimate D2E/DX2                !
 ! R106  R(65,67)                1.4516         estimate D2E/DX2                !
 ! R107  R(66,68)                1.4516         estimate D2E/DX2                !
 ! R108  R(67,68)                1.3743         estimate D2E/DX2                !
 ! R109  R(67,69)                1.5302         estimate D2E/DX2                !
 ! R110  R(68,70)                1.5302         estimate D2E/DX2                !
 ! R111  R(69,71)                1.4992         estimate D2E/DX2                !
 ! R112  R(69,85)                1.8124         estimate D2E/DX2                !
 ! R113  R(70,72)                1.4993         estimate D2E/DX2                !
 ! R114  R(70,86)                1.8124         estimate D2E/DX2                !
 ! R115  R(71,72)                1.3561         estimate D2E/DX2                !
 ! R116  R(71,73)                1.4313         estimate D2E/DX2                !
 ! R117  R(72,74)                1.4314         estimate D2E/DX2                !
 ! R118  R(73,75)                1.3827         estimate D2E/DX2                !
 ! R119  R(74,76)                1.3827         estimate D2E/DX2                !
 ! R120  R(75,76)                1.4326         estimate D2E/DX2                !
 ! R121  R(75,77)                1.4251         estimate D2E/DX2                !
 ! R122  R(76,78)                1.4251         estimate D2E/DX2                !
 ! R123  R(77,81)                1.4424         estimate D2E/DX2                !
 ! R124  R(78,81)                1.4424         estimate D2E/DX2                !
 ! R125  R(79,82)                1.4316         estimate D2E/DX2                !
 ! R126  R(80,82)                1.4316         estimate D2E/DX2                !
 ! R127  R(81,82)                1.3667         estimate D2E/DX2                !
 ! R128  R(83,84)                1.454          estimate D2E/DX2                !
 ! A1    A(5,1,17)             122.1344         estimate D2E/DX2                !
 ! A2    A(5,1,25)             107.1632         estimate D2E/DX2                !
 ! A3    A(17,1,25)            120.5551         estimate D2E/DX2                !
 ! A4    A(6,2,43)             106.7587         estimate D2E/DX2                !
 ! A5    A(6,2,44)             120.8127         estimate D2E/DX2                !
 ! A6    A(43,2,44)            122.1255         estimate D2E/DX2                !
 ! A7    A(7,3,18)             122.1346         estimate D2E/DX2                !
 ! A8    A(7,3,26)             107.1633         estimate D2E/DX2                !
 ! A9    A(18,3,26)            120.5553         estimate D2E/DX2                !
 ! A10   A(8,4,45)             120.8125         estimate D2E/DX2                !
 ! A11   A(8,4,46)             106.7586         estimate D2E/DX2                !
 ! A12   A(45,4,46)            122.1255         estimate D2E/DX2                !
 ! A13   A(1,5,9)              122.5478         estimate D2E/DX2                !
 ! A14   A(1,5,29)             107.4469         estimate D2E/DX2                !
 ! A15   A(9,5,29)             120.2221         estimate D2E/DX2                !
 ! A16   A(2,6,10)             119.4591         estimate D2E/DX2                !
 ! A17   A(2,6,15)             109.377          estimate D2E/DX2                !
 ! A18   A(10,6,15)            120.7094         estimate D2E/DX2                !
 ! A19   A(3,7,12)             122.548          estimate D2E/DX2                !
 ! A20   A(3,7,30)             107.4473         estimate D2E/DX2                !
 ! A21   A(12,7,30)            120.2218         estimate D2E/DX2                !
 ! A22   A(4,8,11)             119.4591         estimate D2E/DX2                !
 ! A23   A(4,8,16)             109.3769         estimate D2E/DX2                !
 ! A24   A(11,8,16)            120.7095         estimate D2E/DX2                !
 ! A25   A(5,9,13)             114.7766         estimate D2E/DX2                !
 ! A26   A(5,9,35)             119.7518         estimate D2E/DX2                !
 ! A27   A(13,9,35)            119.5739         estimate D2E/DX2                !
 ! A28   A(6,10,49)            120.221          estimate D2E/DX2                !
 ! A29   A(6,10,53)            120.1342         estimate D2E/DX2                !
 ! A30   A(49,10,53)           109.3604         estimate D2E/DX2                !
 ! A31   A(8,11,50)            120.2211         estimate D2E/DX2                !
 ! A32   A(8,11,54)            120.134          estimate D2E/DX2                !
 ! A33   A(50,11,54)           109.3605         estimate D2E/DX2                !
 ! A34   A(7,12,14)            114.7763         estimate D2E/DX2                !
 ! A35   A(7,12,36)            119.7518         estimate D2E/DX2                !
 ! A36   A(14,12,36)           119.5747         estimate D2E/DX2                !
 ! A37   A(9,13,15)            122.3504         estimate D2E/DX2                !
 ! A38   A(9,13,43)            120.3825         estimate D2E/DX2                !
 ! A39   A(15,13,43)           108.5494         estimate D2E/DX2                !
 ! A40   A(12,14,16)           122.3507         estimate D2E/DX2                !
 ! A41   A(12,14,46)           120.3824         estimate D2E/DX2                !
 ! A42   A(16,14,46)           108.5493         estimate D2E/DX2                !
 ! A43   A(6,15,13)            106.764          estimate D2E/DX2                !
 ! A44   A(6,15,17)            120.5328         estimate D2E/DX2                !
 ! A45   A(13,15,17)           122.5345         estimate D2E/DX2                !
 ! A46   A(8,16,14)            106.7641         estimate D2E/DX2                !
 ! A47   A(8,16,18)            120.5328         estimate D2E/DX2                !
 ! A48   A(14,16,18)           122.5343         estimate D2E/DX2                !
 ! A49   A(1,17,15)            114.8171         estimate D2E/DX2                !
 ! A50   A(1,17,19)            119.3472         estimate D2E/DX2                !
 ! A51   A(15,17,19)           118.9212         estimate D2E/DX2                !
 ! A52   A(3,18,16)            114.8169         estimate D2E/DX2                !
 ! A53   A(3,18,20)            119.3472         estimate D2E/DX2                !
 ! A54   A(16,18,20)           118.9214         estimate D2E/DX2                !
 ! A55   A(17,19,21)           119.0368         estimate D2E/DX2                !
 ! A56   A(17,19,53)           119.0703         estimate D2E/DX2                !
 ! A57   A(21,19,53)           114.9177         estimate D2E/DX2                !
 ! A58   A(18,20,22)           119.0368         estimate D2E/DX2                !
 ! A59   A(18,20,54)           119.07           estimate D2E/DX2                !
 ! A60   A(22,20,54)           114.9183         estimate D2E/DX2                !
 ! A61   A(19,21,23)           120.3362         estimate D2E/DX2                !
 ! A62   A(19,21,57)           122.3332         estimate D2E/DX2                !
 ! A63   A(23,21,57)           107.2068         estimate D2E/DX2                !
 ! A64   A(20,22,24)           120.3362         estimate D2E/DX2                !
 ! A65   A(20,22,58)           122.3333         estimate D2E/DX2                !
 ! A66   A(24,22,58)           107.207          estimate D2E/DX2                !
 ! A67   A(21,23,25)           120.5293         estimate D2E/DX2                !
 ! A68   A(21,23,61)           109.7984         estimate D2E/DX2                !
 ! A69   A(25,23,61)           119.0635         estimate D2E/DX2                !
 ! A70   A(22,24,26)           120.529          estimate D2E/DX2                !
 ! A71   A(22,24,62)           109.7984         estimate D2E/DX2                !
 ! A72   A(26,24,62)           119.0635         estimate D2E/DX2                !
 ! A73   A(1,25,23)            120.0188         estimate D2E/DX2                !
 ! A74   A(1,25,27)            109.882          estimate D2E/DX2                !
 ! A75   A(23,25,27)           119.5699         estimate D2E/DX2                !
 ! A76   A(3,26,24)            120.019          estimate D2E/DX2                !
 ! A77   A(3,26,28)            109.8816         estimate D2E/DX2                !
 ! A78   A(24,26,28)           119.5706         estimate D2E/DX2                !
 ! A79   A(25,27,29)           105.1655         estimate D2E/DX2                !
 ! A80   A(25,27,65)           121.9414         estimate D2E/DX2                !
 ! A81   A(29,27,65)           120.453          estimate D2E/DX2                !
 ! A82   A(26,28,30)           105.1662         estimate D2E/DX2                !
 ! A83   A(26,28,66)           121.941          estimate D2E/DX2                !
 ! A84   A(30,28,66)           120.4525         estimate D2E/DX2                !
 ! A85   A(5,29,27)            109.3092         estimate D2E/DX2                !
 ! A86   A(5,29,31)            120.3023         estimate D2E/DX2                !
 ! A87   A(27,29,31)           120.7992         estimate D2E/DX2                !
 ! A88   A(7,30,28)            109.3085         estimate D2E/DX2                !
 ! A89   A(7,30,32)            120.3025         estimate D2E/DX2                !
 ! A90   A(28,30,32)           120.8004         estimate D2E/DX2                !
 ! A91   A(29,31,33)           119.7751         estimate D2E/DX2                !
 ! A92   A(29,31,69)           120.5469         estimate D2E/DX2                !
 ! A93   A(33,31,69)           112.6319         estimate D2E/DX2                !
 ! A94   A(30,32,34)           119.7756         estimate D2E/DX2                !
 ! A95   A(30,32,70)           120.5471         estimate D2E/DX2                !
 ! A96   A(34,32,70)           112.6324         estimate D2E/DX2                !
 ! A97   A(31,33,35)           122.345          estimate D2E/DX2                !
 ! A98   A(31,33,73)           106.4771         estimate D2E/DX2                !
 ! A99   A(35,33,73)           122.5439         estimate D2E/DX2                !
 ! A100  A(32,34,36)           122.3436         estimate D2E/DX2                !
 ! A101  A(32,34,74)           106.4777         estimate D2E/DX2                !
 ! A102  A(36,34,74)           122.5449         estimate D2E/DX2                !
 ! A103  A(9,35,33)            116.7135         estimate D2E/DX2                !
 ! A104  A(9,35,37)            119.9431         estimate D2E/DX2                !
 ! A105  A(33,35,37)           118.1916         estimate D2E/DX2                !
 ! A106  A(12,36,34)           116.7142         estimate D2E/DX2                !
 ! A107  A(12,36,38)           119.942          estimate D2E/DX2                !
 ! A108  A(34,36,38)           118.1924         estimate D2E/DX2                !
 ! A109  A(35,37,39)           119.3254         estimate D2E/DX2                !
 ! A110  A(35,37,77)           118.1306         estimate D2E/DX2                !
 ! A111  A(39,37,77)           117.2114         estimate D2E/DX2                !
 ! A112  A(36,38,42)           119.3259         estimate D2E/DX2                !
 ! A113  A(36,38,78)           118.1298         estimate D2E/DX2                !
 ! A114  A(42,38,78)           117.2114         estimate D2E/DX2                !
 ! A115  A(37,39,43)           119.4787         estimate D2E/DX2                !
 ! A116  A(37,39,79)           120.0348         estimate D2E/DX2                !
 ! A117  A(43,39,79)           114.6385         estimate D2E/DX2                !
 ! A118  A(41,40,44)           120.9906         estimate D2E/DX2                !
 ! A119  A(41,40,79)           108.3763         estimate D2E/DX2                !
 ! A120  A(44,40,79)           122.1984         estimate D2E/DX2                !
 ! A121  A(40,41,45)           120.9917         estimate D2E/DX2                !
 ! A122  A(40,41,80)           108.3766         estimate D2E/DX2                !
 ! A123  A(45,41,80)           122.1988         estimate D2E/DX2                !
 ! A124  A(38,42,46)           119.479          estimate D2E/DX2                !
 ! A125  A(38,42,80)           120.0351         estimate D2E/DX2                !
 ! A126  A(46,42,80)           114.6382         estimate D2E/DX2                !
 ! A127  A(2,43,13)            108.4351         estimate D2E/DX2                !
 ! A128  A(2,43,39)            122.2944         estimate D2E/DX2                !
 ! A129  A(13,43,39)           121.0965         estimate D2E/DX2                !
 ! A130  A(2,44,40)            114.7716         estimate D2E/DX2                !
 ! A131  A(2,44,47)            120.1513         estimate D2E/DX2                !
 ! A132  A(40,44,47)           119.2051         estimate D2E/DX2                !
 ! A133  A(4,45,41)            114.7713         estimate D2E/DX2                !
 ! A134  A(4,45,48)            120.1517         estimate D2E/DX2                !
 ! A135  A(41,45,48)           119.2049         estimate D2E/DX2                !
 ! A136  A(4,46,14)            108.4352         estimate D2E/DX2                !
 ! A137  A(4,46,42)            122.2947         estimate D2E/DX2                !
 ! A138  A(14,46,42)           121.0961         estimate D2E/DX2                !
 ! A139  A(44,47,48)           119.7401         estimate D2E/DX2                !
 ! A140  A(44,47,49)           116.812          estimate D2E/DX2                !
 ! A141  A(48,47,49)           118.1249         estimate D2E/DX2                !
 ! A142  A(45,48,47)           119.7399         estimate D2E/DX2                !
 ! A143  A(45,48,50)           116.8118         estimate D2E/DX2                !
 ! A144  A(47,48,50)           118.1251         estimate D2E/DX2                !
 ! A145  A(10,49,47)           122.0882         estimate D2E/DX2                !
 ! A146  A(10,49,51)           105.6131         estimate D2E/DX2                !
 ! A147  A(47,49,51)           122.1272         estimate D2E/DX2                !
 ! A148  A(11,50,48)           122.0881         estimate D2E/DX2                !
 ! A149  A(11,50,52)           105.6132         estimate D2E/DX2                !
 ! A150  A(48,50,52)           122.1271         estimate D2E/DX2                !
 ! A151  A(49,51,52)           119.4928         estimate D2E/DX2                !
 ! A152  A(49,51,55)           109.7006         estimate D2E/DX2                !
 ! A153  A(52,51,55)           120.3783         estimate D2E/DX2                !
 ! A154  A(50,52,51)           119.4931         estimate D2E/DX2                !
 ! A155  A(50,52,56)           109.7003         estimate D2E/DX2                !
 ! A156  A(51,52,56)           120.3765         estimate D2E/DX2                !
 ! A157  A(10,53,19)           120.5771         estimate D2E/DX2                !
 ! A158  A(10,53,55)           107.4387         estimate D2E/DX2                !
 ! A159  A(19,53,55)           122.3426         estimate D2E/DX2                !
 ! A160  A(11,54,20)           120.5773         estimate D2E/DX2                !
 ! A161  A(11,54,56)           107.4387         estimate D2E/DX2                !
 ! A162  A(20,54,56)           122.3424         estimate D2E/DX2                !
 ! A163  A(51,55,53)           107.4404         estimate D2E/DX2                !
 ! A164  A(51,55,83)           120.3698         estimate D2E/DX2                !
 ! A165  A(53,55,83)           122.4338         estimate D2E/DX2                !
 ! A166  A(52,56,54)           107.4404         estimate D2E/DX2                !
 ! A167  A(52,56,84)           120.3707         estimate D2E/DX2                !
 ! A168  A(54,56,84)           122.4332         estimate D2E/DX2                !
 ! A169  A(21,57,59)           107.1794         estimate D2E/DX2                !
 ! A170  A(21,57,83)           122.4688         estimate D2E/DX2                !
 ! A171  A(59,57,83)           120.2219         estimate D2E/DX2                !
 ! A172  A(22,58,60)           107.1794         estimate D2E/DX2                !
 ! A173  A(22,58,84)           122.4675         estimate D2E/DX2                !
 ! A174  A(60,58,84)           120.2235         estimate D2E/DX2                !
 ! A175  A(57,59,60)           120.5491         estimate D2E/DX2                !
 ! A176  A(57,59,61)           109.6021         estimate D2E/DX2                !
 ! A177  A(60,59,61)           119.4386         estimate D2E/DX2                !
 ! A178  A(58,60,59)           120.5434         estimate D2E/DX2                !
 ! A179  A(58,60,62)           109.6011         estimate D2E/DX2                !
 ! A180  A(59,60,62)           119.437          estimate D2E/DX2                !
 ! A181  A(23,61,59)           105.4379         estimate D2E/DX2                !
 ! A182  A(23,61,63)           121.7763         estimate D2E/DX2                !
 ! A183  A(59,61,63)           121.7716         estimate D2E/DX2                !
 ! A184  A(24,62,60)           105.4381         estimate D2E/DX2                !
 ! A185  A(24,62,64)           121.7753         estimate D2E/DX2                !
 ! A186  A(60,62,64)           121.7727         estimate D2E/DX2                !
 ! A187  A(61,63,64)           118.1746         estimate D2E/DX2                !
 ! A188  A(61,63,65)           118.2449         estimate D2E/DX2                !
 ! A189  A(64,63,65)           119.5318         estimate D2E/DX2                !
 ! A190  A(62,64,63)           118.174          estimate D2E/DX2                !
 ! A191  A(62,64,66)           118.2456         estimate D2E/DX2                !
 ! A192  A(63,64,66)           119.5307         estimate D2E/DX2                !
 ! A193  A(27,65,63)           117.806          estimate D2E/DX2                !
 ! A194  A(27,65,67)           118.8927         estimate D2E/DX2                !
 ! A195  A(63,65,67)           119.7183         estimate D2E/DX2                !
 ! A196  A(28,66,64)           117.8057         estimate D2E/DX2                !
 ! A197  A(28,66,68)           118.8918         estimate D2E/DX2                !
 ! A198  A(64,66,68)           119.7195         estimate D2E/DX2                !
 ! A199  A(65,67,68)           120.7451         estimate D2E/DX2                !
 ! A200  A(65,67,69)           117.9003         estimate D2E/DX2                !
 ! A201  A(68,67,69)           120.6868         estimate D2E/DX2                !
 ! A202  A(66,68,67)           120.7423         estimate D2E/DX2                !
 ! A203  A(66,68,70)           117.9014         estimate D2E/DX2                !
 ! A204  A(67,68,70)           120.6886         estimate D2E/DX2                !
 ! A205  A(31,69,67)           111.4177         estimate D2E/DX2                !
 ! A206  A(31,69,71)           100.554          estimate D2E/DX2                !
 ! A207  A(31,69,85)           112.1748         estimate D2E/DX2                !
 ! A208  A(67,69,71)           111.9762         estimate D2E/DX2                !
 ! A209  A(67,69,85)           107.8067         estimate D2E/DX2                !
 ! A210  A(71,69,85)           112.8923         estimate D2E/DX2                !
 ! A211  A(32,70,68)           111.4148         estimate D2E/DX2                !
 ! A212  A(32,70,72)           100.5549         estimate D2E/DX2                !
 ! A213  A(32,70,86)           112.1735         estimate D2E/DX2                !
 ! A214  A(68,70,72)           111.9813         estimate D2E/DX2                !
 ! A215  A(68,70,86)           107.8051         estimate D2E/DX2                !
 ! A216  A(72,70,86)           112.8922         estimate D2E/DX2                !
 ! A217  A(69,71,72)           121.8088         estimate D2E/DX2                !
 ! A218  A(69,71,73)           110.3825         estimate D2E/DX2                !
 ! A219  A(72,71,73)           119.6422         estimate D2E/DX2                !
 ! A220  A(70,72,71)           121.7971         estimate D2E/DX2                !
 ! A221  A(70,72,74)           110.3802         estimate D2E/DX2                !
 ! A222  A(71,72,74)           119.6355         estimate D2E/DX2                !
 ! A223  A(33,73,71)           109.6007         estimate D2E/DX2                !
 ! A224  A(33,73,75)           118.931          estimate D2E/DX2                !
 ! A225  A(71,73,75)           121.3671         estimate D2E/DX2                !
 ! A226  A(34,74,72)           109.6019         estimate D2E/DX2                !
 ! A227  A(34,74,76)           118.9285         estimate D2E/DX2                !
 ! A228  A(72,74,76)           121.3684         estimate D2E/DX2                !
 ! A229  A(73,75,76)           118.9638         estimate D2E/DX2                !
 ! A230  A(73,75,77)           119.7954         estimate D2E/DX2                !
 ! A231  A(76,75,77)           108.9217         estimate D2E/DX2                !
 ! A232  A(74,76,75)           118.9647         estimate D2E/DX2                !
 ! A233  A(74,76,78)           119.7972         estimate D2E/DX2                !
 ! A234  A(75,76,78)           108.9196         estimate D2E/DX2                !
 ! A235  A(37,77,75)           122.2837         estimate D2E/DX2                !
 ! A236  A(37,77,81)           121.481          estimate D2E/DX2                !
 ! A237  A(75,77,81)           105.9387         estimate D2E/DX2                !
 ! A238  A(38,78,76)           122.2837         estimate D2E/DX2                !
 ! A239  A(38,78,81)           121.4806         estimate D2E/DX2                !
 ! A240  A(76,78,81)           105.9396         estimate D2E/DX2                !
 ! A241  A(39,79,40)           122.2666         estimate D2E/DX2                !
 ! A242  A(39,79,82)           120.4236         estimate D2E/DX2                !
 ! A243  A(40,79,82)           106.7351         estimate D2E/DX2                !
 ! A244  A(41,80,42)           122.2666         estimate D2E/DX2                !
 ! A245  A(41,80,82)           106.7351         estimate D2E/DX2                !
 ! A246  A(42,80,82)           120.4236         estimate D2E/DX2                !
 ! A247  A(77,81,78)           109.5599         estimate D2E/DX2                !
 ! A248  A(77,81,82)           120.0632         estimate D2E/DX2                !
 ! A249  A(78,81,82)           120.0638         estimate D2E/DX2                !
 ! A250  A(79,82,80)           109.5598         estimate D2E/DX2                !
 ! A251  A(79,82,81)           119.9925         estimate D2E/DX2                !
 ! A252  A(80,82,81)           119.9921         estimate D2E/DX2                !
 ! A253  A(55,83,57)           114.8226         estimate D2E/DX2                !
 ! A254  A(55,83,84)           119.2099         estimate D2E/DX2                !
 ! A255  A(57,83,84)           119.1335         estimate D2E/DX2                !
 ! A256  A(56,84,58)           114.8237         estimate D2E/DX2                !
 ! A257  A(56,84,83)           119.2092         estimate D2E/DX2                !
 ! A258  A(58,84,83)           119.1342         estimate D2E/DX2                !
 ! D1    D(17,1,5,9)            -2.1511         estimate D2E/DX2                !
 ! D2    D(17,1,5,29)         -147.8941         estimate D2E/DX2                !
 ! D3    D(25,1,5,9)           143.1663         estimate D2E/DX2                !
 ! D4    D(25,1,5,29)           -2.5768         estimate D2E/DX2                !
 ! D5    D(5,1,17,15)           -6.122          estimate D2E/DX2                !
 ! D6    D(5,1,17,19)          144.4831         estimate D2E/DX2                !
 ! D7    D(25,1,17,15)        -146.9713         estimate D2E/DX2                !
 ! D8    D(25,1,17,19)           3.6338         estimate D2E/DX2                !
 ! D9    D(5,1,25,23)         -148.6287         estimate D2E/DX2                !
 ! D10   D(5,1,25,27)           -4.0402         estimate D2E/DX2                !
 ! D11   D(17,1,25,23)          -2.6538         estimate D2E/DX2                !
 ! D12   D(17,1,25,27)         141.9347         estimate D2E/DX2                !
 ! D13   D(43,2,6,10)         -148.6667         estimate D2E/DX2                !
 ! D14   D(43,2,6,15)           -3.543          estimate D2E/DX2                !
 ! D15   D(44,2,6,10)           -2.9523         estimate D2E/DX2                !
 ! D16   D(44,2,6,15)          142.1714         estimate D2E/DX2                !
 ! D17   D(6,2,43,13)            2.7862         estimate D2E/DX2                !
 ! D18   D(6,2,43,39)          151.5155         estimate D2E/DX2                !
 ! D19   D(44,2,43,13)        -142.3747         estimate D2E/DX2                !
 ! D20   D(44,2,43,39)           6.3547         estimate D2E/DX2                !
 ! D21   D(6,2,44,40)         -152.4424         estimate D2E/DX2                !
 ! D22   D(6,2,44,47)            0.3709         estimate D2E/DX2                !
 ! D23   D(43,2,44,40)         -12.0045         estimate D2E/DX2                !
 ! D24   D(43,2,44,47)         140.8088         estimate D2E/DX2                !
 ! D25   D(18,3,7,12)            2.1511         estimate D2E/DX2                !
 ! D26   D(18,3,7,30)          147.8946         estimate D2E/DX2                !
 ! D27   D(26,3,7,12)         -143.1668         estimate D2E/DX2                !
 ! D28   D(26,3,7,30)            2.5767         estimate D2E/DX2                !
 ! D29   D(7,3,18,16)            6.1221         estimate D2E/DX2                !
 ! D30   D(7,3,18,20)         -144.483          estimate D2E/DX2                !
 ! D31   D(26,3,18,16)         146.9721         estimate D2E/DX2                !
 ! D32   D(26,3,18,20)          -3.633          estimate D2E/DX2                !
 ! D33   D(7,3,26,24)          148.6293         estimate D2E/DX2                !
 ! D34   D(7,3,26,28)            4.0398         estimate D2E/DX2                !
 ! D35   D(18,3,26,24)           2.6539         estimate D2E/DX2                !
 ! D36   D(18,3,26,28)        -141.9356         estimate D2E/DX2                !
 ! D37   D(45,4,8,11)            2.9526         estimate D2E/DX2                !
 ! D38   D(45,4,8,16)         -142.1709         estimate D2E/DX2                !
 ! D39   D(46,4,8,11)          148.6666         estimate D2E/DX2                !
 ! D40   D(46,4,8,16)            3.5431         estimate D2E/DX2                !
 ! D41   D(8,4,45,41)          152.4415         estimate D2E/DX2                !
 ! D42   D(8,4,45,48)           -0.3714         estimate D2E/DX2                !
 ! D43   D(46,4,45,41)          12.0041         estimate D2E/DX2                !
 ! D44   D(46,4,45,48)        -140.8088         estimate D2E/DX2                !
 ! D45   D(8,4,46,14)           -2.7864         estimate D2E/DX2                !
 ! D46   D(8,4,46,42)         -151.5155         estimate D2E/DX2                !
 ! D47   D(45,4,46,14)         142.374          estimate D2E/DX2                !
 ! D48   D(45,4,46,42)          -6.3551         estimate D2E/DX2                !
 ! D49   D(1,5,9,13)             7.6226         estimate D2E/DX2                !
 ! D50   D(1,5,9,35)          -145.2437         estimate D2E/DX2                !
 ! D51   D(29,5,9,13)          149.1983         estimate D2E/DX2                !
 ! D52   D(29,5,9,35)           -3.668          estimate D2E/DX2                !
 ! D53   D(1,5,29,27)            8.1945         estimate D2E/DX2                !
 ! D54   D(1,5,29,31)          154.62           estimate D2E/DX2                !
 ! D55   D(9,5,29,27)         -138.4979         estimate D2E/DX2                !
 ! D56   D(9,5,29,31)            7.9277         estimate D2E/DX2                !
 ! D57   D(2,6,10,49)           -0.0111         estimate D2E/DX2                !
 ! D58   D(2,6,10,53)          141.4085         estimate D2E/DX2                !
 ! D59   D(15,6,10,49)        -141.1526         estimate D2E/DX2                !
 ! D60   D(15,6,10,53)           0.2669         estimate D2E/DX2                !
 ! D61   D(2,6,15,13)            2.9151         estimate D2E/DX2                !
 ! D62   D(2,6,15,17)         -143.1601         estimate D2E/DX2                !
 ! D63   D(10,6,15,13)         147.5291         estimate D2E/DX2                !
 ! D64   D(10,6,15,17)           1.4539         estimate D2E/DX2                !
 ! D65   D(3,7,12,14)           -7.6228         estimate D2E/DX2                !
 ! D66   D(3,7,12,36)          145.2446         estimate D2E/DX2                !
 ! D67   D(30,7,12,14)        -149.1993         estimate D2E/DX2                !
 ! D68   D(30,7,12,36)           3.6682         estimate D2E/DX2                !
 ! D69   D(3,7,30,28)           -8.1939         estimate D2E/DX2                !
 ! D70   D(3,7,30,32)         -154.6209         estimate D2E/DX2                !
 ! D71   D(12,7,30,28)         138.499          estimate D2E/DX2                !
 ! D72   D(12,7,30,32)          -7.928          estimate D2E/DX2                !
 ! D73   D(4,8,11,50)            0.0113         estimate D2E/DX2                !
 ! D74   D(4,8,11,54)         -141.4082         estimate D2E/DX2                !
 ! D75   D(16,8,11,50)         141.1525         estimate D2E/DX2                !
 ! D76   D(16,8,11,54)          -0.267          estimate D2E/DX2                !
 ! D77   D(4,8,16,14)           -2.9151         estimate D2E/DX2                !
 ! D78   D(4,8,16,18)          143.1601         estimate D2E/DX2                !
 ! D79   D(11,8,16,14)        -147.5289         estimate D2E/DX2                !
 ! D80   D(11,8,16,18)          -1.4537         estimate D2E/DX2                !
 ! D81   D(5,9,13,15)           -4.8902         estimate D2E/DX2                !
 ! D82   D(5,9,13,43)         -148.779          estimate D2E/DX2                !
 ! D83   D(35,9,13,15)         148.028          estimate D2E/DX2                !
 ! D84   D(35,9,13,43)           4.1391         estimate D2E/DX2                !
 ! D85   D(5,9,35,33)           -4.8208         estimate D2E/DX2                !
 ! D86   D(5,9,35,37)          149.3662         estimate D2E/DX2                !
 ! D87   D(13,9,35,33)        -156.3888         estimate D2E/DX2                !
 ! D88   D(13,9,35,37)          -2.2018         estimate D2E/DX2                !
 ! D89   D(6,10,49,47)           5.7976         estimate D2E/DX2                !
 ! D90   D(6,10,49,51)         151.5853         estimate D2E/DX2                !
 ! D91   D(53,10,49,47)       -139.3364         estimate D2E/DX2                !
 ! D92   D(53,10,49,51)          6.4513         estimate D2E/DX2                !
 ! D93   D(6,10,53,19)          -2.2379         estimate D2E/DX2                !
 ! D94   D(6,10,53,55)        -149.0547         estimate D2E/DX2                !
 ! D95   D(49,10,53,19)        142.9313         estimate D2E/DX2                !
 ! D96   D(49,10,53,55)         -3.8855         estimate D2E/DX2                !
 ! D97   D(8,11,50,48)          -5.7981         estimate D2E/DX2                !
 ! D98   D(8,11,50,52)        -151.5857         estimate D2E/DX2                !
 ! D99   D(54,11,50,48)        139.3358         estimate D2E/DX2                !
 ! D100  D(54,11,50,52)         -6.4519         estimate D2E/DX2                !
 ! D101  D(8,11,54,20)           2.2378         estimate D2E/DX2                !
 ! D102  D(8,11,54,56)         149.0547         estimate D2E/DX2                !
 ! D103  D(50,11,54,20)       -142.9313         estimate D2E/DX2                !
 ! D104  D(50,11,54,56)          3.8856         estimate D2E/DX2                !
 ! D105  D(7,12,14,16)           4.8904         estimate D2E/DX2                !
 ! D106  D(7,12,14,46)         148.7793         estimate D2E/DX2                !
 ! D107  D(36,12,14,16)       -148.0287         estimate D2E/DX2                !
 ! D108  D(36,12,14,46)         -4.1398         estimate D2E/DX2                !
 ! D109  D(7,12,36,34)           4.8216         estimate D2E/DX2                !
 ! D110  D(7,12,36,38)        -149.3666         estimate D2E/DX2                !
 ! D111  D(14,12,36,34)        156.3905         estimate D2E/DX2                !
 ! D112  D(14,12,36,38)          2.2024         estimate D2E/DX2                !
 ! D113  D(9,13,15,6)         -148.7171         estimate D2E/DX2                !
 ! D114  D(9,13,15,17)          -3.4812         estimate D2E/DX2                !
 ! D115  D(43,13,15,6)          -1.1477         estimate D2E/DX2                !
 ! D116  D(43,13,15,17)        144.0883         estimate D2E/DX2                !
 ! D117  D(9,13,43,2)          147.2884         estimate D2E/DX2                !
 ! D118  D(9,13,43,39)          -1.8862         estimate D2E/DX2                !
 ! D119  D(15,13,43,2)          -1.0323         estimate D2E/DX2                !
 ! D120  D(15,13,43,39)       -150.207          estimate D2E/DX2                !
 ! D121  D(12,14,16,8)         148.7171         estimate D2E/DX2                !
 ! D122  D(12,14,16,18)          3.4812         estimate D2E/DX2                !
 ! D123  D(46,14,16,8)           1.1476         estimate D2E/DX2                !
 ! D124  D(46,14,16,18)       -144.0883         estimate D2E/DX2                !
 ! D125  D(12,14,46,4)        -147.2884         estimate D2E/DX2                !
 ! D126  D(12,14,46,42)          1.8862         estimate D2E/DX2                !
 ! D127  D(16,14,46,4)           1.0325         estimate D2E/DX2                !
 ! D128  D(16,14,46,42)        150.2072         estimate D2E/DX2                !
 ! D129  D(6,15,17,1)          149.5365         estimate D2E/DX2                !
 ! D130  D(6,15,17,19)          -1.202          estimate D2E/DX2                !
 ! D131  D(13,15,17,1)           8.8718         estimate D2E/DX2                !
 ! D132  D(13,15,17,19)       -141.8667         estimate D2E/DX2                !
 ! D133  D(8,16,18,3)         -149.5367         estimate D2E/DX2                !
 ! D134  D(8,16,18,20)           1.2018         estimate D2E/DX2                !
 ! D135  D(14,16,18,3)          -8.872          estimate D2E/DX2                !
 ! D136  D(14,16,18,20)        141.8665         estimate D2E/DX2                !
 ! D137  D(1,17,19,21)          -0.8219         estimate D2E/DX2                !
 ! D138  D(1,17,19,53)        -150.1335         estimate D2E/DX2                !
 ! D139  D(15,17,19,21)        148.5824         estimate D2E/DX2                !
 ! D140  D(15,17,19,53)         -0.7292         estimate D2E/DX2                !
 ! D141  D(3,18,20,22)           0.8212         estimate D2E/DX2                !
 ! D142  D(3,18,20,54)         150.1336         estimate D2E/DX2                !
 ! D143  D(16,18,20,22)       -148.5832         estimate D2E/DX2                !
 ! D144  D(16,18,20,54)          0.7293         estimate D2E/DX2                !
 ! D145  D(17,19,21,23)         -2.9492         estimate D2E/DX2                !
 ! D146  D(17,19,21,57)       -143.8514         estimate D2E/DX2                !
 ! D147  D(53,19,21,23)        147.5879         estimate D2E/DX2                !
 ! D148  D(53,19,21,57)          6.6857         estimate D2E/DX2                !
 ! D149  D(17,19,53,10)          2.4404         estimate D2E/DX2                !
 ! D150  D(17,19,53,55)        144.2671         estimate D2E/DX2                !
 ! D151  D(21,19,53,10)       -148.0861         estimate D2E/DX2                !
 ! D152  D(21,19,53,55)         -6.2595         estimate D2E/DX2                !
 ! D153  D(18,20,22,24)          2.9491         estimate D2E/DX2                !
 ! D154  D(18,20,22,58)        143.8521         estimate D2E/DX2                !
 ! D155  D(54,20,22,24)       -147.5885         estimate D2E/DX2                !
 ! D156  D(54,20,22,58)         -6.6856         estimate D2E/DX2                !
 ! D157  D(18,20,54,11)         -2.4404         estimate D2E/DX2                !
 ! D158  D(18,20,54,56)       -144.2672         estimate D2E/DX2                !
 ! D159  D(22,20,54,11)        148.0868         estimate D2E/DX2                !
 ! D160  D(22,20,54,56)          6.26           estimate D2E/DX2                !
 ! D161  D(19,21,23,25)          4.0032         estimate D2E/DX2                !
 ! D162  D(19,21,23,61)       -140.2579         estimate D2E/DX2                !
 ! D163  D(57,21,23,25)        150.0972         estimate D2E/DX2                !
 ! D164  D(57,21,23,61)          5.836          estimate D2E/DX2                !
 ! D165  D(19,21,57,59)        144.839          estimate D2E/DX2                !
 ! D166  D(19,21,57,83)         -0.365          estimate D2E/DX2                !
 ! D167  D(23,21,57,59)         -0.4248         estimate D2E/DX2                !
 ! D168  D(23,21,57,83)       -145.6288         estimate D2E/DX2                !
 ! D169  D(20,22,24,26)         -4.0023         estimate D2E/DX2                !
 ! D170  D(20,22,24,62)        140.2586         estimate D2E/DX2                !
 ! D171  D(58,22,24,26)       -150.0969         estimate D2E/DX2                !
 ! D172  D(58,22,24,62)         -5.836          estimate D2E/DX2                !
 ! D173  D(20,22,58,60)       -144.8416         estimate D2E/DX2                !
 ! D174  D(20,22,58,84)          0.3636         estimate D2E/DX2                !
 ! D175  D(24,22,58,60)          0.4228         estimate D2E/DX2                !
 ! D176  D(24,22,58,84)        145.628          estimate D2E/DX2                !
 ! D177  D(21,23,25,1)          -1.1793         estimate D2E/DX2                !
 ! D178  D(21,23,25,27)       -142.3865         estimate D2E/DX2                !
 ! D179  D(61,23,25,1)         139.8638         estimate D2E/DX2                !
 ! D180  D(61,23,25,27)         -1.3433         estimate D2E/DX2                !
 ! D181  D(21,23,61,59)         -8.7568         estimate D2E/DX2                !
 ! D182  D(21,23,61,63)        135.6946         estimate D2E/DX2                !
 ! D183  D(25,23,61,59)       -153.6153         estimate D2E/DX2                !
 ! D184  D(25,23,61,63)         -9.164          estimate D2E/DX2                !
 ! D185  D(22,24,26,3)           1.1784         estimate D2E/DX2                !
 ! D186  D(22,24,26,28)        142.3862         estimate D2E/DX2                !
 ! D187  D(62,24,26,3)        -139.8644         estimate D2E/DX2                !
 ! D188  D(62,24,26,28)          1.3434         estimate D2E/DX2                !
 ! D189  D(22,24,62,60)          8.7587         estimate D2E/DX2                !
 ! D190  D(22,24,62,64)       -135.6936         estimate D2E/DX2                !
 ! D191  D(26,24,62,60)        153.6169         estimate D2E/DX2                !
 ! D192  D(26,24,62,64)          9.1646         estimate D2E/DX2                !
 ! D193  D(1,25,27,29)           8.8301         estimate D2E/DX2                !
 ! D194  D(1,25,27,65)        -133.15           estimate D2E/DX2                !
 ! D195  D(23,25,27,29)        153.6007         estimate D2E/DX2                !
 ! D196  D(23,25,27,65)         11.6206         estimate D2E/DX2                !
 ! D197  D(3,26,28,30)          -8.8295         estimate D2E/DX2                !
 ! D198  D(3,26,28,66)         133.1502         estimate D2E/DX2                !
 ! D199  D(24,26,28,30)       -153.601          estimate D2E/DX2                !
 ! D200  D(24,26,28,66)        -11.6212         estimate D2E/DX2                !
 ! D201  D(25,27,29,5)         -10.4437         estimate D2E/DX2                !
 ! D202  D(25,27,29,31)       -156.6738         estimate D2E/DX2                !
 ! D203  D(65,27,29,5)         132.2324         estimate D2E/DX2                !
 ! D204  D(65,27,29,31)        -13.9977         estimate D2E/DX2                !
 ! D205  D(25,27,65,63)        -11.0405         estimate D2E/DX2                !
 ! D206  D(25,27,65,67)        147.5773         estimate D2E/DX2                !
 ! D207  D(29,27,65,63)       -147.4405         estimate D2E/DX2                !
 ! D208  D(29,27,65,67)         11.1774         estimate D2E/DX2                !
 ! D209  D(26,28,30,7)          10.443          estimate D2E/DX2                !
 ! D210  D(26,28,30,32)        156.6742         estimate D2E/DX2                !
 ! D211  D(66,28,30,7)        -132.2328         estimate D2E/DX2                !
 ! D212  D(66,28,30,32)         13.9984         estimate D2E/DX2                !
 ! D213  D(26,28,66,64)         11.0408         estimate D2E/DX2                !
 ! D214  D(26,28,66,68)       -147.5771         estimate D2E/DX2                !
 ! D215  D(30,28,66,64)        147.4407         estimate D2E/DX2                !
 ! D216  D(30,28,66,68)        -11.1772         estimate D2E/DX2                !
 ! D217  D(5,29,31,33)          -3.2684         estimate D2E/DX2                !
 ! D218  D(5,29,31,69)        -151.7446         estimate D2E/DX2                !
 ! D219  D(27,29,31,33)        139.3151         estimate D2E/DX2                !
 ! D220  D(27,29,31,69)         -9.1611         estimate D2E/DX2                !
 ! D221  D(7,30,32,34)           3.2679         estimate D2E/DX2                !
 ! D222  D(7,30,32,70)         151.7468         estimate D2E/DX2                !
 ! D223  D(28,30,32,34)       -139.3166         estimate D2E/DX2                !
 ! D224  D(28,30,32,70)          9.1622         estimate D2E/DX2                !
 ! D225  D(29,31,33,35)         -5.7732         estimate D2E/DX2                !
 ! D226  D(29,31,33,73)       -154.1288         estimate D2E/DX2                !
 ! D227  D(69,31,33,35)        145.0271         estimate D2E/DX2                !
 ! D228  D(69,31,33,73)         -3.3284         estimate D2E/DX2                !
 ! D229  D(29,31,69,67)         31.4759         estimate D2E/DX2                !
 ! D230  D(29,31,69,71)        150.2907         estimate D2E/DX2                !
 ! D231  D(29,31,69,85)        -89.495          estimate D2E/DX2                !
 ! D232  D(33,31,69,67)       -119.0725         estimate D2E/DX2                !
 ! D233  D(33,31,69,71)         -0.2577         estimate D2E/DX2                !
 ! D234  D(33,31,69,85)        119.9567         estimate D2E/DX2                !
 ! D235  D(30,32,34,36)          5.7746         estimate D2E/DX2                !
 ! D236  D(30,32,34,74)        154.1308         estimate D2E/DX2                !
 ! D237  D(70,32,34,36)       -145.0281         estimate D2E/DX2                !
 ! D238  D(70,32,34,74)          3.3281         estimate D2E/DX2                !
 ! D239  D(30,32,70,68)        -31.478          estimate D2E/DX2                !
 ! D240  D(30,32,70,72)       -150.298          estimate D2E/DX2                !
 ! D241  D(30,32,70,86)         89.4878         estimate D2E/DX2                !
 ! D242  D(34,32,70,68)        119.0728         estimate D2E/DX2                !
 ! D243  D(34,32,70,72)          0.2528         estimate D2E/DX2                !
 ! D244  D(34,32,70,86)       -119.9613         estimate D2E/DX2                !
 ! D245  D(31,33,35,9)           9.6815         estimate D2E/DX2                !
 ! D246  D(31,33,35,37)       -144.9716         estimate D2E/DX2                !
 ! D247  D(73,33,35,9)         153.0394         estimate D2E/DX2                !
 ! D248  D(73,33,35,37)         -1.6136         estimate D2E/DX2                !
 ! D249  D(31,33,73,71)          5.7414         estimate D2E/DX2                !
 ! D250  D(31,33,73,75)        151.6509         estimate D2E/DX2                !
 ! D251  D(35,33,73,71)       -142.536          estimate D2E/DX2                !
 ! D252  D(35,33,73,75)          3.3734         estimate D2E/DX2                !
 ! D253  D(32,34,36,12)         -9.683          estimate D2E/DX2                !
 ! D254  D(32,34,36,38)        144.9707         estimate D2E/DX2                !
 ! D255  D(74,34,36,12)       -153.0414         estimate D2E/DX2                !
 ! D256  D(74,34,36,38)          1.6123         estimate D2E/DX2                !
 ! D257  D(32,34,74,72)         -5.7357         estimate D2E/DX2                !
 ! D258  D(32,34,74,76)       -151.6457         estimate D2E/DX2                !
 ! D259  D(36,34,74,72)        142.5416         estimate D2E/DX2                !
 ! D260  D(36,34,74,76)         -3.3685         estimate D2E/DX2                !
 ! D261  D(9,35,37,39)          -1.9627         estimate D2E/DX2                !
 ! D262  D(9,35,37,77)        -155.4807         estimate D2E/DX2                !
 ! D263  D(33,35,37,39)        151.8497         estimate D2E/DX2                !
 ! D264  D(33,35,37,77)         -1.6682         estimate D2E/DX2                !
 ! D265  D(12,36,38,42)          1.9628         estimate D2E/DX2                !
 ! D266  D(12,36,38,78)        155.4802         estimate D2E/DX2                !
 ! D267  D(34,36,38,42)       -151.8508         estimate D2E/DX2                !
 ! D268  D(34,36,38,78)          1.6667         estimate D2E/DX2                !
 ! D269  D(35,37,39,43)          4.2061         estimate D2E/DX2                !
 ! D270  D(35,37,39,79)       -147.4355         estimate D2E/DX2                !
 ! D271  D(77,37,39,43)        157.963          estimate D2E/DX2                !
 ! D272  D(77,37,39,79)          6.3214         estimate D2E/DX2                !
 ! D273  D(35,37,77,75)          3.2819         estimate D2E/DX2                !
 ! D274  D(35,37,77,81)        143.4339         estimate D2E/DX2                !
 ! D275  D(39,37,77,75)       -150.7955         estimate D2E/DX2                !
 ! D276  D(39,37,77,81)        -10.6435         estimate D2E/DX2                !
 ! D277  D(36,38,42,46)         -4.2068         estimate D2E/DX2                !
 ! D278  D(36,38,42,80)        147.4349         estimate D2E/DX2                !
 ! D279  D(78,38,42,46)       -157.9629         estimate D2E/DX2                !
 ! D280  D(78,38,42,80)         -6.3213         estimate D2E/DX2                !
 ! D281  D(36,38,78,76)         -3.2808         estimate D2E/DX2                !
 ! D282  D(36,38,78,81)       -143.434          estimate D2E/DX2                !
 ! D283  D(42,38,78,76)        150.7963         estimate D2E/DX2                !
 ! D284  D(42,38,78,81)         10.6431         estimate D2E/DX2                !
 ! D285  D(37,39,43,2)        -147.2351         estimate D2E/DX2                !
 ! D286  D(37,39,43,13)         -2.3407         estimate D2E/DX2                !
 ! D287  D(79,39,43,2)           5.8675         estimate D2E/DX2                !
 ! D288  D(79,39,43,13)        150.762          estimate D2E/DX2                !
 ! D289  D(37,39,79,40)        140.8549         estimate D2E/DX2                !
 ! D290  D(37,39,79,82)          0.8876         estimate D2E/DX2                !
 ! D291  D(43,39,79,40)        -12.0859         estimate D2E/DX2                !
 ! D292  D(43,39,79,82)       -152.0532         estimate D2E/DX2                !
 ! D293  D(44,40,41,45)          0.0018         estimate D2E/DX2                !
 ! D294  D(44,40,41,80)       -148.7072         estimate D2E/DX2                !
 ! D295  D(79,40,41,45)        148.7077         estimate D2E/DX2                !
 ! D296  D(79,40,41,80)         -0.0013         estimate D2E/DX2                !
 ! D297  D(41,40,44,2)         150.1739         estimate D2E/DX2                !
 ! D298  D(41,40,44,47)         -2.9147         estimate D2E/DX2                !
 ! D299  D(79,40,44,2)           5.8027         estimate D2E/DX2                !
 ! D300  D(79,40,44,47)       -147.2859         estimate D2E/DX2                !
 ! D301  D(41,40,79,39)       -141.7977         estimate D2E/DX2                !
 ! D302  D(41,40,79,82)          2.8089         estimate D2E/DX2                !
 ! D303  D(44,40,79,39)          6.4525         estimate D2E/DX2                !
 ! D304  D(44,40,79,82)        151.0592         estimate D2E/DX2                !
 ! D305  D(40,41,45,4)        -150.1762         estimate D2E/DX2                !
 ! D306  D(40,41,45,48)          2.9123         estimate D2E/DX2                !
 ! D307  D(80,41,45,4)          -5.8014         estimate D2E/DX2                !
 ! D308  D(80,41,45,48)        147.287          estimate D2E/DX2                !
 ! D309  D(40,41,80,42)        141.7996         estimate D2E/DX2                !
 ! D310  D(40,41,80,82)         -2.8069         estimate D2E/DX2                !
 ! D311  D(45,41,80,42)         -6.4541         estimate D2E/DX2                !
 ! D312  D(45,41,80,82)       -151.0606         estimate D2E/DX2                !
 ! D313  D(38,42,46,4)         147.2357         estimate D2E/DX2                !
 ! D314  D(38,42,46,14)          2.3413         estimate D2E/DX2                !
 ! D315  D(80,42,46,4)          -5.8672         estimate D2E/DX2                !
 ! D316  D(80,42,46,14)       -150.7616         estimate D2E/DX2                !
 ! D317  D(38,42,80,41)       -140.8545         estimate D2E/DX2                !
 ! D318  D(38,42,80,82)         -0.8873         estimate D2E/DX2                !
 ! D319  D(46,42,80,41)         12.0866         estimate D2E/DX2                !
 ! D320  D(46,42,80,82)        152.0537         estimate D2E/DX2                !
 ! D321  D(2,44,47,48)        -148.7467         estimate D2E/DX2                !
 ! D322  D(2,44,47,49)           5.0255         estimate D2E/DX2                !
 ! D323  D(40,44,47,48)          2.8765         estimate D2E/DX2                !
 ! D324  D(40,44,47,49)        156.6488         estimate D2E/DX2                !
 ! D325  D(4,45,48,47)         148.7465         estimate D2E/DX2                !
 ! D326  D(4,45,48,50)          -5.0254         estimate D2E/DX2                !
 ! D327  D(41,45,48,47)         -2.8763         estimate D2E/DX2                !
 ! D328  D(41,45,48,50)       -156.6482         estimate D2E/DX2                !
 ! D329  D(44,47,48,45)          0.0005         estimate D2E/DX2                !
 ! D330  D(44,47,48,50)        153.4335         estimate D2E/DX2                !
 ! D331  D(49,47,48,45)       -153.433          estimate D2E/DX2                !
 ! D332  D(49,47,48,50)          0.0            estimate D2E/DX2                !
 ! D333  D(44,47,49,10)         -8.1226         estimate D2E/DX2                !
 ! D334  D(44,47,49,51)       -148.3733         estimate D2E/DX2                !
 ! D335  D(48,47,49,10)        146.0853         estimate D2E/DX2                !
 ! D336  D(48,47,49,51)          5.8347         estimate D2E/DX2                !
 ! D337  D(45,48,50,11)          8.1229         estimate D2E/DX2                !
 ! D338  D(45,48,50,52)        148.3736         estimate D2E/DX2                !
 ! D339  D(47,48,50,11)       -146.0845         estimate D2E/DX2                !
 ! D340  D(47,48,50,52)         -5.8339         estimate D2E/DX2                !
 ! D341  D(10,49,51,52)       -151.6839         estimate D2E/DX2                !
 ! D342  D(10,49,51,55)         -6.6354         estimate D2E/DX2                !
 ! D343  D(47,49,51,52)         -5.9128         estimate D2E/DX2                !
 ! D344  D(47,49,51,55)        139.1357         estimate D2E/DX2                !
 ! D345  D(11,50,52,51)        151.6815         estimate D2E/DX2                !
 ! D346  D(11,50,52,56)          6.6362         estimate D2E/DX2                !
 ! D347  D(48,50,52,51)          5.9105         estimate D2E/DX2                !
 ! D348  D(48,50,52,56)       -139.1348         estimate D2E/DX2                !
[...]
 Alpha virt. eigenvalues --    1.14299   1.14690   1.15263   1.15311   1.15579
 Alpha virt. eigenvalues --    1.15708   1.15770   1.16146   1.16244   1.16693
 Alpha virt. eigenvalues --    1.17052   1.17390   1.17502   1.18047   1.18475
 Alpha virt. eigenvalues --    1.18506   1.18665   1.18755   1.19367   1.19518
 Alpha virt. eigenvalues --    1.19629   1.19933   1.20563   1.20647   1.20742
 Alpha virt. eigenvalues --    1.21086   1.21935   1.22229   1.22390   1.22593
 Alpha virt. eigenvalues --    1.22905   1.23121   1.23302   1.23870   1.24040
 Alpha virt. eigenvalues --    1.24547   1.24897   1.25355   1.25601   1.25688
 Alpha virt. eigenvalues --    1.26426   1.26658   1.26831   1.26939   1.27164
 Alpha virt. eigenvalues --    1.27254   1.27562   1.27930   1.28319   1.28395
 Alpha virt. eigenvalues --    1.28753   1.28994   1.29143   1.29685   1.29984
 Alpha virt. eigenvalues --    1.30645   1.31013   1.31095   1.31655   1.31942
 Alpha virt. eigenvalues --    1.32033   1.32231   1.32439   1.32528   1.33408
 Alpha virt. eigenvalues --    1.33507   1.34196   1.34250   1.34454   1.34626
 Alpha virt. eigenvalues --    1.34967   1.35312   1.35882   1.36241   1.36555
 Alpha virt. eigenvalues --    1.36939   1.37251   1.37615   1.38807   1.40373
 Alpha virt. eigenvalues --    1.40599   1.41001   1.41234   1.42010   1.42657
 Alpha virt. eigenvalues --    1.42680   1.43925   1.44006   1.44701   1.44947
 Alpha virt. eigenvalues --    1.45691   1.45798   1.46924   1.47327   1.47656
 Alpha virt. eigenvalues --    1.47981   1.48193   1.48803   1.50266   1.50315
 Alpha virt. eigenvalues --    1.50966   1.51544   1.51952   1.52772   1.53587
 Alpha virt. eigenvalues --    1.54016   1.54224   1.54345   1.54831   1.55848
 Alpha virt. eigenvalues --    1.55922   1.56077   1.56390   1.57140   1.57185
 Alpha virt. eigenvalues --    1.57362   1.57493   1.57897   1.58514   1.58662
 Alpha virt. eigenvalues --    1.58700   1.60293   1.60453   1.61361   1.62033
 Alpha virt. eigenvalues --    1.62448   1.63499   1.63885   1.64564   1.64779
 Alpha virt. eigenvalues --    1.64980   1.65057   1.65356   1.65536   1.65671
 Alpha virt. eigenvalues --    1.66315   1.66418   1.66959   1.67003   1.67313
 Alpha virt. eigenvalues --    1.67400   1.67704   1.67816   1.68323   1.68684
 Alpha virt. eigenvalues --    1.68870   1.69456   1.69796   1.70043   1.70076
 Alpha virt. eigenvalues --    1.70386   1.70753   1.70912   1.70925   1.71030
 Alpha virt. eigenvalues --    1.71152   1.71553   1.72160   1.72183   1.72253
 Alpha virt. eigenvalues --    1.72500   1.72652   1.72968   1.73014   1.73247
 Alpha virt. eigenvalues --    1.73670   1.74330   1.74343   1.74457   1.74762
 Alpha virt. eigenvalues --    1.74848   1.75516   1.75558   1.75644   1.75860
 Alpha virt. eigenvalues --    1.76176   1.76632   1.76933   1.76936   1.77334
 Alpha virt. eigenvalues --    1.77520   1.77642   1.77921   1.77945   1.78331
 Alpha virt. eigenvalues --    1.78450   1.78835   1.79168   1.79383   1.79768
 Alpha virt. eigenvalues --    1.80065   1.81044   1.81291   1.81351   1.81742
 Alpha virt. eigenvalues --    1.82051   1.82805   1.83740   1.83806   1.84561
 Alpha virt. eigenvalues --    1.84647   1.85317   1.86068   1.86262   1.86344
 Alpha virt. eigenvalues --    1.87213   1.88367   1.88983   1.88995   1.89410
 Alpha virt. eigenvalues --    1.90382   1.90823   1.90988   1.91466   1.92162
 Alpha virt. eigenvalues --    1.92565   1.93252   1.93584   1.94258   1.94377
 Alpha virt. eigenvalues --    1.94430   1.94971   1.95146   1.95481   1.95569
 Alpha virt. eigenvalues --    1.95806   1.96013   1.96545   1.96786   1.97216
 Alpha virt. eigenvalues --    1.97337   1.97777   1.97922   1.98502   1.98516
 Alpha virt. eigenvalues --    1.98933   1.99104   1.99114   1.99180   1.99642
 Alpha virt. eigenvalues --    1.99685   1.99824   2.00156   2.00213   2.00493
 Alpha virt. eigenvalues --    2.00590   2.00882   2.01125   2.01176   2.01323
 Alpha virt. eigenvalues --    2.01749   2.01899   2.02091   2.02293   2.02429
 Alpha virt. eigenvalues --    2.02703   2.02891   2.03539   2.03555   2.03700
 Alpha virt. eigenvalues --    2.03836   2.04373   2.04651   2.04942   2.05175
 Alpha virt. eigenvalues --    2.05211   2.05503   2.05547   2.06098   2.06300
 Alpha virt. eigenvalues --    2.06842   2.07076   2.07503   2.07702   2.09118
 Alpha virt. eigenvalues --    2.09339   2.09565   2.10609   2.10656   2.12033
 Alpha virt. eigenvalues --    2.12234   2.12523   2.12621   2.13055   2.13319
 Alpha virt. eigenvalues --    2.13609   2.13991   2.14814   2.14949   2.15267
 Alpha virt. eigenvalues --    2.15467   2.16473   2.17129   2.18154   2.18237
 Alpha virt. eigenvalues --    2.18747   2.19543   2.19983   2.20609   2.20620
 Alpha virt. eigenvalues --    2.21362   2.21522   2.21779   2.21788   2.22834
 Alpha virt. eigenvalues --    2.23029   2.23082   2.23109   2.24275   2.24278
 Alpha virt. eigenvalues --    2.24927   2.25552   2.26064   2.26150   2.26617
 Alpha virt. eigenvalues --    2.26796   2.26909   2.27857   2.28321   2.28697
 Alpha virt. eigenvalues --    2.28901   2.29198   2.29247   2.29541   2.30204
 Alpha virt. eigenvalues --    2.30542   2.30845   2.30893   2.31569   2.32127
 Alpha virt. eigenvalues --    2.32659   2.32772   2.32920   2.33881   2.34019
 Alpha virt. eigenvalues --    2.34399   2.35171   2.36104   2.36754   2.37520
 Alpha virt. eigenvalues --    2.38593   2.39619   2.39946   2.40499   2.40950
 Alpha virt. eigenvalues --    2.41235   2.41292   2.41717   2.43018   2.43191
 Alpha virt. eigenvalues --    2.43356   2.44023   2.44052   2.44302   2.44741
 Alpha virt. eigenvalues --    2.45400   2.45659   2.46030   2.46877   2.47731
 Alpha virt. eigenvalues --    2.48386   2.48590   2.49959   2.50741   2.51131
 Alpha virt. eigenvalues --    2.51343   2.51383   2.52310   2.52584   2.53227
 Alpha virt. eigenvalues --    2.53317   2.53602   2.54133   2.54326   2.54555
 Alpha virt. eigenvalues --    2.54830   2.55556   2.56247   2.56618   2.56888
 Alpha virt. eigenvalues --    2.56913   2.57275   2.57922   2.58094   2.58253
 Alpha virt. eigenvalues --    2.58527   2.58835   2.59059   2.59110   2.59601
 Alpha virt. eigenvalues --    2.59749   2.60064   2.60456   2.60535   2.61464
 Alpha virt. eigenvalues --    2.61642   2.61931   2.62240   2.62260   2.62406
 Alpha virt. eigenvalues --    2.62798   2.62941   2.63981   2.64064   2.64394
 Alpha virt. eigenvalues --    2.64716   2.64974   2.65579   2.65862   2.66121
 Alpha virt. eigenvalues --    2.66800   2.66973   2.67123   2.67430   2.67595
 Alpha virt. eigenvalues --    2.67903   2.68273   2.68562   2.68647   2.69185
 Alpha virt. eigenvalues --    2.69241   2.70352   2.70865   2.70898   2.71410
 Alpha virt. eigenvalues --    2.71720   2.72118   2.72457   2.72994   2.74058
 Alpha virt. eigenvalues --    2.74719   2.75705   2.75769   2.76880   2.76985
 Alpha virt. eigenvalues --    2.77921   2.78187   2.78460   2.78879   2.79429
 Alpha virt. eigenvalues --    2.79496   2.80006   2.80552   2.80790   2.81166
 Alpha virt. eigenvalues --    2.81496   2.82163   2.82466   2.82700   2.82779
 Alpha virt. eigenvalues --    2.83381   2.83432   2.83927   2.84493   2.85163
 Alpha virt. eigenvalues --    2.85291   2.85724   2.86211   2.87157   2.87946
 Alpha virt. eigenvalues --    2.88599   2.89008   2.89328   2.89981   2.90110
 Alpha virt. eigenvalues --    2.90328   2.90467   2.91018   2.91501   2.92217
 Alpha virt. eigenvalues --    2.92392   2.92610   2.93152   2.93532   2.93553
 Alpha virt. eigenvalues --    2.93925   2.94697   2.95219   2.95370   2.95880
 Alpha virt. eigenvalues --    2.96569   2.96950   2.97448   2.98584   2.98765
 Alpha virt. eigenvalues --    3.00411   3.00516   3.00719   3.00953   3.03961
 Alpha virt. eigenvalues --    3.04330   3.05903   3.06640   3.07561   3.09873
 Alpha virt. eigenvalues --    3.11476   3.12938   3.15173   3.15774   3.16317
 Alpha virt. eigenvalues --    3.17551   3.20279   3.20395   3.22452   3.23721
 Alpha virt. eigenvalues --    3.25923   3.27340   3.27441   3.29970   3.31752
 Alpha virt. eigenvalues --    3.33111   3.33301   3.35749   3.36861   3.37284
 Alpha virt. eigenvalues --    3.38651   3.39020   3.43011   3.43791   3.45765
 Alpha virt. eigenvalues --    3.46020   3.49957   3.50103   3.52672   3.54957
 Alpha virt. eigenvalues --    3.57060   3.61434   3.62861   4.01634   4.02049
 Alpha virt. eigenvalues --    4.02124   4.02176   4.02716   4.03130   4.04006
 Alpha virt. eigenvalues --    4.05213   4.05713   4.06066   4.06792   4.07158
 Alpha virt. eigenvalues --    4.07366   4.07535   4.08092   4.08309   4.09956
 Alpha virt. eigenvalues --    4.10806   4.11063   4.11482   4.12076   4.12369
 Alpha virt. eigenvalues --    4.13933   4.15010   4.16224   4.16960   4.17109
 Alpha virt. eigenvalues --    4.19194   4.20724   4.20958   4.21434   4.21475
 Alpha virt. eigenvalues --    4.21784   4.22424   4.23799   4.24213   4.26506
 Alpha virt. eigenvalues --    4.27438   4.28370   4.28866   4.30173   4.30250
 Alpha virt. eigenvalues --    4.30753   4.31730   4.33992   4.35289   4.37458
 Alpha virt. eigenvalues --    4.38638   4.40303   4.41656   4.42929   4.44998
 Alpha virt. eigenvalues --    4.47495   4.48507   4.48877   4.49617   4.51791
 Alpha virt. eigenvalues --    4.53810   4.54977   4.56885   4.56916   4.59081
 Alpha virt. eigenvalues --    4.60903   4.61901   4.64589   4.67206   4.67997
 Alpha virt. eigenvalues --    4.68136   4.71637   4.75693   4.77174   4.80851
 Alpha virt. eigenvalues --    4.83066   4.85540   4.88122   4.90719   4.92888
 Alpha virt. eigenvalues --    4.96209   4.98532   5.02607   5.12163   5.12756
 Alpha virt. eigenvalues --    5.14952   5.18624   5.22392   5.30311
          Condensed to atoms (all electrons):
 Mulliken charges:
               1
     1  C   -0.024121
     2  C   -0.022911
     3  C   -0.024121
     4  C   -0.022911
     5  C   -0.015049
     6  C   -0.017469
     7  C   -0.015049
     8  C   -0.017469
     9  C    0.050584
    10  C   -0.002469
    11  C   -0.002469
    12  C    0.050584
    13  C   -0.030218
    14  C   -0.030218
    15  C   -0.023549
    16  C   -0.023549
    17  C    0.056722
    18  C    0.056722
    19  C    0.056205
    20  C    0.056205
    21  C   -0.020635
    22  C   -0.020635
    23  C   -0.015785
    24  C   -0.015785
    25  C   -0.006189
    26  C   -0.006189
    27  C   -0.037165
    28  C   -0.037165
    29  C    0.000604
    30  C    0.000604
    31  C    0.070042
    32  C    0.070043
    33  C    0.004453
    34  C    0.004451
    35  C    0.034713
    36  C    0.034713
    37  C    0.047861
    38  C    0.047862
    39  C    0.052659
    40  C   -0.030535
    41  C   -0.030535
    42  C    0.052659
    43  C   -0.030515
    44  C    0.053783
    45  C    0.053783
    46  C   -0.030515
    47  C    0.046473
    48  C    0.046474
    49  C   -0.023547
    50  C   -0.023547
    51  C   -0.012057
    52  C   -0.012056
    53  C   -0.022482
    54  C   -0.022482
    55  C   -0.020923
    56  C   -0.020922
    57  C   -0.020464
    58  C   -0.020463
    59  C   -0.012360
    60  C   -0.012359
    61  C   -0.018249
    62  C   -0.018248
    63  C    0.035682
    64  C    0.035681
    65  C    0.074793
    66  C    0.074794
    67  C    0.097436
    68  C    0.097434
    69  C   -0.349660
    70  C   -0.349660
    71  C    0.091106
    72  C    0.091109
    73  C    0.020749
    74  C    0.020751
    75  C   -0.017687
    76  C   -0.017688
    77  C   -0.022294
    78  C   -0.022294
    79  C   -0.022498
    80  C   -0.022498
    81  C   -0.003627
    82  C   -0.019754
    83  C    0.056099
    84  C    0.056098
    85  Cl  -0.019445
    86  Cl  -0.019446
 Sum of Mulliken charges =  -0.00000
 Mulliken charges with hydrogens summed into heavy atoms:
               1
     1  C   -0.024121
     2  C   -0.022911
     3  C   -0.024121
     4  C   -0.022911
     5  C   -0.015049
     6  C   -0.017469
     7  C   -0.015049
     8  C   -0.017469
     9  C    0.050584
    10  C   -0.002469
    11  C   -0.002469
    12  C    0.050584
    13  C   -0.030218
    14  C   -0.030218
    15  C   -0.023549
    16  C   -0.023549
    17  C    0.056722
    18  C    0.056722
    19  C    0.056205
    20  C    0.056205
    21  C   -0.020635
    22  C   -0.020635
    23  C   -0.015785
    24  C   -0.015785
    25  C   -0.006189
    26  C   -0.006189
    27  C   -0.037165
    28  C   -0.037165
    29  C    0.000604
    30  C    0.000604
    31  C    0.070042
    32  C    0.070043
    33  C    0.004453
    34  C    0.004451
    35  C    0.034713
    36  C    0.034713
    37  C    0.047861
    38  C    0.047862
    39  C    0.052659
    40  C   -0.030535
    41  C   -0.030535
    42  C    0.052659
    43  C   -0.030515
    44  C    0.053783
    45  C    0.053783
    46  C   -0.030515
    47  C    0.046473
    48  C    0.046474
    49  C   -0.023547
    50  C   -0.023547
    51  C   -0.012057
    52  C   -0.012056
    53  C   -0.022482
    54  C   -0.022482
    55  C   -0.020923
    56  C   -0.020922
    57  C   -0.020464
    58  C   -0.020463
    59  C   -0.012360
    60  C   -0.012359
    61  C   -0.018249
    62  C   -0.018248
    63  C    0.035682
    64  C    0.035681
    65  C    0.074793
    66  C    0.074794
    67  C    0.097436
    68  C    0.097434
    69  C   -0.349660
    70  C   -0.349660
    71  C    0.091106
    72  C    0.091109
    73  C    0.020749
    74  C    0.020751
    75  C   -0.017687
    76  C   -0.017688
    77  C   -0.022294
    78  C   -0.022294
    79  C   -0.022498
    80  C   -0.022498
    81  C   -0.003627
    82  C   -0.019754
    83  C    0.056099
    84  C    0.056098
    85  Cl  -0.019445
    86  Cl  -0.019446
 Electronic spatial extent (au):  <R**2>=          37472.8237
 Charge=             -0.0000 electrons
 Dipole moment (field-independent basis, Debye):
    X=             -3.3297    Y=              0.0000    Z=              1.0355  Tot=              3.4870
 Quadrupole moment (field-independent basis, Debye-Ang):
   XX=           -497.4208   YY=           -479.0872   ZZ=           -477.5278
   XY=              0.0000   XZ=              8.5750   YZ=              0.0000
 Traceless Quadrupole moment (field-independent basis, Debye-Ang):
   XX=            -12.7422   YY=              5.5914   ZZ=              7.1508
   XY=              0.0000   XZ=              8.5750   YZ=              0.0000
 Octapole moment (field-independent basis, Debye-Ang**2):
  XXX=            -59.9011  YYY=              0.0001  ZZZ=            -19.1071  XYY=             11.4201
  XXY=              0.0000  XXZ=             28.1161  XZZ=             26.2649  YZZ=              0.0000
  YYZ=             -2.9728  XYZ=              0.0000
 Hexadecapole moment (field-independent basis, Debye-Ang**3):
 XXXX=         -22620.4751 YYYY=         -17076.3260 ZZZZ=         -16293.2911 XXXY=             -0.0003
 XXXZ=             61.5329 YYYX=              0.0000 YYYZ=              0.0001 ZZZX=            -61.8004
 ZZZY=              0.0001 XXYY=          -6596.7060 XXZZ=          -6382.3693 YYZZ=          -5557.2482
 XXYZ=              0.0001 YYXZ=             11.6447 ZZXY=             -0.0001
 N-N= 1.560382060850D+04 E-N=-4.080114173491D+04  KE= 4.088619847843D+03
 No NMR shielding tensors so no spin-rotation constants.
 Leave Link  601 at Tue Jun 28 08:53:58 2022, MaxMem=  1342177280 cpu:              22.3 elap:               1.1
 (Enter /home/mkliu/g16/l9999.exe)
 1\1\GINC-NODE05\FOpt\RB3LYP\6-31G(d,p)\C84Cl2\MKLIU\28-Jun-2022\0\\#P 
 opt b3lyp/6-31G(d, p) empiricaldispersion=GD3\\force\\0,1\C,8.27230030
 2,18.8592027138,10.5395559062\C,12.3130587813,20.1440531415,8.95529445
 94\C,8.2720504678,26.8932172347,10.5397833399\C,12.3128885729,25.60870
 65851,8.9554491738\C,7.963732883,18.9123160007,9.1471419444\C,11.87539
 06232,19.5674472586,10.2030238753\C,7.9634861305,26.840163983,9.147366
 2137\C,11.8751848186,26.1852147616,10.2032111472\C,8.9706694189,19.069
 1617949,8.1504805362\C,12.1412784672,20.2166367633,11.3795867971\C,12.
 1411131454,25.535975254,11.3797372878\C,8.9704326491,26.6834369711,8.1
 506959661\C,10.3041198144,18.9963933665,8.6181923676\C,10.3038785873,2
 6.7562610617,8.6184120244\C,10.613509689,18.8873036507,10.0022867771\C
 ,10.6132617627,26.8652915999,10.0025125233\C,9.6051430116,18.918612613
 2,11.0093010043\C,9.6048969749,26.8338631099,11.0095249753\C,9.8868276
 283,19.6173509645,12.2755731891\C,9.886625184,26.1350705976,12.2757576
 454\C,8.8134734109,20.2251433058,12.9790513228\C,8.8133087709,25.52717
 18592,12.9792014856\C,7.4668067442,20.2187849261,12.4217759877\C,7.466
 6418021,25.5334778727,12.4219263055\C,7.2009617326,19.5506153635,11.24
 7500062\C,7.2007549819,26.2016976144,11.2476883314\C,6.288799329,20.10
 7364589,10.3032011993\C,6.288627324,25.6449448573,10.3033579061\C,6.69
 15707077,19.5756537518,9.0077299881\C,6.6913648926,26.1767553051,9.007
 9167269\C,6.3791778706,20.2184882997,7.8602444509\C,6.3790124168,25.53
 39655095,7.8603948993\C,7.3400217071,20.3124514707,6.803087686\C,7.339
 8625817,25.4401213118,6.8032334779\C,8.6746782923,19.8401780244,6.9484
 059509\C,8.6744897019,25.9124699616,6.9485780115\C,9.742572622,20.5742
 524295,6.2692348081\C,9.7424294574,25.1784997099,6.2693651401\C,11.094
 7662747,20.5579837225,6.8350210808\C,12.7962883401,22.1463568667,7.728
 3877855\C,12.7962434208,23.6065026539,7.7284287582\C,11.0946220544,25.
 1948203937,6.835152333\C,11.3599822643,19.7597581195,7.9655108743\C,12
 .9559885189,21.4170833448,8.9233783626\C,12.9558975305,24.3357182475,8
 .9234609126\C,11.3597882408,25.9929984939,7.9656873358\C,13.1964254505
 ,22.1438083118,10.1748948373\C,13.1963797898,23.608937418,10.174936224
 6\C,12.8582438507,21.4787411822,11.3778186387\C,12.8581568279,24.27391
 54052,11.377897603\C,12.4081657297,22.18871278,12.5367781269\C,12.4081
 224483,23.5638502616,12.5368167954\C,11.1605101454,20.2274624248,12.45
 29669667\C,11.1603456457,25.5250281043,12.4531169883\C,11.321119084,21
 .4506700024,13.1663040408\C,11.3210306569,24.3017900225,13.1663846982\
 C,8.9747482545,21.4519227333,13.6871486372\C,8.9746600843,24.300361931
 6,13.6872287606\C,7.731742023,22.1928375821,13.5512481983\C,7.73170129
 46,23.5593769681,13.5512843285\C,6.8429538896,21.4766298494,12.6685476
 326\C,6.8428675964,24.2755799657,12.6686264302\C,6.0948626643,22.14910
 93346,11.6563392337\C,6.0948182158,23.6031112913,11.6563800165\C,5.810
 0162543,21.4337127172,10.4255087402\C,5.8099270303,24.3185600183,10.42
 55904987\C,5.5099828327,22.1854500846,9.2004085408\C,5.5099401987,23.5
 668732056,9.2004478829\C,5.4272646644,21.4009060421,7.8705457402\C,5.4
 271752786,24.3514859948,7.8706299605\C,5.9485150922,22.1972214327,6.69
 5321476\C,5.9484792736,23.5552679582,6.6953662596\C,7.0195560252,21.48
 19320824,6.0469041734\C,7.0194710045,24.2706617861,6.0469857896\C,8.03
 27549984,22.1539328089,5.3754676424\C,8.0327104773,23.598762694,5.3755
 09231\C,9.3832718577,21.6910151031,5.4738289458\C,9.3831984019,24.0617
 595578,5.4738961375\C,11.9385710445,21.6994844149,6.6820747648\C,11.93
 84980048,24.0533809544,6.6821411471\C,10.2249215232,22.8764151331,5.41
 62456608\C,11.4612321494,22.8764370677,6.0021215788\C,10.2184331458,22
 .1396048204,13.7387029015\C,10.2183875674,23.6127540577,13.7387446171\
 Cl,3.6708429085,20.8499883097,7.6209271613\Cl,3.6707173784,24.90230396
 43,7.621034712\\Version=ES64L-G16RevA.03\State=1-A\HF=-4121.4176393\RM
 SD=9.708e-09\RMSF=7.334e-05\Dipole=1.3250509,0.0000357,0.355395\Quadru
 pole=-11.0109223,4.1570877,6.8538347,-0.0003653,-3.9423503,-0.0001988\
 PG=C01 [X(C84Cl2)]\\@


 ... FOR AFTERWARDS A MAN FINDS PLEASURE IN HIS PAINS,
 WHEN HE HAS SUFFERED LONG AND WANDERED FAR.

                                    -- HOMER
 Job cpu time:       0 days 22 hours 30 minutes 25.8 seconds.
 Elapsed time:       0 days  0 hours 56 minutes 21.4 seconds.
 File lengths (MBytes):  RWF=   1037 Int=      0 D2E=      0 Chk=    131 Scr=      1
 Normal termination of Gaussian 16 at Tue Jun 28 08:54:00 2022.
