 Entering Gaussian System, Link 0=g16
 Input=2_addons_C84_14_Cl22_rank_3.gjf
 Output=2_addons_C84_14_Cl22_rank_3.log
 Initial command:
 /home/mkliu/g16/l1.exe "/data/scratch/Gau-74998.inp" -scrdir="/data/scratch/"
 Entering Link 1 = /home/mkliu/g16/l1.exe PID=     74999.
  
 Copyright (c) 1988,1990,1992,1993,1995,1998,2003,2009,2016,
            Gaussian, Inc.  All Rights Reserved.
  
 This is part of the Gaussian(R) 16 program.  It is based on
 the Gaussian(R) 09 system (copyright 2009, Gaussian, Inc.),
 the Gaussian(R) 03 system (copyright 2003, Gaussian, Inc.),
 the Gaussian(R) 98 system (copyright 1998, Gaussian, Inc.),
 the Gaussian(R) 94 system (copyright 1995, Gaussian, Inc.),
 the Gaussian 92(TM) system (copyright 1992, Gaussian, Inc.),
 the Gaussian 90(TM) system (copyright 1990, Gaussian, Inc.),
 the Gaussian 88(TM) system (copyright 1988, Gaussian, Inc.),
 the Gaussian 86(TM) system (copyright 1986, Carnegie Mellon
 University), and the Gaussian 82(TM) system (copyright 1983,
 Carnegie Mellon University). Gaussian is a federally registered
 trademark of Gaussian, Inc.
  
 This software contains proprietary and confidential information,
 including trade secrets, belonging to Gaussian, Inc.
  
 This software is provided under written license and may be
 used, copied, transmitted, or stored only in accord with that
 written license.
  
 The following legend is applicable only to US Government
 contracts under FAR:
  
                    RESTRICTED RIGHTS LEGEND
  
 Use, reproduction and disclosure by the US Government is
 subject to restrictions as set forth in subparagraphs (a)
 and (c) of the Commercial Computer Software - Restricted
 Rights clause in FAR 52.227-19.
  
 Gaussian, Inc.
 340 Quinnipiac St., Bldg. 40, Wallingford CT 06492
  
  
 ---------------------------------------------------------------
 Warning -- This program may not be used in any manner that
 competes with the business of Gaussian, Inc. or will provide
 assistance to any competitor of Gaussian, Inc.  The licensee
 of this program is prohibited from giving any competitor of
 Gaussian, Inc. access to this program.  By using this program,
 the user acknowledges that Gaussian, Inc. is engaged in the
 business of creating and licensing software in the field of
 computational chemistry and represents and warrants to the
 licensee that it is not a competitor of Gaussian, Inc. and that
 it will not use this program in any manner prohibited above.
 ---------------------------------------------------------------
  

 Cite this work as:
 Gaussian 16, Revision A.03,
 M. J. Frisch, G. W. Trucks, H. B. Schlegel, G. E. Scuseria, 
 M. A. Robb, J. R. Cheeseman, G. Scalmani, V. Barone, 
 G. A. Petersson, H. Nakatsuji, X. Li, M. Caricato, A. V. Marenich, 
 J. Bloino, B. G. Janesko, R. Gomperts, B. Mennucci, H. P. Hratchian, 
 J. V. Ortiz, A. F. Izmaylov, J. L. Sonnenberg, D. Williams-Young, 
 F. Ding, F. Lipparini, F. Egidi, J. Goings, B. Peng, A. Petrone, 
 T. Henderson, D. Ranasinghe, V. G. Zakrzewski, J. Gao, N. Rega, 
 G. Zheng, W. Liang, M. Hada, M. Ehara, K. Toyota, R. Fukuda, 
 J. Hasegawa, M. Ishida, T. Nakajima, Y. Honda, O. Kitao, H. Nakai, 
 T. Vreven, K. Throssell, J. A. Montgomery, Jr., J. E. Peralta, 
 F. Ogliaro, M. J. Bearpark, J. J. Heyd, E. N. Brothers, K. N. Kudin, 
 V. N. Staroverov, T. A. Keith, R. Kobayashi, J. Normand, 
 K. Raghavachari, A. P. Rendell, J. C. Burant, S. S. Iyengar, 
 J. Tomasi, M. Cossi, J. M. Millam, M. Klene, C. Adamo, R. Cammi, 
 J. W. Ochterski, R. L. Martin, K. Morokuma, O. Farkas, 
 J. B. Foresman, and D. J. Fox, Gaussian, Inc., Wallingford CT, 2016.
 
 ******************************************
 Gaussian 16:  ES64L-G16RevA.03 25-Dec-2016
                28-Jun-2022 
 ******************************************
 %mem=10GB
 %chk=2_addons_C84_14_Cl22_rank_3.chk
 %nprocshared=24
 Will use up to   24 processors via shared memory.
 ------------------------------------------------
 #P opt b3lyp/6-31G(d, p) empiricaldispersion=GD3
 ------------------------------------------------
 1/18=20,19=15,26=3,38=1/1,3;
 2/9=110,12=2,17=6,18=5,40=1/2;
 3/5=1,6=6,7=101,11=2,25=1,30=1,71=1,74=-5,124=31/1,2,3;
 4//1;
 5/5=2,38=5/2;
 6/7=2,8=2,9=2,10=2,28=1/1;
 7//1,2,3,16;
 1/18=20,19=15,26=3/3(2);
 2/9=110/2;
 99//99;
 2/9=110/2;
 3/5=1,6=6,7=101,11=2,25=1,30=1,71=1,74=-5,124=31/1,2,3;
 4/5=5,16=3,69=1/1;
 5/5=2,38=5/2;
 7//1,2,3,16;
 1/18=20,19=15,26=3/3(-5);
 2/9=110/2;
 6/7=2,8=2,9=2,10=2,19=2,28=1/1;
 99/9=1/99;
 Leave Link    1 at Tue Jun 28 10:56:15 2022, MaxMem=  1342177280 cpu:               0.7 elap:               0.1
 (Enter /home/mkliu/g16/l101.exe)
 -----
 force
 -----
 Symbolic Z-matrix:
 Charge =  0 Multiplicity = 1
 C                     8.29168   18.90834   10.53978 
 C                     12.29095   20.17675   8.95144 
 C                     8.28132   26.88821   10.53227 
 C                     12.27414   25.58808   8.95448 
 C                     7.97642   18.94929   9.15477 
 C                     11.86868   19.59357   10.18902 
 C                     7.96957   26.85114   9.14527 
 C                     11.84889   26.16834   10.19132 
 C                     8.96974   19.10506   8.15396 
 C                     12.13869   20.23749   11.36639 
 C                     12.12153   25.52455   11.36837 
 C                     8.95694   26.6769   8.14692 
 C                     10.29504   19.038    8.61737 
 C                     10.28072   26.73226   8.61683 
 C                     10.61197   18.92428   9.9928 
 C                     10.59464   26.84092   9.99571 
 C                     9.62341   18.95246   11.00097 
 C                     9.60565   26.82037   11.00466 
 C                     9.89869   19.63915   12.237 
 C                     9.88224   26.11997   12.24853 
 C                     8.82047   20.25279   12.91314 
 C                     8.8188    25.50087   12.93872 
 C                     7.48534   20.1909   12.40927 
 C                     7.48626   25.51074   12.39031 
 C                     7.22593   19.52651   11.26157 
 C                     7.22389   26.19763   11.2282 
 C                     6.11755   19.95114   10.34638 
 C                     6.31694   25.64123   10.28949 
 C                     6.70061   19.55488   9.02395 
 C                     6.70736   26.18189   9.02056 
 C                     6.41226   20.24226   7.89489 
 C                     6.40142   25.51121   7.87627 
 C                     7.34872   20.30331   6.80744 
 C                     7.33686   25.46577   6.78091 
 C                     8.67425   19.85135   6.95414 
 C                     8.65978   25.91613   6.94524 
 C                     9.72546   20.5878   6.28254 
 C                     9.71507   25.17469   6.28203 
 C                     11.06254   20.58171   6.8433 
 C                     12.75271   22.16359   7.73898 
 C                     12.74878   23.6059   7.73989 
 C                     11.05178   25.18355   6.84488 
 C                     11.33683   19.79232   7.96925 
 C                     12.92808   21.43891   8.92759 
 C                     12.91842   24.32837   8.92886 
 C                     11.32181   25.97178   7.97197 
 C                     13.16865   22.15804   10.16503 
 C                     13.16334   23.60953   10.1653 
 C                     12.84379   21.49424   11.35954 
 C                     12.83352   24.27136   11.35927 
 C                     12.39179   22.19537   12.51679 
 C                     12.38734   23.5678   12.51697 
 C                     11.1606   20.24798   12.42301 
 C                     11.14677   25.51081   12.42661 
 C                     11.31231   21.46551   13.13327 
 C                     11.30912   24.29375   13.13904 
 C                     8.97462   21.47375   13.62003 
 C                     8.97841   24.2725   13.63302 
 C                     7.7438    22.18238   13.5374 
 C                     7.75207   23.53825   13.50775 
 C                     6.69076   21.39867   12.80816 
 C                     6.85835   24.25815   12.6213 
 C                     6.15242   22.14074   11.58478 
 C                     6.14664   23.59033   11.61047 
 C                     5.87314   21.45774   10.4258 
 C                     5.84168   24.31562   10.40354 
 C                     5.53949   22.16024   9.1999 
 C                     5.52446   23.59998   9.19526 
 C                     5.68147   21.49492   7.96782 
 C                     5.6865    24.26815   7.95668 
 C                     5.98216   22.18807   6.76591 
 C                     5.98223   23.5702   6.75659 
 C                     7.01488   21.46706   6.05843 
 C                     7.0093    24.2926   6.04134 
 C                     8.0139    22.15614   5.40038 
 C                     8.01168   23.60118   5.39263 
 C                     9.36088   21.70075   5.49996 
 C                     9.35644   24.06086   5.49785 
 C                     11.89699   21.71515   6.70052 
 C                     11.89044   24.05287   6.70091 
 C                     10.18574   22.88132   5.44023 
 C                     11.421    22.88426   6.02442 
 C                     10.21604   22.1528   13.69434 
 C                     10.21771   23.5991   13.70294 
 Cl                    4.55434   19.10553   10.69055 
 Cl                    5.28593   20.99839   13.88146 
 
 ITRead=  0  0  0  0  0  0  0  0  0  0  0  0  0  0  0  0  0  0  0  0
 ITRead=  0  0  0  0  0  0  0  0  0  0  0  0  0  0  0  0  0  0  0  0
 ITRead=  0  0  0  0  0  0  0  0  0  0  0  0  0  0  0  0  0  0  0  0
 ITRead=  0  0  0  0  0  0  0  0  0  0  0  0  0  0  0  0  0  0  0  0
 ITRead=  0  0  0  0  0  0
 MicOpt= -1 -1 -1 -1 -1 -1 -1 -1 -1 -1 -1 -1 -1 -1 -1 -1 -1 -1 -1 -1
 MicOpt= -1 -1 -1 -1 -1 -1 -1 -1 -1 -1 -1 -1 -1 -1 -1 -1 -1 -1 -1 -1
 MicOpt= -1 -1 -1 -1 -1 -1 -1 -1 -1 -1 -1 -1 -1 -1 -1 -1 -1 -1 -1 -1
 MicOpt= -1 -1 -1 -1 -1 -1 -1 -1 -1 -1 -1 -1 -1 -1 -1 -1 -1 -1 -1 -1
 MicOpt= -1 -1 -1 -1 -1 -1
 NAtoms=     86 NQM=       86 NQMF=       0 NMMI=      0 NMMIF=      0
                NMic=       0 NMicF=      0.
                    Isotopes and Nuclear Properties:
 (Nuclear quadrupole moments (NQMom) in fm**2, nuclear magnetic moments (NMagM)
  in nuclear magnetons)

  Atom         1           2           3           4           5           6           7           8           9          10
 IAtWgt=          12          12          12          12          12          12          12          12          12          12
 AtmWgt=  12.0000000  12.0000000  12.0000000  12.0000000  12.0000000  12.0000000  12.0000000  12.0000000  12.0000000  12.0000000
 NucSpn=           0           0           0           0           0           0           0           0           0           0
 AtZEff=  -0.0000000  -0.0000000  -0.0000000  -0.0000000  -0.0000000  -0.0000000  -0.0000000  -0.0000000  -0.0000000  -0.0000000
 NQMom=    0.0000000   0.0000000   0.0000000   0.0000000   0.0000000   0.0000000   0.0000000   0.0000000   0.0000000   0.0000000
 NMagM=    0.0000000   0.0000000   0.0000000   0.0000000   0.0000000   0.0000000   0.0000000   0.0000000   0.0000000   0.0000000
 AtZNuc=   6.0000000   6.0000000   6.0000000   6.0000000   6.0000000   6.0000000   6.0000000   6.0000000   6.0000000   6.0000000

  Atom        11          12          13          14          15          16          17          18          19          20
 IAtWgt=          12          12          12          12          12          12          12          12          12          12
 AtmWgt=  12.0000000  12.0000000  12.0000000  12.0000000  12.0000000  12.0000000  12.0000000  12.0000000  12.0000000  12.0000000
 NucSpn=           0           0           0           0           0           0           0           0           0           0
 AtZEff=  -0.0000000  -0.0000000  -0.0000000  -0.0000000  -0.0000000  -0.0000000  -0.0000000  -0.0000000  -0.0000000  -0.0000000
 NQMom=    0.0000000   0.0000000   0.0000000   0.0000000   0.0000000   0.0000000   0.0000000   0.0000000   0.0000000   0.0000000
 NMagM=    0.0000000   0.0000000   0.0000000   0.0000000   0.0000000   0.0000000   0.0000000   0.0000000   0.0000000   0.0000000
 AtZNuc=   6.0000000   6.0000000   6.0000000   6.0000000   6.0000000   6.0000000   6.0000000   6.0000000   6.0000000   6.0000000

  Atom        21          22          23          24          25          26          27          28          29          30
 IAtWgt=          12          12          12          12          12          12          12          12          12          12
 AtmWgt=  12.0000000  12.0000000  12.0000000  12.0000000  12.0000000  12.0000000  12.0000000  12.0000000  12.0000000  12.0000000
 NucSpn=           0           0           0           0           0           0           0           0           0           0
 AtZEff=  -0.0000000  -0.0000000  -0.0000000  -0.0000000  -0.0000000  -0.0000000  -0.0000000  -0.0000000  -0.0000000  -0.0000000
 NQMom=    0.0000000   0.0000000   0.0000000   0.0000000   0.0000000   0.0000000   0.0000000   0.0000000   0.0000000   0.0000000
 NMagM=    0.0000000   0.0000000   0.0000000   0.0000000   0.0000000   0.0000000   0.0000000   0.0000000   0.0000000   0.0000000
 AtZNuc=   6.0000000   6.0000000   6.0000000   6.0000000   6.0000000   6.0000000   6.0000000   6.0000000   6.0000000   6.0000000

  Atom        31          32          33          34          35          36          37          38          39          40
 IAtWgt=          12          12          12          12          12          12          12          12          12          12
 AtmWgt=  12.0000000  12.0000000  12.0000000  12.0000000  12.0000000  12.0000000  12.0000000  12.0000000  12.0000000  12.0000000
 NucSpn=           0           0           0           0           0           0           0           0           0           0
 AtZEff=  -0.0000000  -0.0000000  -0.0000000  -0.0000000  -0.0000000  -0.0000000  -0.0000000  -0.0000000  -0.0000000  -0.0000000
 NQMom=    0.0000000   0.0000000   0.0000000   0.0000000   0.0000000   0.0000000   0.0000000   0.0000000   0.0000000   0.0000000
 NMagM=    0.0000000   0.0000000   0.0000000   0.0000000   0.0000000   0.0000000   0.0000000   0.0000000   0.0000000   0.0000000
 AtZNuc=   6.0000000   6.0000000   6.0000000   6.0000000   6.0000000   6.0000000   6.0000000   6.0000000   6.0000000   6.0000000

  Atom        41          42          43          44          45          46          47          48          49          50
 IAtWgt=          12          12          12          12          12          12          12          12          12          12
 AtmWgt=  12.0000000  12.0000000  12.0000000  12.0000000  12.0000000  12.0000000  12.0000000  12.0000000  12.0000000  12.0000000
 NucSpn=           0           0           0           0           0           0           0           0           0           0
 AtZEff=  -0.0000000  -0.0000000  -0.0000000  -0.0000000  -0.0000000  -0.0000000  -0.0000000  -0.0000000  -0.0000000  -0.0000000
 NQMom=    0.0000000   0.0000000   0.0000000   0.0000000   0.0000000   0.0000000   0.0000000   0.0000000   0.0000000   0.0000000
 NMagM=    0.0000000   0.0000000   0.0000000   0.0000000   0.0000000   0.0000000   0.0000000   0.0000000   0.0000000   0.0000000
 AtZNuc=   6.0000000   6.0000000   6.0000000   6.0000000   6.0000000   6.0000000   6.0000000   6.0000000   6.0000000   6.0000000

  Atom        51          52          53          54          55          56          57          58          59          60
 IAtWgt=          12          12          12          12          12          12          12          12          12          12
 AtmWgt=  12.0000000  12.0000000  12.0000000  12.0000000  12.0000000  12.0000000  12.0000000  12.0000000  12.0000000  12.0000000
 NucSpn=           0           0           0           0           0           0           0           0           0           0
 AtZEff=  -0.0000000  -0.0000000  -0.0000000  -0.0000000  -0.0000000  -0.0000000  -0.0000000  -0.0000000  -0.0000000  -0.0000000
 NQMom=    0.0000000   0.0000000   0.0000000   0.0000000   0.0000000   0.0000000   0.0000000   0.0000000   0.0000000   0.0000000
 NMagM=    0.0000000   0.0000000   0.0000000   0.0000000   0.0000000   0.0000000   0.0000000   0.0000000   0.0000000   0.0000000
 AtZNuc=   6.0000000   6.0000000   6.0000000   6.0000000   6.0000000   6.0000000   6.0000000   6.0000000   6.0000000   6.0000000

  Atom        61          62          63          64          65          66          67          68          69          70
 IAtWgt=          12          12          12          12          12          12          12          12          12          12
 AtmWgt=  12.0000000  12.0000000  12.0000000  12.0000000  12.0000000  12.0000000  12.0000000  12.0000000  12.0000000  12.0000000
 NucSpn=           0           0           0           0           0           0           0           0           0           0
 AtZEff=  -0.0000000  -0.0000000  -0.0000000  -0.0000000  -0.0000000  -0.0000000  -0.0000000  -0.0000000  -0.0000000  -0.0000000
 NQMom=    0.0000000   0.0000000   0.0000000   0.0000000   0.0000000   0.0000000   0.0000000   0.0000000   0.0000000   0.0000000
 NMagM=    0.0000000   0.0000000   0.0000000   0.0000000   0.0000000   0.0000000   0.0000000   0.0000000   0.0000000   0.0000000
 AtZNuc=   6.0000000   6.0000000   6.0000000   6.0000000   6.0000000   6.0000000   6.0000000   6.0000000   6.0000000   6.0000000

  Atom        71          72          73          74          75          76          77          78          79          80
 IAtWgt=          12          12          12          12          12          12          12          12          12          12
 AtmWgt=  12.0000000  12.0000000  12.0000000  12.0000000  12.0000000  12.0000000  12.0000000  12.0000000  12.0000000  12.0000000
 NucSpn=           0           0           0           0           0           0           0           0           0           0
 AtZEff=  -0.0000000  -0.0000000  -0.0000000  -0.0000000  -0.0000000  -0.0000000  -0.0000000  -0.0000000  -0.0000000  -0.0000000
 NQMom=    0.0000000   0.0000000   0.0000000   0.0000000   0.0000000   0.0000000   0.0000000   0.0000000   0.0000000   0.0000000
 NMagM=    0.0000000   0.0000000   0.0000000   0.0000000   0.0000000   0.0000000   0.0000000   0.0000000   0.0000000   0.0000000
 AtZNuc=   6.0000000   6.0000000   6.0000000   6.0000000   6.0000000   6.0000000   6.0000000   6.0000000   6.0000000   6.0000000

  Atom        81          82          83          84          85          86
 IAtWgt=          12          12          12          12          35          35
 AtmWgt=  12.0000000  12.0000000  12.0000000  12.0000000  34.9688527  34.9688527
 NucSpn=           0           0           0           0           3           3
 AtZEff=  -0.0000000  -0.0000000  -0.0000000  -0.0000000  -0.0000000  -0.0000000
 NQMom=    0.0000000   0.0000000   0.0000000   0.0000000  -8.1650000  -8.1650000
 NMagM=    0.0000000   0.0000000   0.0000000   0.0000000   0.8218740   0.8218740
 AtZNuc=   6.0000000   6.0000000   6.0000000   6.0000000  17.0000000  17.0000000
 Leave Link  101 at Tue Jun 28 10:56:15 2022, MaxMem=  1342177280 cpu:               6.5 elap:               0.3
 (Enter /home/mkliu/g16/l103.exe)

 GradGradGradGradGradGradGradGradGradGradGradGradGradGradGradGradGradGrad
 Berny optimization.
 Initialization pass.
                           ----------------------------
                           !    Initial Parameters    !
                           ! (Angstroms and Degrees)  !
 --------------------------                            --------------------------
 ! Name  Definition              Value          Derivative Info.                !
 --------------------------------------------------------------------------------
 ! R1    R(1,5)                  1.421          estimate D2E/DX2                !
 ! R2    R(1,17)                 1.41           estimate D2E/DX2                !
 ! R3    R(1,25)                 1.4279         estimate D2E/DX2                !
 ! R4    R(2,6)                  1.4318         estimate D2E/DX2                !
 ! R5    R(2,43)                 1.4223         estimate D2E/DX2                !
 ! R6    R(2,44)                 1.4141         estimate D2E/DX2                !
 ! R7    R(3,7)                  1.4221         estimate D2E/DX2                !
 ! R8    R(3,18)                 1.4077         estimate D2E/DX2                !
 ! R9    R(3,26)                 1.442          estimate D2E/DX2                !
 ! R10   R(4,8)                  1.4308         estimate D2E/DX2                !
 ! R11   R(4,45)                 1.4151         estimate D2E/DX2                !
 ! R12   R(4,46)                 1.4211         estimate D2E/DX2                !
 ! R13   R(5,9)                  1.4186         estimate D2E/DX2                !
 ! R14   R(5,29)                 1.4183         estimate D2E/DX2                !
 ! R15   R(6,10)                 1.3688         estimate D2E/DX2                !
 ! R16   R(6,15)                 1.4373         estimate D2E/DX2                !
 ! R17   R(7,12)                 1.4149         estimate D2E/DX2                !
 ! R18   R(7,30)                 1.4341         estimate D2E/DX2                !
 ! R19   R(8,11)                 1.369          estimate D2E/DX2                !
 ! R20   R(8,16)                 1.4366         estimate D2E/DX2                !
 ! R21   R(9,13)                 1.4056         estimate D2E/DX2                !
 ! R22   R(9,35)                 1.4436         estimate D2E/DX2                !
 ! R23   R(10,49)                1.4411         estimate D2E/DX2                !
 ! R24   R(10,53)                1.4399         estimate D2E/DX2                !
 ! R25   R(11,50)                1.4414         estimate D2E/DX2                !
 ! R26   R(11,54)                1.4388         estimate D2E/DX2                !
 ! R27   R(12,14)                1.4058         estimate D2E/DX2                !
 ! R28   R(12,36)                1.453          estimate D2E/DX2                !
 ! R29   R(13,15)                1.416          estimate D2E/DX2                !
 ! R30   R(13,43)                1.4403         estimate D2E/DX2                !
 ! R31   R(14,16)                1.4183         estimate D2E/DX2                !
 ! R32   R(14,46)                1.4415         estimate D2E/DX2                !
 ! R33   R(15,17)                1.4122         estimate D2E/DX2                !
 ! R34   R(16,18)                1.413          estimate D2E/DX2                !
 ! R35   R(17,19)                1.4405         estimate D2E/DX2                !
 ! R36   R(18,20)                1.454          estimate D2E/DX2                !
 ! R37   R(19,21)                1.4129         estimate D2E/DX2                !
 ! R38   R(19,53)                1.4134         estimate D2E/DX2                !
 ! R39   R(20,22)                1.4109         estimate D2E/DX2                !
 ! R40   R(20,54)                1.4149         estimate D2E/DX2                !
 ! R41   R(21,23)                1.4284         estimate D2E/DX2                !
 ! R42   R(21,57)                1.4192         estimate D2E/DX2                !
 ! R43   R(22,24)                1.441          estimate D2E/DX2                !
 ! R44   R(22,58)                1.42           estimate D2E/DX2                !
 ! R45   R(23,25)                1.3513         estimate D2E/DX2                !
 ! R46   R(23,61)                1.4997         estimate D2E/DX2                !
 ! R47   R(24,26)                1.3752         estimate D2E/DX2                !
 ! R48   R(24,62)                1.4201         estimate D2E/DX2                !
 ! R49   R(25,27)                1.4988         estimate D2E/DX2                !
 ! R50   R(26,28)                1.4189         estimate D2E/DX2                !
 ! R51   R(27,29)                1.4986         estimate D2E/DX2                !
 ! R52   R(27,65)                1.5284         estimate D2E/DX2                !
 ! R53   R(27,85)                1.8103         estimate D2E/DX2                !
 ! R54   R(28,30)                1.4335         estimate D2E/DX2                !
 ! R55   R(28,66)                1.4128         estimate D2E/DX2                !
 ! R56   R(29,31)                1.3529         estimate D2E/DX2                !
 ! R57   R(30,32)                1.3612         estimate D2E/DX2                !
 ! R58   R(31,33)                1.4364         estimate D2E/DX2                !
 ! R59   R(31,69)                1.4521         estimate D2E/DX2                !
 ! R60   R(32,34)                1.4412         estimate D2E/DX2                !
 ! R61   R(32,70)                1.4362         estimate D2E/DX2                !
 ! R62   R(33,35)                1.4081         estimate D2E/DX2                !
 ! R63   R(33,73)                1.4237         estimate D2E/DX2                !
 ! R64   R(34,36)                1.4071         estimate D2E/DX2                !
 ! R65   R(34,74)                1.425          estimate D2E/DX2                !
 ! R66   R(35,37)                1.4486         estimate D2E/DX2                !
 ! R67   R(36,38)                1.4503         estimate D2E/DX2                !
 ! R68   R(37,39)                1.4499         estimate D2E/DX2                !
 ! R69   R(37,77)                1.4085         estimate D2E/DX2                !
 ! R70   R(38,42)                1.4504         estimate D2E/DX2                !
 ! R71   R(38,78)                1.4086         estimate D2E/DX2                !
 ! R72   R(39,43)                1.4022         estimate D2E/DX2                !
 ! R73   R(39,79)                1.4147         estimate D2E/DX2                !
 ! R74   R(40,41)                1.4423         estimate D2E/DX2                !
 ! R75   R(40,44)                1.4031         estimate D2E/DX2                !
 ! R76   R(40,79)                1.4184         estimate D2E/DX2                !
 ! R77   R(41,45)                1.4016         estimate D2E/DX2                !
 ! R78   R(41,80)                1.4199         estimate D2E/DX2                !
 ! R79   R(42,46)                1.4016         estimate D2E/DX2                !
 ! R80   R(42,80)                1.4151         estimate D2E/DX2                !
 ! R81   R(44,47)                1.4513         estimate D2E/DX2                !
 ! R82   R(45,48)                1.451          estimate D2E/DX2                !
 ! R83   R(47,48)                1.4515         estimate D2E/DX2                !
 ! R84   R(47,49)                1.4046         estimate D2E/DX2                !
 ! R85   R(48,50)                1.4044         estimate D2E/DX2                !
 ! R86   R(49,51)                1.4266         estimate D2E/DX2                !
 ! R87   R(50,52)                1.4263         estimate D2E/DX2                !
 ! R88   R(51,52)                1.3724         estimate D2E/DX2                !
 ! R89   R(51,55)                1.4415         estimate D2E/DX2                !
 ! R90   R(52,56)                1.441          estimate D2E/DX2                !
 ! R91   R(53,55)                1.4177         estimate D2E/DX2                !
 ! R92   R(54,56)                1.4196         estimate D2E/DX2                !
 ! R93   R(55,83)                1.4103         estimate D2E/DX2                !
 ! R94   R(56,84)                1.4113         estimate D2E/DX2                !
 ! R95   R(57,59)                1.4226         estimate D2E/DX2                !
 ! R96   R(57,83)                1.417          estimate D2E/DX2                !
 ! R97   R(58,60)                1.4348         estimate D2E/DX2                !
 ! R98   R(58,84)                1.4122         estimate D2E/DX2                !
 ! R99   R(59,60)                1.3562         estimate D2E/DX2                !
 ! R100  R(59,61)                1.5016         estimate D2E/DX2                !
 ! R101  R(60,62)                1.4501         estimate D2E/DX2                !
 ! R102  R(61,63)                1.5288         estimate D2E/DX2                !
 ! R103  R(61,86)                1.8127         estimate D2E/DX2                !
 ! R104  R(62,64)                1.4051         estimate D2E/DX2                !
 ! R105  R(63,64)                1.4498         estimate D2E/DX2                !
 ! R106  R(63,65)                1.3739         estimate D2E/DX2                !
 ! R107  R(64,66)                1.4407         estimate D2E/DX2                !
 ! R108  R(65,67)                1.4518         estimate D2E/DX2                !
 ! R109  R(66,68)                1.4397         estimate D2E/DX2                !
 ! R110  R(67,68)                1.4398         estimate D2E/DX2                !
 ! R111  R(67,69)                1.4074         estimate D2E/DX2                !
 ! R112  R(68,70)                1.4166         estimate D2E/DX2                !
 ! R113  R(69,71)                1.4197         estimate D2E/DX2                !
 ! R114  R(70,72)                1.4194         estimate D2E/DX2                !
 ! R115  R(71,72)                1.3822         estimate D2E/DX2                !
 ! R116  R(71,73)                1.4446         estimate D2E/DX2                !
 ! R117  R(72,74)                1.4451         estimate D2E/DX2                !
 ! R118  R(73,75)                1.3805         estimate D2E/DX2                !
 ! R119  R(74,76)                1.3797         estimate D2E/DX2                !
 ! R120  R(75,76)                1.4451         estimate D2E/DX2                !
 ! R121  R(75,77)                1.4254         estimate D2E/DX2                !
 ! R122  R(76,78)                1.425          estimate D2E/DX2                !
 ! R123  R(77,81)                1.4414         estimate D2E/DX2                !
 ! R124  R(78,81)                1.443          estimate D2E/DX2                !
 ! R125  R(79,82)                1.432          estimate D2E/DX2                !
 ! R126  R(80,82)                1.4296         estimate D2E/DX2                !
 ! R127  R(81,82)                1.3664         estimate D2E/DX2                !
 ! R128  R(83,84)                1.4463         estimate D2E/DX2                !
 ! A1    A(5,1,17)             121.8315         estimate D2E/DX2                !
 ! A2    A(5,1,25)             108.338          estimate D2E/DX2                !
 ! A3    A(17,1,25)            121.7386         estimate D2E/DX2                !
 ! A4    A(6,2,43)             106.7962         estimate D2E/DX2                !
 ! A5    A(6,2,44)             120.7316         estimate D2E/DX2                !
 ! A6    A(43,2,44)            122.1326         estimate D2E/DX2                !
 ! A7    A(7,3,18)             122.1599         estimate D2E/DX2                !
 ! A8    A(7,3,26)             107.3054         estimate D2E/DX2                !
 ! A9    A(18,3,26)            120.3213         estimate D2E/DX2                !
 ! A10   A(8,4,45)             120.7939         estimate D2E/DX2                !
 ! A11   A(8,4,46)             106.7968         estimate D2E/DX2                !
 ! A12   A(45,4,46)            122.2039         estimate D2E/DX2                !
 ! A13   A(1,5,9)              122.3718         estimate D2E/DX2                !
 ! A14   A(1,5,29)             107.5638         estimate D2E/DX2                !
 ! A15   A(9,5,29)             121.1911         estimate D2E/DX2                !
 ! A16   A(2,6,10)             119.5828         estimate D2E/DX2                !
 ! A17   A(2,6,15)             109.2409         estimate D2E/DX2                !
 ! A18   A(10,6,15)            120.5938         estimate D2E/DX2                !
 ! A19   A(3,7,12)             122.5755         estimate D2E/DX2                !
 ! A20   A(3,7,30)             106.8537         estimate D2E/DX2                !
 ! A21   A(12,7,30)            119.6938         estimate D2E/DX2                !
 ! A22   A(4,8,11)             119.5584         estimate D2E/DX2                !
 ! A23   A(4,8,16)             109.3685         estimate D2E/DX2                !
 ! A24   A(11,8,16)            120.7373         estimate D2E/DX2                !
 ! A25   A(5,9,13)             114.9845         estimate D2E/DX2                !
 ! A26   A(5,9,35)             119.9864         estimate D2E/DX2                !
 ! A27   A(13,9,35)            119.452          estimate D2E/DX2                !
 ! A28   A(6,10,49)            120.1768         estimate D2E/DX2                !
 ! A29   A(6,10,53)            120.0409         estimate D2E/DX2                !
 ! A30   A(49,10,53)           109.2388         estimate D2E/DX2                !
 ! A31   A(8,11,50)            120.1195         estimate D2E/DX2                !
 ! A32   A(8,11,54)            120.1279         estimate D2E/DX2                !
 ! A33   A(50,11,54)           109.3287         estimate D2E/DX2                !
 ! A34   A(7,12,14)            114.6086         estimate D2E/DX2                !
 ! A35   A(7,12,36)            120.3527         estimate D2E/DX2                !
 ! A36   A(14,12,36)           119.3183         estimate D2E/DX2                !
 ! A37   A(9,13,15)            122.3502         estimate D2E/DX2                !
 ! A38   A(9,13,43)            120.5754         estimate D2E/DX2                !
 ! A39   A(15,13,43)           108.4974         estimate D2E/DX2                !
 ! A40   A(12,14,16)           122.4387         estimate D2E/DX2                !
 ! A41   A(12,14,46)           120.6483         estimate D2E/DX2                !
 ! A42   A(16,14,46)           108.3892         estimate D2E/DX2                !
 ! A43   A(6,15,13)            106.9117         estimate D2E/DX2                !
 ! A44   A(6,15,17)            120.3509         estimate D2E/DX2                !
 ! A45   A(13,15,17)           122.3528         estimate D2E/DX2                !
 ! A46   A(8,16,14)            106.8426         estimate D2E/DX2                !
 ! A47   A(8,16,18)            120.468          estimate D2E/DX2                !
 ! A48   A(14,16,18)           122.5592         estimate D2E/DX2                !
 ! A49   A(1,17,15)            115.2776         estimate D2E/DX2                !
 ! A50   A(1,17,19)            118.428          estimate D2E/DX2                !
 ! A51   A(15,17,19)           119.2281         estimate D2E/DX2                !
 ! A52   A(3,18,16)            114.7184         estimate D2E/DX2                !
 ! A53   A(3,18,20)            119.2905         estimate D2E/DX2                !
 ! A54   A(16,18,20)           118.9931         estimate D2E/DX2                !
 ! A55   A(17,19,21)           118.1523         estimate D2E/DX2                !
 ! A56   A(17,19,53)           119.2665         estimate D2E/DX2                !
 ! A57   A(21,19,53)           115.5491         estimate D2E/DX2                !
 ! A58   A(18,20,22)           119.1089         estimate D2E/DX2                !
 ! A59   A(18,20,54)           119.0174         estimate D2E/DX2                !
 ! A60   A(22,20,54)           115.0341         estimate D2E/DX2                !
 ! A61   A(19,21,23)           121.7139         estimate D2E/DX2                !
 ! A62   A(19,21,57)           121.9447         estimate D2E/DX2                !
 ! A63   A(23,21,57)           108.3307         estimate D2E/DX2                !
 ! A64   A(20,22,24)           120.5195         estimate D2E/DX2                !
 ! A65   A(20,22,58)           122.2798         estimate D2E/DX2                !
 ! A66   A(24,22,58)           107.2138         estimate D2E/DX2                !
 ! A67   A(21,23,25)           120.0237         estimate D2E/DX2                !
 ! A68   A(21,23,61)           111.5007         estimate D2E/DX2                !
 ! A69   A(25,23,61)           121.3427         estimate D2E/DX2                !
 ! A70   A(22,24,26)           120.0959         estimate D2E/DX2                !
 ! A71   A(22,24,62)           109.9338         estimate D2E/DX2                !
 ! A72   A(26,24,62)           119.5824         estimate D2E/DX2                !
 ! A73   A(1,25,23)            119.9281         estimate D2E/DX2                !
 ! A74   A(1,25,27)            111.4655         estimate D2E/DX2                !
 ! A75   A(23,25,27)           121.4189         estimate D2E/DX2                !
 ! A76   A(3,26,24)            120.473          estimate D2E/DX2                !
 ! A77   A(3,26,28)            109.7081         estimate D2E/DX2                !
 ! A78   A(24,26,28)           119.0222         estimate D2E/DX2                !
 ! A79   A(25,27,29)           100.1483         estimate D2E/DX2                !
 ! A80   A(25,27,65)           111.4575         estimate D2E/DX2                !
 ! A81   A(25,27,85)           112.9638         estimate D2E/DX2                !
 ! A82   A(29,27,65)           111.6372         estimate D2E/DX2                !
 ! A83   A(29,27,85)           112.3474         estimate D2E/DX2                !
 ! A84   A(65,27,85)           108.2099         estimate D2E/DX2                !
 ! A85   A(26,28,30)           105.2862         estimate D2E/DX2                !
 ! A86   A(26,28,66)           121.9736         estimate D2E/DX2                !
 ! A87   A(30,28,66)           121.1274         estimate D2E/DX2                !
 ! A88   A(5,29,27)            112.4262         estimate D2E/DX2                !
 ! A89   A(5,29,31)            119.0537         estimate D2E/DX2                !
 ! A90   A(27,29,31)           121.276          estimate D2E/DX2                !
 ! A91   A(7,30,28)            109.8003         estimate D2E/DX2                !
 ! A92   A(7,30,32)            120.0574         estimate D2E/DX2                !
 ! A93   A(28,30,32)           119.8086         estimate D2E/DX2                !
 ! A94   A(29,31,33)           120.9604         estimate D2E/DX2                !
 ! A95   A(29,31,69)           120.2412         estimate D2E/DX2                !
 ! A96   A(33,31,69)           109.2365         estimate D2E/DX2                !
 ! A97   A(30,32,34)           120.5706         estimate D2E/DX2                !
 ! A98   A(30,32,70)           119.4234         estimate D2E/DX2                !
 ! A99   A(34,32,70)           109.777          estimate D2E/DX2                !
 ! A100  A(31,33,35)           121.4126         estimate D2E/DX2                !
 ! A101  A(31,33,73)           106.2704         estimate D2E/DX2                !
 ! A102  A(35,33,73)           122.5423         estimate D2E/DX2                !
 ! A103  A(32,34,36)           120.7567         estimate D2E/DX2                !
 ! A104  A(32,34,74)           105.7373         estimate D2E/DX2                !
 ! A105  A(36,34,74)           122.6998         estimate D2E/DX2                !
 ! A106  A(9,35,33)            116.4368         estimate D2E/DX2                !
 ! A107  A(9,35,37)            119.9752         estimate D2E/DX2                !
 ! A108  A(33,35,37)           118.1403         estimate D2E/DX2                !
 ! A109  A(12,36,34)           117.159          estimate D2E/DX2                !
 ! A110  A(12,36,38)           119.8073         estimate D2E/DX2                !
 ! A111  A(34,36,38)           117.845          estimate D2E/DX2                !
 ! A112  A(35,37,39)           119.1932         estimate D2E/DX2                !
 ! A113  A(35,37,77)           118.1288         estimate D2E/DX2                !
 ! A114  A(39,37,77)           117.1863         estimate D2E/DX2                !
 ! A115  A(36,38,42)           119.3429         estimate D2E/DX2                !
 ! A116  A(36,38,78)           118.2673         estimate D2E/DX2                !
 ! A117  A(42,38,78)           117.0979         estimate D2E/DX2                !
 ! A118  A(37,39,43)           119.5587         estimate D2E/DX2                !
 ! A119  A(37,39,79)           120.1017         estimate D2E/DX2                !
 ! A120  A(43,39,79)           114.6269         estimate D2E/DX2                !
 ! A121  A(41,40,44)           121.0835         estimate D2E/DX2                !
 ! A122  A(41,40,79)           108.3597         estimate D2E/DX2                !
 ! A123  A(44,40,79)           122.1636         estimate D2E/DX2                !
 ! A124  A(40,41,45)           121.0426         estimate D2E/DX2                !
 ! A125  A(40,41,80)           108.4205         estimate D2E/DX2                !
 ! A126  A(45,41,80)           122.117          estimate D2E/DX2                !
 ! A127  A(38,42,46)           119.5407         estimate D2E/DX2                !
 ! A128  A(38,42,80)           120.1211         estimate D2E/DX2                !
 ! A129  A(46,42,80)           114.6436         estimate D2E/DX2                !
 ! A130  A(2,43,13)            108.4241         estimate D2E/DX2                !
 ! A131  A(2,43,39)            122.2483         estimate D2E/DX2                !
 ! A132  A(13,43,39)           120.9772         estimate D2E/DX2                !
 ! A133  A(2,44,40)            114.7699         estimate D2E/DX2                !
 ! A134  A(2,44,47)            120.1713         estimate D2E/DX2                !
 ! A135  A(40,44,47)           119.1499         estimate D2E/DX2                !
 ! A136  A(4,45,41)            114.7781         estimate D2E/DX2                !
 ! A137  A(4,45,48)            120.1593         estimate D2E/DX2                !
 ! A138  A(41,45,48)           119.2041         estimate D2E/DX2                !
 ! A139  A(4,46,14)            108.4899         estimate D2E/DX2                !
 ! A140  A(4,46,42)            122.2237         estimate D2E/DX2                !
 ! A141  A(14,46,42)           121.1486         estimate D2E/DX2                !
 ! A142  A(44,47,48)           119.6731         estimate D2E/DX2                !
 ! A143  A(44,47,49)           116.9097         estimate D2E/DX2                !
 ! A144  A(48,47,49)           118.1362         estimate D2E/DX2                !
 ! A145  A(45,48,47)           119.7262         estimate D2E/DX2                !
 ! A146  A(45,48,50)           116.8293         estimate D2E/DX2                !
 ! A147  A(47,48,50)           118.1811         estimate D2E/DX2                !
 ! A148  A(10,49,47)           121.9611         estimate D2E/DX2                !
 ! A149  A(10,49,51)           105.6488         estimate D2E/DX2                !
 ! A150  A(47,49,51)           122.0643         estimate D2E/DX2                !
 ! A151  A(11,50,48)           122.0801         estimate D2E/DX2                !
 ! A152  A(11,50,52)           105.6185         estimate D2E/DX2                !
 ! A153  A(48,50,52)           122.0777         estimate D2E/DX2                !
 ! A154  A(49,51,52)           119.5125         estimate D2E/DX2                !
 ! A155  A(49,51,55)           109.5934         estimate D2E/DX2                !
 ! A156  A(52,51,55)           120.2527         estimate D2E/DX2                !
 ! A157  A(50,52,51)           119.4819         estimate D2E/DX2                !
 ! A158  A(50,52,56)           109.6305         estimate D2E/DX2                !
 ! A159  A(51,52,56)           120.4149         estimate D2E/DX2                !
 ! A160  A(10,53,19)           120.4493         estimate D2E/DX2                !
 ! A161  A(10,53,55)           107.5305         estimate D2E/DX2                !
 ! A162  A(19,53,55)           122.1004         estimate D2E/DX2                !
 ! A163  A(11,54,20)           120.5836         estimate D2E/DX2                !
 ! A164  A(11,54,56)           107.4475         estimate D2E/DX2                !
 ! A165  A(20,54,56)           122.311          estimate D2E/DX2                !
 ! A166  A(51,55,53)           107.4994         estimate D2E/DX2                !
 ! A167  A(51,55,83)           120.3641         estimate D2E/DX2                !
 ! A168  A(53,55,83)           122.3209         estimate D2E/DX2                !
 ! A169  A(52,56,54)           107.5079         estimate D2E/DX2                !
 ! A170  A(52,56,84)           120.21           estimate D2E/DX2                !
 ! A171  A(54,56,84)           122.282          estimate D2E/DX2                !
 ! A172  A(21,57,59)           107.7958         estimate D2E/DX2                !
 ! A173  A(21,57,83)           122.247          estimate D2E/DX2                !
 ! A174  A(59,57,83)           121.4881         estimate D2E/DX2                !
 ! A175  A(22,58,60)           107.6933         estimate D2E/DX2                !
 ! A176  A(22,58,84)           122.3678         estimate D2E/DX2                !
 ! A177  A(60,58,84)           120.6883         estimate D2E/DX2                !
 ! A178  A(57,59,60)           119.6025         estimate D2E/DX2                !
 ! A179  A(57,59,61)           112.0214         estimate D2E/DX2                !
 ! A180  A(60,59,61)           121.0259         estimate D2E/DX2                !
 ! A181  A(58,60,59)           120.9911         estimate D2E/DX2                !
 ! A182  A(58,60,62)           109.031          estimate D2E/DX2                !
 ! A183  A(59,60,62)           120.3933         estimate D2E/DX2                !
 ! A184  A(23,61,59)           100.2487         estimate D2E/DX2                !
 ! A185  A(23,61,63)           111.3854         estimate D2E/DX2                !
 ! A186  A(23,61,86)           112.9709         estimate D2E/DX2                !
 ! A187  A(59,61,63)           112.472          estimate D2E/DX2                !
 ! A188  A(59,61,86)           111.7886         estimate D2E/DX2                !
 ! A189  A(63,61,86)           107.9457         estimate D2E/DX2                !
 ! A190  A(24,62,60)           105.3565         estimate D2E/DX2                !
 ! A191  A(24,62,64)           121.7477         estimate D2E/DX2                !
 ! A192  A(60,62,64)           121.0639         estimate D2E/DX2                !
 ! A193  A(61,63,64)           118.1999         estimate D2E/DX2                !
 ! A194  A(61,63,65)           120.3522         estimate D2E/DX2                !
 ! A195  A(64,63,65)           120.7414         estimate D2E/DX2                !
 ! A196  A(62,64,63)           119.0738         estimate D2E/DX2                !
 ! A197  A(62,64,66)           118.0734         estimate D2E/DX2                !
 ! A198  A(63,64,66)           119.2966         estimate D2E/DX2                !
 ! A199  A(27,65,63)           120.09           estimate D2E/DX2                !
 ! A200  A(27,65,67)           118.026          estimate D2E/DX2                !
 ! A201  A(63,65,67)           121.2297         estimate D2E/DX2                !
 ! A202  A(28,66,64)           117.9534         estimate D2E/DX2                !
 ! A203  A(28,66,68)           118.2134         estimate D2E/DX2                !
 ! A204  A(64,66,68)           119.9651         estimate D2E/DX2                !
 ! A205  A(65,67,68)           119.2737         estimate D2E/DX2                !
 ! A206  A(65,67,69)           119.162          estimate D2E/DX2                !
 ! A207  A(68,67,69)           118.0946         estimate D2E/DX2                !
 ! A208  A(66,68,67)           119.4746         estimate D2E/DX2                !
 ! A209  A(66,68,70)           118.3031         estimate D2E/DX2                !
 ! A210  A(67,68,70)           118.2462         estimate D2E/DX2                !
 ! A211  A(31,69,67)           120.1684         estimate D2E/DX2                !
 ! A212  A(31,69,71)           105.7879         estimate D2E/DX2                !
 ! A213  A(67,69,71)           122.1204         estimate D2E/DX2                !
 ! A214  A(32,70,68)           120.9385         estimate D2E/DX2                !
 ! A215  A(32,70,72)           105.9339         estimate D2E/DX2                !
 ! A216  A(68,70,72)           122.0816         estimate D2E/DX2                !
 ! A217  A(69,71,72)           119.6008         estimate D2E/DX2                !
 ! A218  A(69,71,73)           108.8053         estimate D2E/DX2                !
 ! A219  A(72,71,73)           119.7194         estimate D2E/DX2                !
 ! A220  A(70,72,71)           119.077          estimate D2E/DX2                !
 ! A221  A(70,72,74)           108.7077         estimate D2E/DX2                !
 ! A222  A(71,72,74)           120.2155         estimate D2E/DX2                !
 ! A223  A(33,73,71)           108.5396         estimate D2E/DX2                !
 ! A224  A(33,73,75)           119.2817         estimate D2E/DX2                !
 ! A225  A(71,73,75)           120.1082         estimate D2E/DX2                !
 ! A226  A(34,74,72)           108.5449         estimate D2E/DX2                !
 ! A227  A(34,74,76)           119.3134         estimate D2E/DX2                !
 ! A228  A(72,74,76)           119.9041         estimate D2E/DX2                !
 ! A229  A(73,75,76)           120.038          estimate D2E/DX2                !
 ! A230  A(73,75,77)           119.4112         estimate D2E/DX2                !
 ! A231  A(76,75,77)           108.7424         estimate D2E/DX2                !
 ! A232  A(74,76,75)           119.9809         estimate D2E/DX2                !
 ! A233  A(74,76,78)           119.2888         estimate D2E/DX2                !
 ! A234  A(75,76,78)           108.7067         estimate D2E/DX2                !
 ! A235  A(37,77,75)           122.4023         estimate D2E/DX2                !
 ! A236  A(37,77,81)           121.47           estimate D2E/DX2                !
 ! A237  A(75,77,81)           106.0344         estimate D2E/DX2                !
 ! A238  A(38,78,76)           122.4408         estimate D2E/DX2                !
 ! A239  A(38,78,81)           121.4838         estimate D2E/DX2                !
 ! A240  A(76,78,81)           106.0032         estimate D2E/DX2                !
 ! A241  A(39,79,40)           122.3626         estimate D2E/DX2                !
 ! A242  A(39,79,82)           120.3786         estimate D2E/DX2                !
 ! A243  A(40,79,82)           106.7442         estimate D2E/DX2                !
 ! A244  A(41,80,42)           122.3678         estimate D2E/DX2                !
 ! A245  A(41,80,82)           106.705          estimate D2E/DX2                !
 ! A246  A(42,80,82)           120.4434         estimate D2E/DX2                !
 ! A247  A(77,81,78)           109.8131         estimate D2E/DX2                !
 ! A248  A(77,81,82)           120.0901         estimate D2E/DX2                !
 ! A249  A(78,81,82)           120.0453         estimate D2E/DX2                !
 ! A250  A(79,82,80)           109.5621         estimate D2E/DX2                !
 ! A251  A(79,82,81)           120.0394         estimate D2E/DX2                !
 ! A252  A(80,82,81)           120.0613         estimate D2E/DX2                !
 ! A253  A(55,83,57)           115.253          estimate D2E/DX2                !
 ! A254  A(55,83,84)           119.2613         estimate D2E/DX2                !
 ! A255  A(57,83,84)           118.7213         estimate D2E/DX2                !
 ! A256  A(56,84,58)           115.0988         estimate D2E/DX2                !
 ! A257  A(56,84,83)           119.3881         estimate D2E/DX2                !
 ! A258  A(58,84,83)           118.3944         estimate D2E/DX2                !
 ! D1    D(17,1,5,9)            -3.2802         estimate D2E/DX2                !
 ! D2    D(17,1,5,29)         -150.8265         estimate D2E/DX2                !
 ! D3    D(25,1,5,9)           145.8184         estimate D2E/DX2                !
 ! D4    D(25,1,5,29)           -1.7279         estimate D2E/DX2                !
 ! D5    D(5,1,17,15)           -5.172          estimate D2E/DX2                !
 ! D6    D(5,1,17,19)          145.2473         estimate D2E/DX2                !
 ! D7    D(25,1,17,15)        -150.1983         estimate D2E/DX2                !
 ! D8    D(25,1,17,19)           0.2209         estimate D2E/DX2                !
 ! D9    D(5,1,25,23)         -148.2158         estimate D2E/DX2                !
 ! D10   D(5,1,25,27)            2.5576         estimate D2E/DX2                !
 ! D11   D(17,1,25,23)           0.9172         estimate D2E/DX2                !
 ! D12   D(17,1,25,27)         151.6906         estimate D2E/DX2                !
 ! D13   D(43,2,6,10)         -148.6248         estimate D2E/DX2                !
 ! D14   D(43,2,6,15)           -3.7391         estimate D2E/DX2                !
 ! D15   D(44,2,6,10)           -2.9554         estimate D2E/DX2                !
 ! D16   D(44,2,6,15)          141.9303         estimate D2E/DX2                !
 ! D17   D(6,2,43,13)            3.1041         estimate D2E/DX2                !
 ! D18   D(6,2,43,39)          151.4928         estimate D2E/DX2                !
 ! D19   D(44,2,43,13)        -141.9739         estimate D2E/DX2                !
 ! D20   D(44,2,43,39)           6.4147         estimate D2E/DX2                !
 ! D21   D(6,2,44,40)         -152.393          estimate D2E/DX2                !
 ! D22   D(6,2,44,47)            0.3251         estimate D2E/DX2                !
 ! D23   D(43,2,44,40)         -12.004          estimate D2E/DX2                !
 ! D24   D(43,2,44,47)         140.7141         estimate D2E/DX2                !
 ! D25   D(18,3,7,12)            3.2369         estimate D2E/DX2                !
 ! D26   D(18,3,7,30)          147.1165         estimate D2E/DX2                !
 ! D27   D(26,3,7,12)         -141.9005         estimate D2E/DX2                !
 ! D28   D(26,3,7,30)            1.9792         estimate D2E/DX2                !
 ! D29   D(7,3,18,16)            5.6975         estimate D2E/DX2                !
 ! D30   D(7,3,18,20)         -144.7663         estimate D2E/DX2                !
 ! D31   D(26,3,18,16)         146.4835         estimate D2E/DX2                !
 ! D32   D(26,3,18,20)          -3.9803         estimate D2E/DX2                !
 ! D33   D(7,3,26,24)          148.5745         estimate D2E/DX2                !
 ! D34   D(7,3,26,28)            4.6051         estimate D2E/DX2                !
 ! D35   D(18,3,26,24)           2.6712         estimate D2E/DX2                !
 ! D36   D(18,3,26,28)        -141.2982         estimate D2E/DX2                !
 ! D37   D(45,4,8,11)            2.9117         estimate D2E/DX2                !
 ! D38   D(45,4,8,16)         -142.3925         estimate D2E/DX2                !
 ! D39   D(46,4,8,11)          148.8004         estimate D2E/DX2                !
 ! D40   D(46,4,8,16)            3.4962         estimate D2E/DX2                !
 ! D41   D(8,4,45,41)          152.4991         estimate D2E/DX2                !
 ! D42   D(8,4,45,48)           -0.3429         estimate D2E/DX2                !
 ! D43   D(46,4,45,41)          11.8811         estimate D2E/DX2                !
 ! D44   D(46,4,45,48)        -140.9608         estimate D2E/DX2                !
 ! D45   D(8,4,46,14)           -2.6974         estimate D2E/DX2                !
 ! D46   D(8,4,46,42)         -151.5117         estimate D2E/DX2                !
 ! D47   D(45,4,46,14)         142.5994         estimate D2E/DX2                !
 ! D48   D(45,4,46,42)          -6.2148         estimate D2E/DX2                !
 ! D49   D(1,5,9,13)             8.0404         estimate D2E/DX2                !
 ! D50   D(1,5,9,35)          -145.4902         estimate D2E/DX2                !
 ! D51   D(29,5,9,13)          151.3098         estimate D2E/DX2                !
 ! D52   D(29,5,9,35)           -2.2208         estimate D2E/DX2                !
 ! D53   D(1,5,29,27)            0.3132         estimate D2E/DX2                !
 ! D54   D(1,5,29,31)          150.9766         estimate D2E/DX2                !
 ! D55   D(9,5,29,27)         -147.6942         estimate D2E/DX2                !
 ! D56   D(9,5,29,31)            2.9692         estimate D2E/DX2                !
 ! D57   D(2,6,10,49)           -0.0122         estimate D2E/DX2                !
 ! D58   D(2,6,10,53)          140.9358         estimate D2E/DX2                !
 ! D59   D(15,6,10,49)        -140.8955         estimate D2E/DX2                !
 ! D60   D(15,6,10,53)           0.0525         estimate D2E/DX2                !
 ! D61   D(2,6,15,13)            2.9229         estimate D2E/DX2                !
 ! D62   D(2,6,15,17)         -142.7856         estimate D2E/DX2                !
 ! D63   D(10,6,15,13)         147.3936         estimate D2E/DX2                !
 ! D64   D(10,6,15,17)           1.685          estimate D2E/DX2                !
 ! D65   D(3,7,12,14)           -8.5249         estimate D2E/DX2                !
 ! D66   D(3,7,12,36)          144.6432         estimate D2E/DX2                !
 ! D67   D(30,7,12,14)        -148.0252         estimate D2E/DX2                !
 ! D68   D(30,7,12,36)           5.143          estimate D2E/DX2                !
 ! D69   D(3,7,30,28)           -7.8489         estimate D2E/DX2                !
 ! D70   D(3,7,30,32)         -152.8108         estimate D2E/DX2                !
 ! D71   D(12,7,30,28)         137.2727         estimate D2E/DX2                !
 ! D72   D(12,7,30,32)          -7.6893         estimate D2E/DX2                !
 ! D73   D(4,8,11,50)            0.062          estimate D2E/DX2                !
 ! D74   D(4,8,11,54)         -141.1152         estimate D2E/DX2                !
 ! D75   D(16,8,11,50)         141.3964         estimate D2E/DX2                !
 ! D76   D(16,8,11,54)           0.2192         estimate D2E/DX2                !
 ! D77   D(4,8,16,14)           -2.9346         estimate D2E/DX2                !
 ! D78   D(4,8,16,18)          143.2125         estimate D2E/DX2                !
 ! D79   D(11,8,16,14)        -147.7605         estimate D2E/DX2                !
 ! D80   D(11,8,16,18)          -1.6134         estimate D2E/DX2                !
 ! D81   D(5,9,13,15)           -4.5297         estimate D2E/DX2                !
 ! D82   D(5,9,13,43)         -148.6671         estimate D2E/DX2                !
 ! D83   D(35,9,13,15)         149.1523         estimate D2E/DX2                !
 ! D84   D(35,9,13,43)           5.0149         estimate D2E/DX2                !
 ! D85   D(5,9,35,33)           -4.7571         estimate D2E/DX2                !
 ! D86   D(5,9,35,37)          148.7282         estimate D2E/DX2                !
 ! D87   D(13,9,35,33)        -157.1135         estimate D2E/DX2                !
 ! D88   D(13,9,35,37)          -3.6283         estimate D2E/DX2                !
 ! D89   D(6,10,49,47)           5.8504         estimate D2E/DX2                !
 ! D90   D(6,10,49,51)         151.3973         estimate D2E/DX2                !
 ! D91   D(53,10,49,47)       -138.864          estimate D2E/DX2                !
 ! D92   D(53,10,49,51)          6.683          estimate D2E/DX2                !
 ! D93   D(6,10,53,19)          -2.3666         estimate D2E/DX2                !
 ! D94   D(6,10,53,55)        -148.6858         estimate D2E/DX2                !
 ! D95   D(49,10,53,19)        142.4034         estimate D2E/DX2                !
 ! D96   D(49,10,53,55)         -3.9158         estimate D2E/DX2                !
 ! D97   D(8,11,50,48)          -5.8544         estimate D2E/DX2                !
 ! D98   D(8,11,50,52)        -151.5476         estimate D2E/DX2                !
 ! D99   D(54,11,50,48)        139.0733         estimate D2E/DX2                !
 ! D100  D(54,11,50,52)         -6.62           estimate D2E/DX2                !
 ! D101  D(8,11,54,20)           2.1757         estimate D2E/DX2                !
 ! D102  D(8,11,54,56)         148.9565         estimate D2E/DX2                !
 ! D103  D(50,11,54,20)       -142.7485         estimate D2E/DX2                !
 ! D104  D(50,11,54,56)          4.0323         estimate D2E/DX2                !
 ! D105  D(7,12,14,16)           5.0631         estimate D2E/DX2                !
 ! D106  D(7,12,14,46)         149.265          estimate D2E/DX2                !
 ! D107  D(36,12,14,16)       -148.4032         estimate D2E/DX2                !
 ! D108  D(36,12,14,46)         -4.2013         estimate D2E/DX2                !
 ! D109  D(7,12,36,34)           4.9528         estimate D2E/DX2                !
 ! D110  D(7,12,36,38)        -149.0614         estimate D2E/DX2                !
 ! D111  D(14,12,36,34)        156.8754         estimate D2E/DX2                !
 ! D112  D(14,12,36,38)          2.8613         estimate D2E/DX2                !
 ! D113  D(9,13,15,6)         -148.828          estimate D2E/DX2                !
 ! D114  D(9,13,15,17)          -3.9645         estimate D2E/DX2                !
 ! D115  D(43,13,15,6)          -0.9596         estimate D2E/DX2                !
 ! D116  D(43,13,15,17)        143.9039         estimate D2E/DX2                !
 ! D117  D(9,13,43,2)          147.1932         estimate D2E/DX2                !
 ! D118  D(9,13,43,39)          -1.6725         estimate D2E/DX2                !
 ! D119  D(15,13,43,2)          -1.3485         estimate D2E/DX2                !
 ! D120  D(15,13,43,39)       -150.2142         estimate D2E/DX2                !
 ! D121  D(12,14,16,8)         149.195          estimate D2E/DX2                !
 ! D122  D(12,14,16,18)          3.9223         estimate D2E/DX2                !
 ! D123  D(46,14,16,8)           1.2208         estimate D2E/DX2                !
 ! D124  D(46,14,16,18)       -144.0519         estimate D2E/DX2                !
 ! D125  D(12,14,46,4)        -147.7258         estimate D2E/DX2                !
 ! D126  D(12,14,46,42)          1.487          estimate D2E/DX2                !
 ! D127  D(16,14,46,4)           0.9268         estimate D2E/DX2                !
 ! D128  D(16,14,46,42)        150.1396         estimate D2E/DX2                !
 ! D129  D(6,15,17,1)          149.0594         estimate D2E/DX2                !
 ! D130  D(6,15,17,19)          -1.1087         estimate D2E/DX2                !
 ! D131  D(13,15,17,1)           8.7089         estimate D2E/DX2                !
 ! D132  D(13,15,17,19)       -141.4592         estimate D2E/DX2                !
 ! D133  D(8,16,18,3)         -149.9345         estimate D2E/DX2                !
 ! D134  D(8,16,18,20)           0.6231         estimate D2E/DX2                !
 ! D135  D(14,16,18,3)          -9.1758         estimate D2E/DX2                !
 ! D136  D(14,16,18,20)        141.3818         estimate D2E/DX2                !
 ! D137  D(1,17,19,21)          -1.0146         estimate D2E/DX2                !
 ! D138  D(1,17,19,53)        -150.4002         estimate D2E/DX2                !
 ! D139  D(15,17,19,21)        148.2212         estimate D2E/DX2                !
 ! D140  D(15,17,19,53)         -1.1644         estimate D2E/DX2                !
 ! D141  D(3,18,20,22)           1.2907         estimate D2E/DX2                !
 ! D142  D(3,18,20,54)         150.9134         estimate D2E/DX2                !
 ! D143  D(16,18,20,22)       -147.9145         estimate D2E/DX2                !
 ! D144  D(16,18,20,54)          1.7082         estimate D2E/DX2                !
 ! D145  D(17,19,21,23)          0.7508         estimate D2E/DX2                !
 ! D146  D(17,19,21,57)       -144.4336         estimate D2E/DX2                !
 ! D147  D(53,19,21,23)        151.2522         estimate D2E/DX2                !
 ! D148  D(53,19,21,57)          6.0678         estimate D2E/DX2                !
 ! D149  D(17,19,53,10)          2.9011         estimate D2E/DX2                !
 ! D150  D(17,19,53,55)        144.2743         estimate D2E/DX2                !
 ! D151  D(21,19,53,10)       -147.2526         estimate D2E/DX2                !
 ! D152  D(21,19,53,55)         -5.8794         estimate D2E/DX2                !
 ! D153  D(18,20,22,24)          2.7165         estimate D2E/DX2                !
 ! D154  D(18,20,22,58)        143.8589         estimate D2E/DX2                !
 ! D155  D(54,20,22,24)       -148.07           estimate D2E/DX2                !
 ! D156  D(54,20,22,58)         -6.9276         estimate D2E/DX2                !
 ! D157  D(18,20,54,11)         -3.1126         estimate D2E/DX2                !
 ! D158  D(18,20,54,56)       -144.9139         estimate D2E/DX2                !
 ! D159  D(22,20,54,11)        147.7023         estimate D2E/DX2                !
 ! D160  D(22,20,54,56)          5.9011         estimate D2E/DX2                !
 ! D161  D(19,21,23,25)          0.3768         estimate D2E/DX2                !
 ! D162  D(19,21,23,61)       -150.4733         estimate D2E/DX2                !
 ! D163  D(57,21,23,25)        149.6882         estimate D2E/DX2                !
 ! D164  D(57,21,23,61)         -1.1619         estimate D2E/DX2                !
 ! D165  D(19,21,57,59)        148.2526         estimate D2E/DX2                !
 ! D166  D(19,21,57,83)         -0.0808         estimate D2E/DX2                !
 ! D167  D(23,21,57,59)         -0.9736         estimate D2E/DX2                !
 ! D168  D(23,21,57,83)       -149.3069         estimate D2E/DX2                !
 ! D169  D(20,22,24,26)         -4.0923         estimate D2E/DX2                !
 ! D170  D(20,22,24,62)        140.7088         estimate D2E/DX2                !
 ! D171  D(58,22,24,26)       -150.3611         estimate D2E/DX2                !
 ! D172  D(58,22,24,62)         -5.56           estimate D2E/DX2                !
 ! D173  D(20,22,58,60)       -145.4948         estimate D2E/DX2                !
 ! D174  D(20,22,58,84)          1.2726         estimate D2E/DX2                !
 ! D175  D(24,22,58,60)          0.0466         estimate D2E/DX2                !
 ! D176  D(24,22,58,84)        146.814          estimate D2E/DX2                !
 ! D177  D(21,23,25,1)          -1.2006         estimate D2E/DX2                !
 ! D178  D(21,23,25,27)       -149.0282         estimate D2E/DX2                !
 ! D179  D(61,23,25,1)         146.751          estimate D2E/DX2                !
 ! D180  D(61,23,25,27)         -1.0766         estimate D2E/DX2                !
 ! D181  D(21,23,61,59)          2.6118         estimate D2E/DX2                !
 ! D182  D(21,23,61,63)        121.818          estimate D2E/DX2                !
 ! D183  D(21,23,61,86)       -116.4877         estimate D2E/DX2                !
 ! D184  D(25,23,61,59)       -147.7978         estimate D2E/DX2                !
 ! D185  D(25,23,61,63)        -28.5916         estimate D2E/DX2                !
 ! D186  D(25,23,61,86)         93.1027         estimate D2E/DX2                !
 ! D187  D(22,24,26,3)           1.3808         estimate D2E/DX2                !
 ! D188  D(22,24,26,28)        142.0882         estimate D2E/DX2                !
 ! D189  D(62,24,26,3)        -140.0759         estimate D2E/DX2                !
 ! D190  D(62,24,26,28)          0.6314         estimate D2E/DX2                !
 ! D191  D(22,24,62,60)          8.6317         estimate D2E/DX2                !
 ! D192  D(22,24,62,64)       -134.4203         estimate D2E/DX2                !
 ! D193  D(26,24,62,60)        153.6398         estimate D2E/DX2                !
 ! D194  D(26,24,62,64)         10.5878         estimate D2E/DX2                !
 ! D195  D(1,25,27,29)          -2.1975         estimate D2E/DX2                !
 ! D196  D(1,25,27,65)        -120.4164         estimate D2E/DX2                !
 ! D197  D(1,25,27,85)         117.4957         estimate D2E/DX2                !
 ! D198  D(23,25,27,29)        148.076          estimate D2E/DX2                !
 ! D199  D(23,25,27,65)         29.8571         estimate D2E/DX2                !
 ! D200  D(23,25,27,85)        -92.2307         estimate D2E/DX2                !
 ! D201  D(3,26,28,30)          -9.1917         estimate D2E/DX2                !
 ! D202  D(3,26,28,66)         134.1634         estimate D2E/DX2                !
 ! D203  D(24,26,28,30)       -153.7577         estimate D2E/DX2                !
 ! D204  D(24,26,28,66)        -10.4025         estimate D2E/DX2                !
 ! D205  D(25,27,29,5)           1.122          estimate D2E/DX2                !
 ! D206  D(25,27,29,31)       -148.8045         estimate D2E/DX2                !
 ! D207  D(65,27,29,5)         119.2082         estimate D2E/DX2                !
 ! D208  D(65,27,29,31)        -30.7183         estimate D2E/DX2                !
 ! D209  D(85,27,29,5)        -119.0184         estimate D2E/DX2                !
 ! D210  D(85,27,29,31)         91.0551         estimate D2E/DX2                !
 ! D211  D(25,27,65,63)        -28.4585         estimate D2E/DX2                !
 ! D212  D(25,27,65,67)        142.3854         estimate D2E/DX2                !
 ! D213  D(29,27,65,63)       -139.5333         estimate D2E/DX2                !
 ! D214  D(29,27,65,67)         31.3106         estimate D2E/DX2                !
 ! D215  D(85,27,65,63)         96.3343         estimate D2E/DX2                !
 ! D216  D(85,27,65,67)        -92.8218         estimate D2E/DX2                !
 ! D217  D(26,28,30,7)          10.4944         estimate D2E/DX2                !
 ! D218  D(26,28,30,32)        155.5566         estimate D2E/DX2                !
 ! D219  D(66,28,30,7)        -133.2446         estimate D2E/DX2                !
 ! D220  D(66,28,30,32)         11.8176         estimate D2E/DX2                !
 ! D221  D(26,28,66,64)          8.8905         estimate D2E/DX2                !
 ! D222  D(26,28,66,68)       -148.9869         estimate D2E/DX2                !
 ! D223  D(30,28,66,64)        146.6244         estimate D2E/DX2                !
 ! D224  D(30,28,66,68)        -11.253          estimate D2E/DX2                !
 ! D225  D(5,29,31,33)           3.3866         estimate D2E/DX2                !
 ! D226  D(5,29,31,69)        -139.2189         estimate D2E/DX2                !
 ! D227  D(27,29,31,33)        151.3885         estimate D2E/DX2                !
 ! D228  D(27,29,31,69)          8.783          estimate D2E/DX2                !
 ! D229  D(7,30,32,34)          -0.0258         estimate D2E/DX2                !
 ! D230  D(7,30,32,70)         141.6343         estimate D2E/DX2                !
 ! D231  D(28,30,32,34)       -141.5235         estimate D2E/DX2                !
 ! D232  D(28,30,32,70)          0.1366         estimate D2E/DX2                !
 ! D233  D(29,31,33,35)        -10.8476         estimate D2E/DX2                !
 ! D234  D(29,31,33,73)       -157.4467         estimate D2E/DX2                !
 ! D235  D(69,31,33,35)        135.3949         estimate D2E/DX2                !
 ! D236  D(69,31,33,73)        -11.2042         estimate D2E/DX2                !
 ! D237  D(29,31,69,67)         14.84           estimate D2E/DX2                !
 ! D238  D(29,31,69,71)        158.302          estimate D2E/DX2                !
 ! D239  D(33,31,69,67)       -131.6853         estimate D2E/DX2                !
 ! D240  D(33,31,69,71)         11.7768         estimate D2E/DX2                !
 ! D241  D(30,32,34,36)         10.5931         estimate D2E/DX2                !
 ! D242  D(30,32,34,74)        155.7614         estimate D2E/DX2                !
 ! D243  D(70,32,34,36)       -134.3648         estimate D2E/DX2                !
 ! D244  D(70,32,34,74)         10.8036         estimate D2E/DX2                !
 ! D245  D(30,32,70,68)        -12.467          estimate D2E/DX2                !
 ! D246  D(30,32,70,72)       -157.0643         estimate D2E/DX2                !
 ! D247  D(34,32,70,68)        132.9513         estimate D2E/DX2                !
 ! D248  D(34,32,70,72)        -11.646          estimate D2E/DX2                !
 ! D249  D(31,33,35,9)          11.1315         estimate D2E/DX2                !
 ! D250  D(31,33,35,37)       -142.8568         estimate D2E/DX2                !
 ! D251  D(73,33,35,9)         152.3121         estimate D2E/DX2                !
 ! D252  D(73,33,35,37)         -1.6763         estimate D2E/DX2                !
 ! D253  D(31,33,73,71)          6.2608         estimate D2E/DX2                !
 ! D254  D(31,33,73,75)        148.8838         estimate D2E/DX2                !
 ! D255  D(35,33,73,71)       -139.8691         estimate D2E/DX2                !
 ! D256  D(35,33,73,75)          2.7539         estimate D2E/DX2                !
 ! D257  D(32,34,36,12)        -12.7314         estimate D2E/DX2                !
 ! D258  D(32,34,36,38)        141.8031         estimate D2E/DX2                !
 ! D259  D(74,34,36,12)       -151.9408         estimate D2E/DX2                !
 ! D260  D(74,34,36,38)          2.5938         estimate D2E/DX2                !
 ! D261  D(32,34,74,72)         -5.7056         estimate D2E/DX2                !
 ! D262  D(32,34,74,76)       -148.0255         estimate D2E/DX2                !
 ! D263  D(36,34,74,72)        138.6133         estimate D2E/DX2                !
 ! D264  D(36,34,74,76)         -3.7065         estimate D2E/DX2                !
 ! D265  D(9,35,37,39)          -1.0432         estimate D2E/DX2                !
 ! D266  D(9,35,37,77)        -154.1875         estimate D2E/DX2                !
 ! D267  D(33,35,37,39)        151.9994         estimate D2E/DX2                !
 ! D268  D(33,35,37,77)         -1.145          estimate D2E/DX2                !
 ! D269  D(12,36,38,42)          1.149          estimate D2E/DX2                !
 ! D270  D(12,36,38,78)        154.7327         estimate D2E/DX2                !
 ! D271  D(34,36,38,42)       -152.6904         estimate D2E/DX2                !
 ! D272  D(34,36,38,78)          0.8932         estimate D2E/DX2                !
 ! D273  D(35,37,39,43)          4.37           estimate D2E/DX2                !
 ! D274  D(35,37,39,79)       -147.5765         estimate D2E/DX2                !
 ! D275  D(77,37,39,43)        157.7631         estimate D2E/DX2                !
 ! D276  D(77,37,39,79)          5.8165         estimate D2E/DX2                !
 ! D277  D(35,37,77,75)          2.9755         estimate D2E/DX2                !
 ! D278  D(35,37,77,81)        143.5128         estimate D2E/DX2                !
 ! D279  D(39,37,77,75)       -150.7072         estimate D2E/DX2                !
 ! D280  D(39,37,77,81)        -10.1699         estimate D2E/DX2                !
 ! D281  D(36,38,42,46)         -3.8587         estimate D2E/DX2                !
 ! D282  D(36,38,42,80)        148.1339         estimate D2E/DX2                !
 ! D283  D(78,38,42,46)       -157.7452         estimate D2E/DX2                !
 ! D284  D(78,38,42,80)         -5.7525         estimate D2E/DX2                !
 ! D285  D(36,38,78,76)         -3.3538         estimate D2E/DX2                !
 ! D286  D(36,38,78,81)       -143.9165         estimate D2E/DX2                !
 ! D287  D(42,38,78,76)        150.8207         estimate D2E/DX2                !
 ! D288  D(42,38,78,81)         10.258          estimate D2E/DX2                !
 ! D289  D(37,39,43,2)        -147.6306         estimate D2E/DX2                !
 ! D290  D(37,39,43,13)         -3.0822         estimate D2E/DX2                !
 ! D291  D(79,39,43,2)           5.7808         estimate D2E/DX2                !
 ! D292  D(79,39,43,13)        150.3292         estimate D2E/DX2                !
 ! D293  D(37,39,79,40)        141.2282         estimate D2E/DX2                !
 ! D294  D(37,39,79,82)          1.158          estimate D2E/DX2                !
 ! D295  D(43,39,79,40)        -12.0268         estimate D2E/DX2                !
 ! D296  D(43,39,79,82)       -152.097          estimate D2E/DX2                !
 ! D297  D(44,40,41,45)         -0.08           estimate D2E/DX2                !
 ! D298  D(44,40,41,80)       -148.7829         estimate D2E/DX2                !
 ! D299  D(79,40,41,45)        148.6793         estimate D2E/DX2                !
 ! D300  D(79,40,41,80)         -0.0236         estimate D2E/DX2                !
 ! D301  D(41,40,44,2)         150.2347         estimate D2E/DX2                !
 ! D302  D(41,40,44,47)         -2.7814         estimate D2E/DX2                !
 ! D303  D(79,40,44,2)           5.7889         estimate D2E/DX2                !
 ! D304  D(79,40,44,47)       -147.2273         estimate D2E/DX2                !
 ! D305  D(41,40,79,39)       -141.9046         estimate D2E/DX2                !
 ! D306  D(41,40,79,82)          2.7684         estimate D2E/DX2                !
 ! D307  D(44,40,79,39)          6.448          estimate D2E/DX2                !
 ! D308  D(44,40,79,82)        151.121          estimate D2E/DX2                !
 ! D309  D(40,41,45,4)        -150.237          estimate D2E/DX2                !
 ! D310  D(40,41,45,48)          2.8826         estimate D2E/DX2                !
 ! D311  D(80,41,45,4)          -5.8223         estimate D2E/DX2                !
 ! D312  D(80,41,45,48)        147.2973         estimate D2E/DX2                !
 ! D313  D(40,41,80,42)        142.0054         estimate D2E/DX2                !
 ! D314  D(40,41,80,82)         -2.7351         estimate D2E/DX2                !
 ! D315  D(45,41,80,42)         -6.2928         estimate D2E/DX2                !
 ! D316  D(45,41,80,82)       -151.0332         estimate D2E/DX2                !
 ! D317  D(38,42,46,4)         147.59           estimate D2E/DX2                !
 ! D318  D(38,42,46,14)          2.6065         estimate D2E/DX2                !
 ! D319  D(80,42,46,4)          -5.8664         estimate D2E/DX2                !
 ! D320  D(80,42,46,14)       -150.85           estimate D2E/DX2                !
 ! D321  D(38,42,80,41)       -141.3447         estimate D2E/DX2                !
 ! D322  D(38,42,80,82)         -1.2365         estimate D2E/DX2                !
 ! D323  D(46,42,80,41)         11.9449         estimate D2E/DX2                !
 ! D324  D(46,42,80,82)        152.0531         estimate D2E/DX2                !
 ! D325  D(2,44,47,48)        -148.7422         estimate D2E/DX2                !
 ! D326  D(2,44,47,49)           5.1318         estimate D2E/DX2                !
 ! D327  D(40,44,47,48)          2.7972         estimate D2E/DX2                !
 ! D328  D(40,44,47,49)        156.6711         estimate D2E/DX2                !
 ! D329  D(4,45,48,47)         148.867          estimate D2E/DX2                !
 ! D330  D(4,45,48,50)          -5.0585         estimate D2E/DX2                !
 ! D331  D(41,45,48,47)         -2.7883         estimate D2E/DX2                !
 ! D332  D(41,45,48,50)       -156.7138         estimate D2E/DX2                !
 ! D333  D(44,47,48,45)         -0.0345         estimate D2E/DX2                !
 ! D334  D(44,47,48,50)        153.5439         estimate D2E/DX2                !
 ! D335  D(49,47,48,45)       -153.5928         estimate D2E/DX2                !
 ! D336  D(49,47,48,50)         -0.0144         estimate D2E/DX2                !
 ! D337  D(44,47,49,10)         -8.2254         estimate D2E/DX2                !
 ! D338  D(44,47,49,51)       -148.2229         estimate D2E/DX2                !
 ! D339  D(48,47,49,10)        146.0609         estimate D2E/DX2                !
 ! D340  D(48,47,49,51)          6.0635         estimate D2E/DX2                !
 ! D341  D(45,48,50,11)          8.1671         estimate D2E/DX2                !
 ! D342  D(45,48,50,52)        148.3294         estimate D2E/DX2                !
 ! D343  D(47,48,50,11)       -146.1729         estimate D2E/DX2                !
 ! D344  D(47,48,50,52)         -6.0106         estimate D2E/DX2                !
 ! D345  D(10,49,51,52)       -151.672          estimate D2E/DX2                !
 ! D346  D(10,49,51,55)         -6.9851         estimate D2E/DX2                !
 ! D347  D(47,49,51,52)         -6.1694         estimate D2E/DX2                !
 ! D348  D(47,49,51,55)        138.5176         estimate D2E/DX2                !
[...]
 Alpha virt. eigenvalues --    1.14393   1.14597   1.14915   1.15225   1.15292
 Alpha virt. eigenvalues --    1.15895   1.15949   1.16103   1.16250   1.16836
 Alpha virt. eigenvalues --    1.17029   1.17507   1.17549   1.17729   1.17957
 Alpha virt. eigenvalues --    1.18103   1.18637   1.18732   1.19097   1.19229
 Alpha virt. eigenvalues --    1.19979   1.20159   1.20488   1.20906   1.21094
 Alpha virt. eigenvalues --    1.21241   1.21520   1.21961   1.22281   1.22559
 Alpha virt. eigenvalues --    1.23200   1.23531   1.23745   1.24236   1.24319
 Alpha virt. eigenvalues --    1.24752   1.25007   1.25098   1.25591   1.25766
 Alpha virt. eigenvalues --    1.25974   1.26446   1.26493   1.26956   1.27151
 Alpha virt. eigenvalues --    1.27555   1.27757   1.27841   1.28241   1.28549
 Alpha virt. eigenvalues --    1.28698   1.29058   1.29286   1.29927   1.30183
 Alpha virt. eigenvalues --    1.30596   1.30660   1.30822   1.31585   1.31903
 Alpha virt. eigenvalues --    1.32078   1.32312   1.32575   1.33031   1.33551
 Alpha virt. eigenvalues --    1.33737   1.34123   1.34263   1.34585   1.35054
 Alpha virt. eigenvalues --    1.35293   1.35605   1.36074   1.36456   1.36810
 Alpha virt. eigenvalues --    1.37312   1.37724   1.38952   1.39156   1.40033
 Alpha virt. eigenvalues --    1.40726   1.40993   1.41461   1.41788   1.42056
 Alpha virt. eigenvalues --    1.42821   1.43285   1.43988   1.44711   1.44952
 Alpha virt. eigenvalues --    1.46044   1.46798   1.47216   1.47434   1.47995
 Alpha virt. eigenvalues --    1.48444   1.48818   1.49021   1.49678   1.50159
 Alpha virt. eigenvalues --    1.50473   1.51406   1.52305   1.52668   1.53316
 Alpha virt. eigenvalues --    1.53411   1.54026   1.54532   1.55051   1.55154
 Alpha virt. eigenvalues --    1.55817   1.56095   1.56497   1.57077   1.57117
 Alpha virt. eigenvalues --    1.57225   1.57943   1.58100   1.58703   1.58996
 Alpha virt. eigenvalues --    1.59001   1.60078   1.60400   1.61234   1.61819
 Alpha virt. eigenvalues --    1.62293   1.63071   1.64013   1.64579   1.64618
 Alpha virt. eigenvalues --    1.65238   1.65309   1.65430   1.65673   1.65702
 Alpha virt. eigenvalues --    1.65873   1.66216   1.66506   1.66954   1.67151
 Alpha virt. eigenvalues --    1.67418   1.68065   1.68289   1.68338   1.68718
 Alpha virt. eigenvalues --    1.69300   1.69369   1.69696   1.70037   1.70091
 Alpha virt. eigenvalues --    1.70327   1.70385   1.70659   1.70960   1.71031
 Alpha virt. eigenvalues --    1.71417   1.71538   1.72013   1.72179   1.72321
 Alpha virt. eigenvalues --    1.72663   1.72792   1.73304   1.73358   1.73714
 Alpha virt. eigenvalues --    1.73821   1.74064   1.74232   1.74485   1.74822
 Alpha virt. eigenvalues --    1.75079   1.75311   1.75449   1.75753   1.75992
 Alpha virt. eigenvalues --    1.76392   1.76641   1.76779   1.76943   1.77278
 Alpha virt. eigenvalues --    1.77380   1.77747   1.78052   1.78272   1.78429
 Alpha virt. eigenvalues --    1.78682   1.79083   1.79219   1.79403   1.79728
 Alpha virt. eigenvalues --    1.79953   1.80731   1.80865   1.81422   1.82120
 Alpha virt. eigenvalues --    1.82389   1.83275   1.83710   1.84042   1.84358
 Alpha virt. eigenvalues --    1.84690   1.85603   1.85859   1.86314   1.87026
 Alpha virt. eigenvalues --    1.87302   1.87920   1.88763   1.89265   1.89775
 Alpha virt. eigenvalues --    1.90275   1.90530   1.90869   1.92100   1.92669
 Alpha virt. eigenvalues --    1.92788   1.92881   1.93494   1.93784   1.93915
 Alpha virt. eigenvalues --    1.94538   1.94709   1.95257   1.95550   1.95963
 Alpha virt. eigenvalues --    1.96249   1.96319   1.96591   1.97016   1.97070
 Alpha virt. eigenvalues --    1.97227   1.97481   1.97965   1.98055   1.98429
 Alpha virt. eigenvalues --    1.98588   1.98888   1.98932   1.99358   1.99413
 Alpha virt. eigenvalues --    1.99631   1.99782   1.99939   2.00293   2.00489
 Alpha virt. eigenvalues --    2.00624   2.00761   2.00980   2.01302   2.01563
 Alpha virt. eigenvalues --    2.01837   2.02008   2.02242   2.02342   2.02500
 Alpha virt. eigenvalues --    2.02782   2.02965   2.03366   2.03541   2.03611
 Alpha virt. eigenvalues --    2.03901   2.04100   2.04533   2.04577   2.04785
 Alpha virt. eigenvalues --    2.05501   2.05669   2.06032   2.06477   2.06588
 Alpha virt. eigenvalues --    2.07315   2.07681   2.07968   2.08036   2.08566
 Alpha virt. eigenvalues --    2.09328   2.10033   2.10584   2.10932   2.11321
 Alpha virt. eigenvalues --    2.11879   2.12022   2.13003   2.13235   2.13542
 Alpha virt. eigenvalues --    2.13609   2.13721   2.14302   2.14961   2.14989
 Alpha virt. eigenvalues --    2.15758   2.16607   2.17550   2.18395   2.18961
 Alpha virt. eigenvalues --    2.19146   2.19876   2.20055   2.20311   2.20738
 Alpha virt. eigenvalues --    2.20890   2.21241   2.21810   2.22079   2.22625
 Alpha virt. eigenvalues --    2.22748   2.23352   2.23680   2.24192   2.24257
 Alpha virt. eigenvalues --    2.24835   2.25298   2.25567   2.26110   2.26406
 Alpha virt. eigenvalues --    2.26866   2.27543   2.27677   2.28218   2.28562
 Alpha virt. eigenvalues --    2.28901   2.29029   2.29377   2.29783   2.30310
 Alpha virt. eigenvalues --    2.30782   2.30899   2.31156   2.31687   2.32182
 Alpha virt. eigenvalues --    2.32335   2.32689   2.32967   2.33422   2.34277
 Alpha virt. eigenvalues --    2.34996   2.35245   2.36284   2.36318   2.37277
 Alpha virt. eigenvalues --    2.38257   2.39715   2.40120   2.40435   2.40687
 Alpha virt. eigenvalues --    2.40946   2.41106   2.42156   2.42351   2.43227
 Alpha virt. eigenvalues --    2.43638   2.43986   2.44443   2.44635   2.45001
 Alpha virt. eigenvalues --    2.45364   2.45758   2.46350   2.47851   2.48074
 Alpha virt. eigenvalues --    2.48520   2.48640   2.49323   2.50483   2.50729
 Alpha virt. eigenvalues --    2.51142   2.51742   2.52332   2.52607   2.52724
 Alpha virt. eigenvalues --    2.53534   2.53862   2.54137   2.54391   2.54756
 Alpha virt. eigenvalues --    2.55475   2.55781   2.56027   2.56619   2.56688
 Alpha virt. eigenvalues --    2.57098   2.57520   2.57633   2.57939   2.58123
 Alpha virt. eigenvalues --    2.58772   2.58872   2.58911   2.59437   2.59631
 Alpha virt. eigenvalues --    2.59809   2.59963   2.60217   2.60488   2.60561
 Alpha virt. eigenvalues --    2.61079   2.61809   2.61905   2.62676   2.63091
 Alpha virt. eigenvalues --    2.63371   2.63483   2.63790   2.64294   2.64432
 Alpha virt. eigenvalues --    2.65006   2.65345   2.65683   2.65847   2.66297
 Alpha virt. eigenvalues --    2.66409   2.66846   2.67160   2.67271   2.67907
 Alpha virt. eigenvalues --    2.68113   2.68193   2.68685   2.68709   2.69240
 Alpha virt. eigenvalues --    2.69649   2.70484   2.70614   2.70955   2.71513
 Alpha virt. eigenvalues --    2.71701   2.72156   2.73073   2.73232   2.73975
 Alpha virt. eigenvalues --    2.74535   2.74669   2.75181   2.75564   2.76747
 Alpha virt. eigenvalues --    2.77638   2.77804   2.78436   2.78758   2.79289
 Alpha virt. eigenvalues --    2.80048   2.80383   2.80561   2.80838   2.81058
 Alpha virt. eigenvalues --    2.81631   2.82453   2.82667   2.82980   2.83578
 Alpha virt. eigenvalues --    2.83618   2.83939   2.84094   2.84466   2.84882
 Alpha virt. eigenvalues --    2.85600   2.85826   2.86355   2.87250   2.88043
 Alpha virt. eigenvalues --    2.88705   2.88807   2.89383   2.89839   2.90117
 Alpha virt. eigenvalues --    2.90433   2.90716   2.91165   2.91677   2.91841
 Alpha virt. eigenvalues --    2.92598   2.93130   2.93199   2.93537   2.93750
 Alpha virt. eigenvalues --    2.93923   2.94815   2.95340   2.95435   2.95934
 Alpha virt. eigenvalues --    2.96678   2.97166   2.97441   2.97568   2.98946
 Alpha virt. eigenvalues --    2.99529   2.99970   3.00890   3.01437   3.03794
 Alpha virt. eigenvalues --    3.04610   3.05777   3.06617   3.07923   3.09727
 Alpha virt. eigenvalues --    3.10795   3.13304   3.14641   3.16240   3.16561
 Alpha virt. eigenvalues --    3.18149   3.19744   3.20914   3.21485   3.23746
 Alpha virt. eigenvalues --    3.25202   3.26242   3.28377   3.30054   3.31914
 Alpha virt. eigenvalues --    3.33396   3.34291   3.35100   3.36889   3.37491
 Alpha virt. eigenvalues --    3.38721   3.39351   3.43202   3.43959   3.45658
 Alpha virt. eigenvalues --    3.46869   3.49727   3.50045   3.52420   3.54009
 Alpha virt. eigenvalues --    3.57507   3.61509   3.63694   4.01629   4.01960
 Alpha virt. eigenvalues --    4.02168   4.02240   4.02787   4.03348   4.04251
 Alpha virt. eigenvalues --    4.05099   4.05591   4.06023   4.06719   4.06885
 Alpha virt. eigenvalues --    4.07207   4.07427   4.08332   4.08807   4.09716
 Alpha virt. eigenvalues --    4.10093   4.10775   4.11676   4.12124   4.12821
 Alpha virt. eigenvalues --    4.14280   4.15185   4.16028   4.16718   4.17486
 Alpha virt. eigenvalues --    4.19205   4.20627   4.20865   4.21202   4.21679
 Alpha virt. eigenvalues --    4.22468   4.23174   4.23423   4.24305   4.26661
 Alpha virt. eigenvalues --    4.27588   4.28599   4.28786   4.29627   4.30489
 Alpha virt. eigenvalues --    4.30888   4.31835   4.34352   4.35248   4.37356
 Alpha virt. eigenvalues --    4.38945   4.40724   4.41429   4.43454   4.44902
 Alpha virt. eigenvalues --    4.46889   4.48600   4.49024   4.49847   4.51457
 Alpha virt. eigenvalues --    4.52907   4.54954   4.56931   4.57834   4.59095
 Alpha virt. eigenvalues --    4.61107   4.62010   4.64871   4.67455   4.68205
 Alpha virt. eigenvalues --    4.68368   4.70580   4.75453   4.77236   4.82093
 Alpha virt. eigenvalues --    4.84238   4.85152   4.87419   4.90935   4.93226
 Alpha virt. eigenvalues --    4.94775   4.99364   5.02094   5.12774   5.14137
 Alpha virt. eigenvalues --    5.14358   5.19028   5.21669   5.30524
          Condensed to atoms (all electrons):
 Mulliken charges:
               1
     1  C    0.000455
     2  C   -0.023263
     3  C   -0.023614
     4  C   -0.023099
     5  C    0.008098
     6  C   -0.015828
     7  C   -0.019646
     8  C   -0.016077
     9  C    0.044807
    10  C   -0.001961
    11  C   -0.004524
    12  C    0.052913
    13  C   -0.028010
    14  C   -0.030037
    15  C   -0.021588
    16  C   -0.024276
    17  C    0.047740
    18  C    0.055991
    19  C    0.047517
    20  C    0.056674
    21  C    0.003404
    22  C   -0.021540
    23  C    0.087138
    24  C   -0.009090
    25  C    0.088211
    26  C   -0.013761
    27  C   -0.353385
    28  C   -0.019301
    29  C    0.070516
    30  C   -0.018043
    31  C    0.001336
    32  C   -0.012022
    33  C   -0.019151
    34  C   -0.023014
    35  C    0.041451
    36  C    0.043795
    37  C    0.043846
    38  C    0.044495
    39  C    0.055916
    40  C   -0.031773
    41  C   -0.032154
    42  C    0.054171
    43  C   -0.034144
    44  C    0.053990
    45  C    0.053309
    46  C   -0.033317
    47  C    0.047816
    48  C    0.047419
    49  C   -0.024693
    50  C   -0.024053
    51  C   -0.012559
    52  C   -0.010267
    53  C   -0.020174
    54  C   -0.022214
    55  C   -0.018061
    56  C   -0.021158
    57  C    0.008923
    58  C   -0.018077
    59  C    0.068701
    60  C    0.005815
    61  C   -0.350590
    62  C   -0.040451
    63  C    0.097665
    64  C    0.075316
    65  C    0.099241
    66  C    0.035196
    67  C    0.075051
    68  C    0.034289
    69  C   -0.039450
    70  C   -0.019864
    71  C   -0.001995
    72  C   -0.005863
    73  C   -0.005188
    74  C   -0.003977
    75  C   -0.005287
    76  C   -0.006473
    77  C   -0.025004
    78  C   -0.024062
    79  C   -0.022577
    80  C   -0.022187
    81  C   -0.002816
    82  C   -0.021498
    83  C    0.047981
    84  C    0.054842
    85  Cl  -0.015595
    86  Cl  -0.017275
 Sum of Mulliken charges =  -0.00000
 Mulliken charges with hydrogens summed into heavy atoms:
               1
     1  C    0.000455
     2  C   -0.023263
     3  C   -0.023614
     4  C   -0.023099
     5  C    0.008098
     6  C   -0.015828
     7  C   -0.019646
     8  C   -0.016077
     9  C    0.044807
    10  C   -0.001961
    11  C   -0.004524
    12  C    0.052913
    13  C   -0.028010
    14  C   -0.030037
    15  C   -0.021588
    16  C   -0.024276
    17  C    0.047740
    18  C    0.055991
    19  C    0.047517
    20  C    0.056674
    21  C    0.003404
    22  C   -0.021540
    23  C    0.087138
    24  C   -0.009090
    25  C    0.088211
    26  C   -0.013761
    27  C   -0.353385
    28  C   -0.019301
    29  C    0.070516
    30  C   -0.018043
    31  C    0.001336
    32  C   -0.012022
    33  C   -0.019151
    34  C   -0.023014
    35  C    0.041451
    36  C    0.043795
    37  C    0.043846
    38  C    0.044495
    39  C    0.055916
    40  C   -0.031773
    41  C   -0.032154
    42  C    0.054171
    43  C   -0.034144
    44  C    0.053990
    45  C    0.053309
    46  C   -0.033317
    47  C    0.047816
    48  C    0.047419
    49  C   -0.024693
    50  C   -0.024053
    51  C   -0.012559
    52  C   -0.010267
    53  C   -0.020174
    54  C   -0.022214
    55  C   -0.018061
    56  C   -0.021158
    57  C    0.008923
    58  C   -0.018077
    59  C    0.068701
    60  C    0.005815
    61  C   -0.350590
    62  C   -0.040451
    63  C    0.097665
    64  C    0.075316
    65  C    0.099241
    66  C    0.035196
    67  C    0.075051
    68  C    0.034289
    69  C   -0.039450
    70  C   -0.019864
    71  C   -0.001995
    72  C   -0.005863
    73  C   -0.005188
    74  C   -0.003977
    75  C   -0.005287
    76  C   -0.006473
    77  C   -0.025004
    78  C   -0.024062
    79  C   -0.022577
    80  C   -0.022187
    81  C   -0.002816
    82  C   -0.021498
    83  C    0.047981
    84  C    0.054842
    85  Cl  -0.015595
    86  Cl  -0.017275
 Electronic spatial extent (au):  <R**2>=          37362.7349
 Charge=             -0.0000 electrons
 Dipole moment (field-independent basis, Debye):
    X=             -2.8918    Y=             -0.5830    Z=              0.9063  Tot=              3.0861
 Quadrupole moment (field-independent basis, Debye-Ang):
   XX=           -501.2122   YY=           -474.7641   ZZ=           -477.5189
   XY=             -2.4497   XZ=              4.6325   YZ=             -1.8805
 Traceless Quadrupole moment (field-independent basis, Debye-Ang):
   XX=            -16.7138   YY=              9.7343   ZZ=              6.9795
   XY=             -2.4497   XZ=              4.6325   YZ=             -1.8805
 Octapole moment (field-independent basis, Debye-Ang**2):
  XXX=            -44.0459  YYY=             -0.5610  ZZZ=             -6.6726  XYY=             11.8877
  XXY=             -7.5764  XXZ=             16.8263  XZZ=             29.3633  YZZ=              0.3112
  YYZ=             -0.3280  XYZ=             -3.1738
 Hexadecapole moment (field-independent basis, Debye-Ang**3):
 XXXX=         -21475.9256 YYYY=         -18167.2513 ZZZZ=         -16215.2305 XXXY=            -15.4789
 XXXZ=             29.0756 YYYX=             -0.3536 YYYZ=              6.8822 ZZZX=            -38.3038
 ZZZY=              1.6589 XXYY=          -6565.7540 XXZZ=          -6169.5820 YYZZ=          -5720.2720
 XXYZ=            -37.1506 YYXZ=             -6.3589 ZZXY=             17.6295
 N-N= 1.561107423443D+04 E-N=-4.081568720197D+04  KE= 4.088622437768D+03
 No NMR shielding tensors so no spin-rotation constants.
 Leave Link  601 at Tue Jun 28 11:55:53 2022, MaxMem=  1342177280 cpu:              22.2 elap:               1.1
 (Enter /home/mkliu/g16/l9999.exe)
 1\1\GINC-NODE02\FOpt\RB3LYP\6-31G(d,p)\C84Cl2\MKLIU\28-Jun-2022\0\\#P 
 opt b3lyp/6-31G(d, p) empiricaldispersion=GD3\\force\\0,1\C,8.28227866
 33,18.8815376807,10.5491921728\C,12.3186188016,20.1483310447,8.9442774
 584\C,8.2688873266,26.9186889901,10.5376253533\C,12.3006433195,25.6144
 214106,8.9470618682\C,7.96656874,18.926597116,9.1567267782\C,11.889705
 6774,19.5702811831,10.1920515677\C,7.9566150352,26.8846439951,9.143895
 8971\C,11.8687413896,26.1900528075,10.1938510448\C,8.9727635604,19.075
 6888789,8.1527140823\C,12.1576824439,20.2174990063,11.3701413745\C,12.
 1393866915,25.5432856869,11.371936577\C,8.9590765392,26.7111113136,8.1
 447878622\C,10.3073066483,19.0017428885,8.6120878146\C,10.2929036718,2
 6.7681417065,8.6098314611\C,10.6249897305,18.8924321872,9.9944889566\C
 ,10.607109929,26.871997367,9.9961418336\C,9.624945938,18.9271103015,11
 .0056604254\C,9.6033708673,26.8444055718,11.0046855562\C,9.9025790244,
 19.6215547501,12.254988451\C,9.8832672062,26.1332642609,12.2641868394\
 C,8.8133978636,20.2342771403,12.9357517538\C,8.8093829134,25.515682260
 7,12.9573610673\C,7.4678190247,20.1625631168,12.4316094182\C,7.4633245
 548,25.5289408149,12.403224619\C,7.2097835395,19.4987277818,11.2825097
 127\C,7.2000863847,26.2203699606,11.2396714197\C,6.0993536307,19.93196
 24256,10.3522281488\C,6.2900175968,25.6732860633,10.2926017726\C,6.685
 7773305,19.5356147374,9.0167881538\C,6.6852977761,26.2096810171,9.0129
 621891\C,6.3922710225,20.2229451838,7.8899774221\C,6.3803964811,25.538
 4465057,7.8685029248\C,7.3354036794,20.2881625684,6.7934259613\C,7.324
 1619597,25.4870478991,6.7635438118\C,8.669715771,19.8301774822,6.94117
 62117\C,8.6565723668,25.941186036,6.9292355567\C,9.7331933794,20.57281
 16076,6.2622205431\C,9.7243614355,25.1916786474,6.2608345783\C,11.0861
 036771,20.5630733446,6.8296976918\C,12.7873418312,22.1549886517,7.7190
 181218\C,12.7829278149,23.6123861269,7.7200374169\C,11.0767111044,25.2
 024604415,6.8299666726\C,11.3597259682,19.7614707623,7.9562017578\C,12
 .9560525177,21.4225445446,8.9118228124\C,12.9458109281,24.3423434718,8
 .9133386219\C,11.3452355531,26.0016410471,7.9577020152\C,13.1985998213
 ,22.1491474913,10.1647484014\C,13.1930367236,23.6164422423,10.16461060
 59\C,12.8713089683,21.4828090856,11.3682294954\C,12.8592726893,24.2806
 111689,11.3676515684\C,12.4186019933,22.1925681607,12.5280317576\C,12.
 4128590209,23.5686077574,12.5272569145\C,11.1759509064,20.2295006017,1
 2.4401060551\C,11.1611624566,25.528353243,12.4431666136\C,11.330571249
 4,21.4539862643,13.1502873166\C,11.3254678745,24.3037906368,13.1546866
 12\C,8.9713173481,21.4647815234,13.6397017609\C,8.9726814098,24.282000
 9804,13.654407366\C,7.7358988667,22.18334506,13.5586828257\C,7.7382858
 34,23.5389765449,13.5293098765\C,6.6742054796,21.3878458074,12.8282103
 328\C,6.8388026357,24.2690236216,12.6386463543\C,6.1156092369,22.13848
 39722,11.5988233026\C,6.1069791038,23.6048694236,11.6254828237\C,5.835
 3592718,21.4511681676,10.434271862\C,5.8015457042,24.3384869561,10.409
 8017556\C,5.4969198009,22.1620210497,9.1953519233\C,5.4826342567,23.61
 45001335,9.1890970209\C,5.6586756464,21.4887828455,7.9579635624\C,5.65
 77114951,24.2869847859,7.9399965596\C,5.963424861,22.1900754835,6.7552
 878547\C,5.9632510089,23.5775054012,6.7444630305\C,7.0089987173,21.460
 3471387,6.0439023337\C,7.0034397709,24.3055817088,6.023786313\C,8.0127
 676466,22.1504366797,5.3838542417\C,8.0106680875,23.6103123303,5.37565
 63592\C,9.3663215243,21.6931438898,5.4737886443\C,9.3620289324,24.0689
 93323,5.4722974572\C,11.9243287093,21.7068894826,6.6770447472\C,11.918
 116148,24.0596849406,6.6769269226\C,10.2025730593,22.8812529028,5.4178
 347373\C,11.4402472027,22.8840755549,5.9996622128\C,10.2234297442,22.1
 438795427,13.7099553717\C,10.2224378355,23.6075256171,13.7174891143\Cl
 ,4.5125375323,19.0266394989,10.6764830903\Cl,5.2638457716,20.983753851
 5,13.9681796898\\Version=ES64L-G16RevA.03\State=1-A\HF=-4121.4183088\R
 MSD=4.825e-09\RMSF=7.750e-05\Dipole=1.0551744,0.435516,-0.4136701\Quad
 rupole=-4.6887782,1.4894233,3.1993548,-6.8000195,7.920907,2.7914006\PG
 =C01 [X(C84Cl2)]\\@


 EDUCATION DOESN'T COST 
           ... IT PAYS!

 -- POSTMARK, UNIV. OF MISSISSIPPI, DEC 78
 Job cpu time:       0 days 23 hours 43 minutes 34.7 seconds.
 Elapsed time:       0 days  0 hours 59 minutes 24.4 seconds.
 File lengths (MBytes):  RWF=   1037 Int=      0 D2E=      0 Chk=    131 Scr=      1
 Normal termination of Gaussian 16 at Tue Jun 28 11:55:55 2022.
