 Entering Gaussian System, Link 0=g16
 Input=2_addons_C84_14_Cl22_rank_9.gjf
 Output=2_addons_C84_14_Cl22_rank_9.log
 Initial command:
 /home/mkliu/g16/l1.exe "/data/scratch/Gau-54789.inp" -scrdir="/data/scratch/"
 Entering Link 1 = /home/mkliu/g16/l1.exe PID=     54790.
  
 Copyright (c) 1988,1990,1992,1993,1995,1998,2003,2009,2016,
            Gaussian, Inc.  All Rights Reserved.
  
 This is part of the Gaussian(R) 16 program.  It is based on
 the Gaussian(R) 09 system (copyright 2009, Gaussian, Inc.),
 the Gaussian(R) 03 system (copyright 2003, Gaussian, Inc.),
 the Gaussian(R) 98 system (copyright 1998, Gaussian, Inc.),
 the Gaussian(R) 94 system (copyright 1995, Gaussian, Inc.),
 the Gaussian 92(TM) system (copyright 1992, Gaussian, Inc.),
 the Gaussian 90(TM) system (copyright 1990, Gaussian, Inc.),
 the Gaussian 88(TM) system (copyright 1988, Gaussian, Inc.),
 the Gaussian 86(TM) system (copyright 1986, Carnegie Mellon
 University), and the Gaussian 82(TM) system (copyright 1983,
 Carnegie Mellon University). Gaussian is a federally registered
 trademark of Gaussian, Inc.
  
 This software contains proprietary and confidential information,
 including trade secrets, belonging to Gaussian, Inc.
  
 This software is provided under written license and may be
 used, copied, transmitted, or stored only in accord with that
 written license.
  
 The following legend is applicable only to US Government
 contracts under FAR:
  
                    RESTRICTED RIGHTS LEGEND
  
 Use, reproduction and disclosure by the US Government is
 subject to restrictions as set forth in subparagraphs (a)
 and (c) of the Commercial Computer Software - Restricted
 Rights clause in FAR 52.227-19.
  
 Gaussian, Inc.
 340 Quinnipiac St., Bldg. 40, Wallingford CT 06492
  
  
 ---------------------------------------------------------------
 Warning -- This program may not be used in any manner that
 competes with the business of Gaussian, Inc. or will provide
 assistance to any competitor of Gaussian, Inc.  The licensee
 of this program is prohibited from giving any competitor of
 Gaussian, Inc. access to this program.  By using this program,
 the user acknowledges that Gaussian, Inc. is engaged in the
 business of creating and licensing software in the field of
 computational chemistry and represents and warrants to the
 licensee that it is not a competitor of Gaussian, Inc. and that
 it will not use this program in any manner prohibited above.
 ---------------------------------------------------------------
  

 Cite this work as:
 Gaussian 16, Revision A.03,
 M. J. Frisch, G. W. Trucks, H. B. Schlegel, G. E. Scuseria, 
 M. A. Robb, J. R. Cheeseman, G. Scalmani, V. Barone, 
 G. A. Petersson, H. Nakatsuji, X. Li, M. Caricato, A. V. Marenich, 
 J. Bloino, B. G. Janesko, R. Gomperts, B. Mennucci, H. P. Hratchian, 
 J. V. Ortiz, A. F. Izmaylov, J. L. Sonnenberg, D. Williams-Young, 
 F. Ding, F. Lipparini, F. Egidi, J. Goings, B. Peng, A. Petrone, 
 T. Henderson, D. Ranasinghe, V. G. Zakrzewski, J. Gao, N. Rega, 
 G. Zheng, W. Liang, M. Hada, M. Ehara, K. Toyota, R. Fukuda, 
 J. Hasegawa, M. Ishida, T. Nakajima, Y. Honda, O. Kitao, H. Nakai, 
 T. Vreven, K. Throssell, J. A. Montgomery, Jr., J. E. Peralta, 
 F. Ogliaro, M. J. Bearpark, J. J. Heyd, E. N. Brothers, K. N. Kudin, 
 V. N. Staroverov, T. A. Keith, R. Kobayashi, J. Normand, 
 K. Raghavachari, A. P. Rendell, J. C. Burant, S. S. Iyengar, 
 J. Tomasi, M. Cossi, J. M. Millam, M. Klene, C. Adamo, R. Cammi, 
 J. W. Ochterski, R. L. Martin, K. Morokuma, O. Farkas, 
 J. B. Foresman, and D. J. Fox, Gaussian, Inc., Wallingford CT, 2016.
 
 ******************************************
 Gaussian 16:  ES64L-G16RevA.03 25-Dec-2016
                27-Jun-2022 
 ******************************************
 %mem=10GB
 %chk=2_addons_C84_14_Cl22_rank_9.chk
 %nprocshared=24
 Will use up to   24 processors via shared memory.
 ------------------------------------------------
 #P opt b3lyp/6-31G(d, p) empiricaldispersion=GD3
 ------------------------------------------------
 1/18=20,19=15,26=3,38=1/1,3;
 2/9=110,12=2,17=6,18=5,40=1/2;
 3/5=1,6=6,7=101,11=2,25=1,30=1,71=1,74=-5,124=31/1,2,3;
 4//1;
 5/5=2,38=5/2;
 6/7=2,8=2,9=2,10=2,28=1/1;
 7//1,2,3,16;
 1/18=20,19=15,26=3/3(2);
 2/9=110/2;
 99//99;
 2/9=110/2;
 3/5=1,6=6,7=101,11=2,25=1,30=1,71=1,74=-5,124=31/1,2,3;
 4/5=5,16=3,69=1/1;
 5/5=2,38=5/2;
 7//1,2,3,16;
 1/18=20,19=15,26=3/3(-5);
 2/9=110/2;
 6/7=2,8=2,9=2,10=2,19=2,28=1/1;
 99/9=1/99;
 Leave Link    1 at Mon Jun 27 21:39:44 2022, MaxMem=  1342177280 cpu:               0.6 elap:               0.0
 (Enter /home/mkliu/g16/l101.exe)
 -----
 force
 -----
 Symbolic Z-matrix:
 Charge =  0 Multiplicity = 1
 C                     8.21257   18.62422   10.59048 
 C                     12.2647   20.17992   8.95839 
 C                     8.28203   26.89982   10.52713 
 C                     12.26993   25.58744   8.95685 
 C                     7.95484   18.89921   9.12422 
 C                     11.83196   19.60704   10.19456 
 C                     7.96902   26.85557   9.13679 
 C                     11.84624   26.17238   10.19178 
 C                     8.93704   19.0905   8.14801 
 C                     12.10253   20.24942   11.37144 
 C                     12.11638   25.52864   11.37344 
 C                     8.95497   26.67871   8.14092 
 C                     10.27737   19.03163   8.61687 
 C                     10.28109   26.73159   8.61093 
 C                     10.57986   18.94282   10.00379 
 C                     10.59686   26.84588   9.99288 
 C                     9.61082   18.96836   11.02254 
 C                     9.60789   26.8339   11.00113 
 C                     9.87694   19.6311   12.22512 
 C                     9.88173   26.14183   12.24869 
 C                     8.77492   20.07071   13.15407 
 C                     8.81527   25.53726   12.9442 
 C                     7.48332   20.21464   12.39723 
 C                     7.4926    25.54389   12.3919 
 C                     7.22336   19.5505   11.24511 
 C                     7.22956   26.21529   11.22347 
 C                     6.36261   20.14552   10.29012 
 C                     6.31524   25.65085   10.2833 
 C                     6.73662   19.60001   9.02122 
 C                     6.70672   26.18897   9.01507 
 C                     6.40653   20.27018   7.87075 
 C                     6.39855   25.51678   7.87064 
 C                     7.32626   20.30791   6.77912 
 C                     7.33296   25.47182   6.7746 
 C                     8.6497    19.85448   6.94829 
 C                     8.65717   25.91884   6.93959 
 C                     9.70439   20.5932   6.28294 
 C                     9.71134   25.17613   6.27683 
 C                     11.03877   20.58352   6.84569 
 C                     12.73214   22.1629   7.74682 
 C                     12.73406   23.60126   7.7448 
 C                     11.04753   25.18351   6.84242 
 C                     11.30415   19.79092   7.97628 
 C                     12.90253   21.43701   8.93818 
 C                     12.90441   24.32792   8.93437 
 C                     11.31696   25.97386   7.96799 
 C                     13.14452   22.15578   10.17624 
 C                     13.14449   23.61     10.17522 
 C                     12.81941   21.49703   11.36958 
 C                     12.81914   24.27246   11.36601 
 C                     12.36503   22.19545   12.53146 
 C                     12.36652   23.56949   12.52931 
 C                     11.12412   20.25688   12.41836 
 C                     11.14137   25.5199   12.42775 
 C                     11.29794   21.46295   13.15204 
 C                     11.29284   24.29752   13.14218 
 C                     8.9699    21.47433   13.6809 
 C                     8.96989   24.30102   13.64817 
 C                     7.77346   22.19753   13.488 
 C                     7.75401   23.57439   13.50008 
 C                     6.9043    21.49377   12.59194 
 C                     6.86899   24.27714   12.61819 
 C                     6.1483    22.1678   11.60878 
 C                     6.13154   23.61539   11.62079 
 C                     5.85342   21.45556   10.40032 
 C                     5.82586   24.33577   10.4014 
 C                     5.51057   22.17054   9.18646 
 C                     5.50233   23.61575   9.18857 
 C                     5.68615   21.50763   7.95474 
 C                     5.6803    24.27857   7.95239 
 C                     5.97495   22.20394   6.74117 
 C                     5.97667   23.58077   6.74315 
 C                     6.99811   21.47969   6.02893 
 C                     7.00309   24.30316   6.03058 
 C                     8.00236   22.16716   5.38082 
 C                     8.00556   23.60976   5.37958 
 C                     9.3492    21.7052   5.49274 
 C                     9.35195   24.06464   5.4905 
 C                     11.87698   21.71236   6.70532 
 C                     11.88285   24.05046   6.70082 
 C                     10.1775   22.88198   5.43535 
 C                     11.41026   22.88198   6.02572 
 C                     10.19133   22.15428   13.72047 
 C                     10.19795   23.60963   13.70967 
 Cl                    7.88921   16.87648   10.97644 
 Cl                    8.63803   18.88499   14.53049 
 
 ITRead=  0  0  0  0  0  0  0  0  0  0  0  0  0  0  0  0  0  0  0  0
 ITRead=  0  0  0  0  0  0  0  0  0  0  0  0  0  0  0  0  0  0  0  0
 ITRead=  0  0  0  0  0  0  0  0  0  0  0  0  0  0  0  0  0  0  0  0
 ITRead=  0  0  0  0  0  0  0  0  0  0  0  0  0  0  0  0  0  0  0  0
 ITRead=  0  0  0  0  0  0
 MicOpt= -1 -1 -1 -1 -1 -1 -1 -1 -1 -1 -1 -1 -1 -1 -1 -1 -1 -1 -1 -1
 MicOpt= -1 -1 -1 -1 -1 -1 -1 -1 -1 -1 -1 -1 -1 -1 -1 -1 -1 -1 -1 -1
 MicOpt= -1 -1 -1 -1 -1 -1 -1 -1 -1 -1 -1 -1 -1 -1 -1 -1 -1 -1 -1 -1
 MicOpt= -1 -1 -1 -1 -1 -1 -1 -1 -1 -1 -1 -1 -1 -1 -1 -1 -1 -1 -1 -1
 MicOpt= -1 -1 -1 -1 -1 -1
 NAtoms=     86 NQM=       86 NQMF=       0 NMMI=      0 NMMIF=      0
                NMic=       0 NMicF=      0.
                    Isotopes and Nuclear Properties:
 (Nuclear quadrupole moments (NQMom) in fm**2, nuclear magnetic moments (NMagM)
  in nuclear magnetons)

  Atom         1           2           3           4           5           6           7           8           9          10
 IAtWgt=          12          12          12          12          12          12          12          12          12          12
 AtmWgt=  12.0000000  12.0000000  12.0000000  12.0000000  12.0000000  12.0000000  12.0000000  12.0000000  12.0000000  12.0000000
 NucSpn=           0           0           0           0           0           0           0           0           0           0
 AtZEff=  -0.0000000  -0.0000000  -0.0000000  -0.0000000  -0.0000000  -0.0000000  -0.0000000  -0.0000000  -0.0000000  -0.0000000
 NQMom=    0.0000000   0.0000000   0.0000000   0.0000000   0.0000000   0.0000000   0.0000000   0.0000000   0.0000000   0.0000000
 NMagM=    0.0000000   0.0000000   0.0000000   0.0000000   0.0000000   0.0000000   0.0000000   0.0000000   0.0000000   0.0000000
 AtZNuc=   6.0000000   6.0000000   6.0000000   6.0000000   6.0000000   6.0000000   6.0000000   6.0000000   6.0000000   6.0000000

  Atom        11          12          13          14          15          16          17          18          19          20
 IAtWgt=          12          12          12          12          12          12          12          12          12          12
 AtmWgt=  12.0000000  12.0000000  12.0000000  12.0000000  12.0000000  12.0000000  12.0000000  12.0000000  12.0000000  12.0000000
 NucSpn=           0           0           0           0           0           0           0           0           0           0
 AtZEff=  -0.0000000  -0.0000000  -0.0000000  -0.0000000  -0.0000000  -0.0000000  -0.0000000  -0.0000000  -0.0000000  -0.0000000
 NQMom=    0.0000000   0.0000000   0.0000000   0.0000000   0.0000000   0.0000000   0.0000000   0.0000000   0.0000000   0.0000000
 NMagM=    0.0000000   0.0000000   0.0000000   0.0000000   0.0000000   0.0000000   0.0000000   0.0000000   0.0000000   0.0000000
 AtZNuc=   6.0000000   6.0000000   6.0000000   6.0000000   6.0000000   6.0000000   6.0000000   6.0000000   6.0000000   6.0000000

  Atom        21          22          23          24          25          26          27          28          29          30
 IAtWgt=          12          12          12          12          12          12          12          12          12          12
 AtmWgt=  12.0000000  12.0000000  12.0000000  12.0000000  12.0000000  12.0000000  12.0000000  12.0000000  12.0000000  12.0000000
 NucSpn=           0           0           0           0           0           0           0           0           0           0
 AtZEff=  -0.0000000  -0.0000000  -0.0000000  -0.0000000  -0.0000000  -0.0000000  -0.0000000  -0.0000000  -0.0000000  -0.0000000
 NQMom=    0.0000000   0.0000000   0.0000000   0.0000000   0.0000000   0.0000000   0.0000000   0.0000000   0.0000000   0.0000000
 NMagM=    0.0000000   0.0000000   0.0000000   0.0000000   0.0000000   0.0000000   0.0000000   0.0000000   0.0000000   0.0000000
 AtZNuc=   6.0000000   6.0000000   6.0000000   6.0000000   6.0000000   6.0000000   6.0000000   6.0000000   6.0000000   6.0000000

  Atom        31          32          33          34          35          36          37          38          39          40
 IAtWgt=          12          12          12          12          12          12          12          12          12          12
 AtmWgt=  12.0000000  12.0000000  12.0000000  12.0000000  12.0000000  12.0000000  12.0000000  12.0000000  12.0000000  12.0000000
 NucSpn=           0           0           0           0           0           0           0           0           0           0
 AtZEff=  -0.0000000  -0.0000000  -0.0000000  -0.0000000  -0.0000000  -0.0000000  -0.0000000  -0.0000000  -0.0000000  -0.0000000
 NQMom=    0.0000000   0.0000000   0.0000000   0.0000000   0.0000000   0.0000000   0.0000000   0.0000000   0.0000000   0.0000000
 NMagM=    0.0000000   0.0000000   0.0000000   0.0000000   0.0000000   0.0000000   0.0000000   0.0000000   0.0000000   0.0000000
 AtZNuc=   6.0000000   6.0000000   6.0000000   6.0000000   6.0000000   6.0000000   6.0000000   6.0000000   6.0000000   6.0000000

  Atom        41          42          43          44          45          46          47          48          49          50
 IAtWgt=          12          12          12          12          12          12          12          12          12          12
 AtmWgt=  12.0000000  12.0000000  12.0000000  12.0000000  12.0000000  12.0000000  12.0000000  12.0000000  12.0000000  12.0000000
 NucSpn=           0           0           0           0           0           0           0           0           0           0
 AtZEff=  -0.0000000  -0.0000000  -0.0000000  -0.0000000  -0.0000000  -0.0000000  -0.0000000  -0.0000000  -0.0000000  -0.0000000
 NQMom=    0.0000000   0.0000000   0.0000000   0.0000000   0.0000000   0.0000000   0.0000000   0.0000000   0.0000000   0.0000000
 NMagM=    0.0000000   0.0000000   0.0000000   0.0000000   0.0000000   0.0000000   0.0000000   0.0000000   0.0000000   0.0000000
 AtZNuc=   6.0000000   6.0000000   6.0000000   6.0000000   6.0000000   6.0000000   6.0000000   6.0000000   6.0000000   6.0000000

  Atom        51          52          53          54          55          56          57          58          59          60
 IAtWgt=          12          12          12          12          12          12          12          12          12          12
 AtmWgt=  12.0000000  12.0000000  12.0000000  12.0000000  12.0000000  12.0000000  12.0000000  12.0000000  12.0000000  12.0000000
 NucSpn=           0           0           0           0           0           0           0           0           0           0
 AtZEff=  -0.0000000  -0.0000000  -0.0000000  -0.0000000  -0.0000000  -0.0000000  -0.0000000  -0.0000000  -0.0000000  -0.0000000
 NQMom=    0.0000000   0.0000000   0.0000000   0.0000000   0.0000000   0.0000000   0.0000000   0.0000000   0.0000000   0.0000000
 NMagM=    0.0000000   0.0000000   0.0000000   0.0000000   0.0000000   0.0000000   0.0000000   0.0000000   0.0000000   0.0000000
 AtZNuc=   6.0000000   6.0000000   6.0000000   6.0000000   6.0000000   6.0000000   6.0000000   6.0000000   6.0000000   6.0000000

  Atom        61          62          63          64          65          66          67          68          69          70
 IAtWgt=          12          12          12          12          12          12          12          12          12          12
 AtmWgt=  12.0000000  12.0000000  12.0000000  12.0000000  12.0000000  12.0000000  12.0000000  12.0000000  12.0000000  12.0000000
 NucSpn=           0           0           0           0           0           0           0           0           0           0
 AtZEff=  -0.0000000  -0.0000000  -0.0000000  -0.0000000  -0.0000000  -0.0000000  -0.0000000  -0.0000000  -0.0000000  -0.0000000
 NQMom=    0.0000000   0.0000000   0.0000000   0.0000000   0.0000000   0.0000000   0.0000000   0.0000000   0.0000000   0.0000000
 NMagM=    0.0000000   0.0000000   0.0000000   0.0000000   0.0000000   0.0000000   0.0000000   0.0000000   0.0000000   0.0000000
 AtZNuc=   6.0000000   6.0000000   6.0000000   6.0000000   6.0000000   6.0000000   6.0000000   6.0000000   6.0000000   6.0000000

  Atom        71          72          73          74          75          76          77          78          79          80
 IAtWgt=          12          12          12          12          12          12          12          12          12          12
 AtmWgt=  12.0000000  12.0000000  12.0000000  12.0000000  12.0000000  12.0000000  12.0000000  12.0000000  12.0000000  12.0000000
 NucSpn=           0           0           0           0           0           0           0           0           0           0
 AtZEff=  -0.0000000  -0.0000000  -0.0000000  -0.0000000  -0.0000000  -0.0000000  -0.0000000  -0.0000000  -0.0000000  -0.0000000
 NQMom=    0.0000000   0.0000000   0.0000000   0.0000000   0.0000000   0.0000000   0.0000000   0.0000000   0.0000000   0.0000000
 NMagM=    0.0000000   0.0000000   0.0000000   0.0000000   0.0000000   0.0000000   0.0000000   0.0000000   0.0000000   0.0000000
 AtZNuc=   6.0000000   6.0000000   6.0000000   6.0000000   6.0000000   6.0000000   6.0000000   6.0000000   6.0000000   6.0000000

  Atom        81          82          83          84          85          86
 IAtWgt=          12          12          12          12          35          35
 AtmWgt=  12.0000000  12.0000000  12.0000000  12.0000000  34.9688527  34.9688527
 NucSpn=           0           0           0           0           3           3
 AtZEff=  -0.0000000  -0.0000000  -0.0000000  -0.0000000  -0.0000000  -0.0000000
 NQMom=    0.0000000   0.0000000   0.0000000   0.0000000  -8.1650000  -8.1650000
 NMagM=    0.0000000   0.0000000   0.0000000   0.0000000   0.8218740   0.8218740
 AtZNuc=   6.0000000   6.0000000   6.0000000   6.0000000  17.0000000  17.0000000
 Leave Link  101 at Mon Jun 27 21:39:44 2022, MaxMem=  1342177280 cpu:               6.5 elap:               0.3
 (Enter /home/mkliu/g16/l103.exe)

 GradGradGradGradGradGradGradGradGradGradGradGradGradGradGradGradGradGrad
 Berny optimization.
 Initialization pass.
                           ----------------------------
                           !    Initial Parameters    !
                           ! (Angstroms and Degrees)  !
 --------------------------                            --------------------------
 ! Name  Definition              Value          Derivative Info.                !
 --------------------------------------------------------------------------------
 ! R1    R(1,5)                  1.5139         estimate D2E/DX2                !
 ! R2    R(1,17)                 1.5034         estimate D2E/DX2                !
 ! R3    R(1,25)                 1.505          estimate D2E/DX2                !
 ! R4    R(1,85)                 1.8188         estimate D2E/DX2                !
 ! R5    R(2,6)                  1.4295         estimate D2E/DX2                !
 ! R6    R(2,43)                 1.4278         estimate D2E/DX2                !
 ! R7    R(2,44)                 1.4098         estimate D2E/DX2                !
 ! R8    R(3,7)                  1.4258         estimate D2E/DX2                !
 ! R9    R(3,18)                 1.4096         estimate D2E/DX2                !
 ! R10   R(3,26)                 1.4357         estimate D2E/DX2                !
 ! R11   R(4,8)                  1.4306         estimate D2E/DX2                !
 ! R12   R(4,45)                 1.4105         estimate D2E/DX2                !
 ! R13   R(4,46)                 1.4266         estimate D2E/DX2                !
 ! R14   R(5,9)                  1.398          estimate D2E/DX2                !
 ! R15   R(5,29)                 1.4092         estimate D2E/DX2                !
 ! R16   R(6,10)                 1.3678         estimate D2E/DX2                !
 ! R17   R(6,15)                 1.4301         estimate D2E/DX2                !
 ! R18   R(7,12)                 1.4125         estimate D2E/DX2                !
 ! R19   R(7,30)                 1.4327         estimate D2E/DX2                !
 ! R20   R(8,11)                 1.3725         estimate D2E/DX2                !
 ! R21   R(8,16)                 1.4332         estimate D2E/DX2                !
 ! R22   R(9,13)                 1.4212         estimate D2E/DX2                !
 ! R23   R(9,35)                 1.4511         estimate D2E/DX2                !
 ! R24   R(10,49)                1.4389         estimate D2E/DX2                !
 ! R25   R(10,53)                1.433          estimate D2E/DX2                !
 ! R26   R(11,50)                1.4394         estimate D2E/DX2                !
 ! R27   R(11,54)                1.4361         estimate D2E/DX2                !
 ! R28   R(12,14)                1.4079         estimate D2E/DX2                !
 ! R29   R(12,36)                1.4523         estimate D2E/DX2                !
 ! R30   R(13,15)                1.4223         estimate D2E/DX2                !
 ! R31   R(13,43)                1.4287         estimate D2E/DX2                !
 ! R32   R(14,16)                1.4222         estimate D2E/DX2                !
 ! R33   R(14,46)                1.4355         estimate D2E/DX2                !
 ! R34   R(15,17)                1.4063         estimate D2E/DX2                !
 ! R35   R(16,18)                1.4124         estimate D2E/DX2                !
 ! R36   R(17,19)                1.3987         estimate D2E/DX2                !
 ! R37   R(18,20)                1.4527         estimate D2E/DX2                !
 ! R38   R(19,21)                1.5069         estimate D2E/DX2                !
 ! R39   R(19,53)                1.4087         estimate D2E/DX2                !
 ! R40   R(20,22)                1.4095         estimate D2E/DX2                !
 ! R41   R(20,54)                1.4162         estimate D2E/DX2                !
 ! R42   R(21,23)                1.5039         estimate D2E/DX2                !
 ! R43   R(21,57)                1.5119         estimate D2E/DX2                !
 ! R44   R(21,86)                1.8219         estimate D2E/DX2                !
 ! R45   R(22,24)                1.4334         estimate D2E/DX2                !
 ! R46   R(22,58)                1.431          estimate D2E/DX2                !
 ! R47   R(23,25)                1.355          estimate D2E/DX2                !
 ! R48   R(23,61)                1.4175         estimate D2E/DX2                !
 ! R49   R(24,26)                1.373          estimate D2E/DX2                !
 ! R50   R(24,62)                1.43           estimate D2E/DX2                !
 ! R51   R(25,27)                1.4167         estimate D2E/DX2                !
 ! R52   R(26,28)                1.4278         estimate D2E/DX2                !
 ! R53   R(27,29)                1.4309         estimate D2E/DX2                !
 ! R54   R(27,65)                1.4098         estimate D2E/DX2                !
 ! R55   R(28,30)                1.4322         estimate D2E/DX2                !
 ! R56   R(28,66)                1.4081         estimate D2E/DX2                !
 ! R57   R(29,31)                1.3717         estimate D2E/DX2                !
 ! R58   R(30,32)                1.3625         estimate D2E/DX2                !
 ! R59   R(31,33)                1.4279         estimate D2E/DX2                !
 ! R60   R(31,69)                1.4343         estimate D2E/DX2                !
 ! R61   R(32,34)                1.441          estimate D2E/DX2                !
 ! R62   R(32,70)                1.4338         estimate D2E/DX2                !
 ! R63   R(33,35)                1.4092         estimate D2E/DX2                !
 ! R64   R(33,73)                1.4295         estimate D2E/DX2                !
 ! R65   R(34,36)                1.4073         estimate D2E/DX2                !
 ! R66   R(34,74)                1.4241         estimate D2E/DX2                !
 ! R67   R(35,37)                1.4494         estimate D2E/DX2                !
 ! R68   R(36,38)                1.4499         estimate D2E/DX2                !
 ! R69   R(37,39)                1.4482         estimate D2E/DX2                !
 ! R70   R(37,77)                1.4097         estimate D2E/DX2                !
 ! R71   R(38,42)                1.451          estimate D2E/DX2                !
 ! R72   R(38,78)                1.4081         estimate D2E/DX2                !
 ! R73   R(39,43)                1.406          estimate D2E/DX2                !
 ! R74   R(39,79)                1.413          estimate D2E/DX2                !
 ! R75   R(40,41)                1.4384         estimate D2E/DX2                !
 ! R76   R(40,44)                1.4054         estimate D2E/DX2                !
 ! R77   R(40,79)                1.4209         estimate D2E/DX2                !
 ! R78   R(41,45)                1.4043         estimate D2E/DX2                !
 ! R79   R(41,80)                1.4199         estimate D2E/DX2                !
 ! R80   R(42,46)                1.4015         estimate D2E/DX2                !
 ! R81   R(42,80)                1.4148         estimate D2E/DX2                !
 ! R82   R(44,47)                1.4519         estimate D2E/DX2                !
 ! R83   R(45,48)                1.4535         estimate D2E/DX2                !
 ! R84   R(47,48)                1.4542         estimate D2E/DX2                !
 ! R85   R(47,49)                1.4013         estimate D2E/DX2                !
 ! R86   R(48,50)                1.401          estimate D2E/DX2                !
 ! R87   R(49,51)                1.4298         estimate D2E/DX2                !
 ! R88   R(50,52)                1.4326         estimate D2E/DX2                !
 ! R89   R(51,52)                1.374          estimate D2E/DX2                !
 ! R90   R(51,55)                1.4354         estimate D2E/DX2                !
 ! R91   R(52,56)                1.4347         estimate D2E/DX2                !
 ! R92   R(53,55)                1.4224         estimate D2E/DX2                !
 ! R93   R(54,56)                1.4239         estimate D2E/DX2                !
 ! R94   R(55,83)                1.4233         estimate D2E/DX2                !
 ! R95   R(56,84)                1.4121         estimate D2E/DX2                !
 ! R96   R(57,59)                1.4113         estimate D2E/DX2                !
 ! R97   R(57,83)                1.3985         estimate D2E/DX2                !
 ! R98   R(58,60)                1.4242         estimate D2E/DX2                !
 ! R99   R(58,84)                1.4107         estimate D2E/DX2                !
 ! R100  R(59,60)                1.377          estimate D2E/DX2                !
 ! R101  R(59,61)                1.4331         estimate D2E/DX2                !
 ! R102  R(60,62)                1.4335         estimate D2E/DX2                !
 ! R103  R(61,63)                1.4115         estimate D2E/DX2                !
 ! R104  R(62,64)                1.4059         estimate D2E/DX2                !
 ! R105  R(63,64)                1.4477         estimate D2E/DX2                !
 ! R106  R(63,65)                1.4334         estimate D2E/DX2                !
 ! R107  R(64,66)                1.4489         estimate D2E/DX2                !
 ! R108  R(65,67)                1.4499         estimate D2E/DX2                !
 ! R109  R(66,68)                1.4471         estimate D2E/DX2                !
 ! R110  R(67,68)                1.4452         estimate D2E/DX2                !
 ! R111  R(67,69)                1.4098         estimate D2E/DX2                !
 ! R112  R(68,70)                1.4139         estimate D2E/DX2                !
 ! R113  R(69,71)                1.4286         estimate D2E/DX2                !
 ! R114  R(70,72)                1.4272         estimate D2E/DX2                !
 ! R115  R(71,72)                1.3768         estimate D2E/DX2                !
 ! R116  R(71,73)                1.4418         estimate D2E/DX2                !
 ! R117  R(72,74)                1.4433         estimate D2E/DX2                !
 ! R118  R(73,75)                1.3788         estimate D2E/DX2                !
 ! R119  R(74,76)                1.3819         estimate D2E/DX2                !
 ! R120  R(75,76)                1.4426         estimate D2E/DX2                !
 ! R121  R(75,77)                1.4283         estimate D2E/DX2                !
 ! R122  R(76,78)                1.4255         estimate D2E/DX2                !
 ! R123  R(77,81)                1.4402         estimate D2E/DX2                !
 ! R124  R(78,81)                1.4434         estimate D2E/DX2                !
 ! R125  R(79,82)                1.431          estimate D2E/DX2                !
 ! R126  R(80,82)                1.4298         estimate D2E/DX2                !
 ! R127  R(81,82)                1.3668         estimate D2E/DX2                !
 ! R128  R(83,84)                1.4554         estimate D2E/DX2                !
 ! A1    A(5,1,17)             113.272          estimate D2E/DX2                !
 ! A2    A(5,1,25)             101.3955         estimate D2E/DX2                !
 ! A3    A(5,1,85)             110.475          estimate D2E/DX2                !
 ! A4    A(17,1,25)            110.2072         estimate D2E/DX2                !
 ! A5    A(17,1,85)            108.9249         estimate D2E/DX2                !
 ! A6    A(25,1,85)            112.4733         estimate D2E/DX2                !
 ! A7    A(6,2,43)             106.3782         estimate D2E/DX2                !
 ! A8    A(6,2,44)             120.4442         estimate D2E/DX2                !
 ! A9    A(43,2,44)            122.5106         estimate D2E/DX2                !
 ! A10   A(7,3,18)             122.2046         estimate D2E/DX2                !
 ! A11   A(7,3,26)             107.2906         estimate D2E/DX2                !
 ! A12   A(18,3,26)            120.2745         estimate D2E/DX2                !
 ! A13   A(8,4,45)             120.8028         estimate D2E/DX2                !
 ! A14   A(8,4,46)             106.8427         estimate D2E/DX2                !
 ! A15   A(45,4,46)            122.0933         estimate D2E/DX2                !
 ! A16   A(1,5,9)              125.5608         estimate D2E/DX2                !
 ! A17   A(1,5,29)             107.9568         estimate D2E/DX2                !
 ! A18   A(9,5,29)             119.2286         estimate D2E/DX2                !
 ! A19   A(2,6,10)             119.7318         estimate D2E/DX2                !
 ! A20   A(2,6,15)             109.6215         estimate D2E/DX2                !
 ! A21   A(10,6,15)            120.4023         estimate D2E/DX2                !
 ! A22   A(3,7,12)             122.5572         estimate D2E/DX2                !
 ! A23   A(3,7,30)             106.9004         estimate D2E/DX2                !
 ! A24   A(12,7,30)            119.7921         estimate D2E/DX2                !
 ! A25   A(4,8,11)             119.5461         estimate D2E/DX2                !
 ! A26   A(4,8,16)             109.2997         estimate D2E/DX2                !
 ! A27   A(11,8,16)            120.7621         estimate D2E/DX2                !
 ! A28   A(5,9,13)             115.2506         estimate D2E/DX2                !
 ! A29   A(5,9,35)             120.682          estimate D2E/DX2                !
 ! A30   A(13,9,35)            118.7718         estimate D2E/DX2                !
 ! A31   A(6,10,49)            120.3075         estimate D2E/DX2                !
 ! A32   A(6,10,53)            119.7358         estimate D2E/DX2                !
 ! A33   A(49,10,53)           109.6702         estimate D2E/DX2                !
 ! A34   A(8,11,50)            120.0649         estimate D2E/DX2                !
 ! A35   A(8,11,54)            120.0868         estimate D2E/DX2                !
 ! A36   A(50,11,54)           109.2663         estimate D2E/DX2                !
 ! A37   A(7,12,14)            114.6701         estimate D2E/DX2                !
 ! A38   A(7,12,36)            120.3695         estimate D2E/DX2                !
 ! A39   A(14,12,36)           119.2695         estimate D2E/DX2                !
 ! A40   A(9,13,15)            121.6592         estimate D2E/DX2                !
 ! A41   A(9,13,43)            120.5215         estimate D2E/DX2                !
 ! A42   A(15,13,43)           108.5152         estimate D2E/DX2                !
 ! A43   A(12,14,16)           122.4482         estimate D2E/DX2                !
 ! A44   A(12,14,46)           120.6865         estimate D2E/DX2                !
 ! A45   A(16,14,46)           108.5074         estimate D2E/DX2                !
 ! A46   A(6,15,13)            106.6948         estimate D2E/DX2                !
 ! A47   A(6,15,17)            119.8836         estimate D2E/DX2                !
 ! A48   A(13,15,17)           123.9681         estimate D2E/DX2                !
 ! A49   A(8,16,14)            106.8968         estimate D2E/DX2                !
 ! A50   A(8,16,18)            120.4873         estimate D2E/DX2                !
 ! A51   A(14,16,18)           122.5158         estimate D2E/DX2                !
 ! A52   A(1,17,15)            115.3753         estimate D2E/DX2                !
 ! A53   A(1,17,19)            122.176          estimate D2E/DX2                !
 ! A54   A(15,17,19)           120.025          estimate D2E/DX2                !
 ! A55   A(3,18,16)            114.7196         estimate D2E/DX2                !
 ! A56   A(3,18,20)            119.2337         estimate D2E/DX2                !
 ! A57   A(16,18,20)           119.0197         estimate D2E/DX2                !
 ! A58   A(17,19,21)           121.9476         estimate D2E/DX2                !
 ! A59   A(17,19,53)           119.7942         estimate D2E/DX2                !
 ! A60   A(21,19,53)           115.6786         estimate D2E/DX2                !
 ! A61   A(18,20,22)           119.0444         estimate D2E/DX2                !
 ! A62   A(18,20,54)           119.0429         estimate D2E/DX2                !
 ! A63   A(22,20,54)           114.9766         estimate D2E/DX2                !
 ! A64   A(19,21,23)           110.2286         estimate D2E/DX2                !
 ! A65   A(19,21,57)           113.0388         estimate D2E/DX2                !
 ! A66   A(19,21,86)           109.3189         estimate D2E/DX2                !
 ! A67   A(23,21,57)           101.3774         estimate D2E/DX2                !
 ! A68   A(23,21,86)           112.2073         estimate D2E/DX2                !
 ! A69   A(57,21,86)           110.5277         estimate D2E/DX2                !
 ! A70   A(20,22,24)           120.4036         estimate D2E/DX2                !
 ! A71   A(20,22,58)           122.1104         estimate D2E/DX2                !
 ! A72   A(24,22,58)           107.0533         estimate D2E/DX2                !
 ! A73   A(21,23,25)           123.076          estimate D2E/DX2                !
 ! A74   A(21,23,61)           111.5952         estimate D2E/DX2                !
 ! A75   A(25,23,61)           118.7321         estimate D2E/DX2                !
 ! A76   A(22,24,26)           120.4609         estimate D2E/DX2                !
 ! A77   A(22,24,62)           109.7155         estimate D2E/DX2                !
 ! A78   A(26,24,62)           118.9667         estimate D2E/DX2                !
 ! A79   A(1,25,23)            123.0524         estimate D2E/DX2                !
 ! A80   A(1,25,27)            111.3855         estimate D2E/DX2                !
 ! A81   A(23,25,27)           118.9388         estimate D2E/DX2                !
 ! A82   A(3,26,24)            120.3617         estimate D2E/DX2                !
 ! A83   A(3,26,28)            109.7898         estimate D2E/DX2                !
 ! A84   A(24,26,28)           119.3237         estimate D2E/DX2                !
 ! A85   A(25,27,29)           106.1915         estimate D2E/DX2                !
 ! A86   A(25,27,65)           123.8507         estimate D2E/DX2                !
 ! A87   A(29,27,65)           121.1953         estimate D2E/DX2                !
 ! A88   A(26,28,30)           105.041          estimate D2E/DX2                !
 ! A89   A(26,28,66)           122.4482         estimate D2E/DX2                !
 ! A90   A(30,28,66)           121.343          estimate D2E/DX2                !
 ! A91   A(5,29,27)            110.5316         estimate D2E/DX2                !
 ! A92   A(5,29,31)            120.8165         estimate D2E/DX2                !
 ! A93   A(27,29,31)           119.6423         estimate D2E/DX2                !
 ! A94   A(7,30,28)            109.9029         estimate D2E/DX2                !
 ! A95   A(7,30,32)            120.0116         estimate D2E/DX2                !
 ! A96   A(28,30,32)           119.7733         estimate D2E/DX2                !
 ! A97   A(29,31,33)           119.94           estimate D2E/DX2                !
 ! A98   A(29,31,69)           119.554          estimate D2E/DX2                !
 ! A99   A(33,31,69)           110.2097         estimate D2E/DX2                !
 ! A100  A(30,32,34)           120.5032         estimate D2E/DX2                !
 ! A101  A(30,32,70)           119.4358         estimate D2E/DX2                !
 ! A102  A(34,32,70)           109.9536         estimate D2E/DX2                !
 ! A103  A(31,33,35)           120.3072         estimate D2E/DX2                !
 ! A104  A(31,33,73)           105.962          estimate D2E/DX2                !
 ! A105  A(35,33,73)           122.8435         estimate D2E/DX2                !
 ! A106  A(32,34,36)           120.7353         estimate D2E/DX2                !
 ! A107  A(32,34,74)           105.8303         estimate D2E/DX2                !
 ! A108  A(36,34,74)           122.6734         estimate D2E/DX2                !
 ! A109  A(9,35,33)            117.0421         estimate D2E/DX2                !
 ! A110  A(9,35,37)            120.2511         estimate D2E/DX2                !
 ! A111  A(33,35,37)           117.6649         estimate D2E/DX2                !
 ! A112  A(12,36,34)           117.1355         estimate D2E/DX2                !
 ! A113  A(12,36,38)           119.8043         estimate D2E/DX2                !
 ! A114  A(34,36,38)           117.8936         estimate D2E/DX2                !
 ! A115  A(35,37,39)           119.254          estimate D2E/DX2                !
 ! A116  A(35,37,77)           118.4264         estimate D2E/DX2                !
 ! A117  A(39,37,77)           117.0821         estimate D2E/DX2                !
 ! A118  A(36,38,42)           119.2598         estimate D2E/DX2                !
 ! A119  A(36,38,78)           118.2964         estimate D2E/DX2                !
 ! A120  A(42,38,78)           117.1751         estimate D2E/DX2                !
 ! A121  A(37,39,43)           119.3499         estimate D2E/DX2                !
 ! A122  A(37,39,79)           120.1742         estimate D2E/DX2                !
 ! A123  A(43,39,79)           114.7254         estimate D2E/DX2                !
 ! A124  A(41,40,44)           121.1657         estimate D2E/DX2                !
 ! A125  A(41,40,79)           108.4725         estimate D2E/DX2                !
 ! A126  A(44,40,79)           122.0407         estimate D2E/DX2                !
 ! A127  A(40,41,45)           121.0919         estimate D2E/DX2                !
 ! A128  A(40,41,80)           108.4563         estimate D2E/DX2                !
 ! A129  A(45,41,80)           122.1283         estimate D2E/DX2                !
 ! A130  A(38,42,46)           119.5353         estimate D2E/DX2                !
 ! A131  A(38,42,80)           120.0417         estimate D2E/DX2                !
 ! A132  A(46,42,80)           114.7406         estimate D2E/DX2                !
 ! A133  A(2,43,13)            108.6559         estimate D2E/DX2                !
 ! A134  A(2,43,39)            121.7702         estimate D2E/DX2                !
 ! A135  A(13,43,39)           121.6338         estimate D2E/DX2                !
 ! A136  A(2,44,40)            114.6988         estimate D2E/DX2                !
 ! A137  A(2,44,47)            120.306          estimate D2E/DX2                !
 ! A138  A(40,44,47)           119.1662         estimate D2E/DX2                !
 ! A139  A(4,45,41)            114.8976         estimate D2E/DX2                !
 ! A140  A(4,45,48)            120.1156         estimate D2E/DX2                !
 ! A141  A(41,45,48)           119.1823         estimate D2E/DX2                !
 ! A142  A(4,46,14)            108.3338         estimate D2E/DX2                !
 ! A143  A(4,46,42)            122.1642         estimate D2E/DX2                !
 ! A144  A(14,46,42)           121.2433         estimate D2E/DX2                !
 ! A145  A(44,47,48)           119.6337         estimate D2E/DX2                !
 ! A146  A(44,47,49)           117.0501         estimate D2E/DX2                !
 ! A147  A(48,47,49)           118.0789         estimate D2E/DX2                !
 ! A148  A(45,48,47)           119.6383         estimate D2E/DX2                !
 ! A149  A(45,48,50)           116.9813         estimate D2E/DX2                !
 ! A150  A(47,48,50)           118.1817         estimate D2E/DX2                !
 ! A151  A(10,49,47)           121.62           estimate D2E/DX2                !
 ! A152  A(10,49,51)           105.317          estimate D2E/DX2                !
 ! A153  A(47,49,51)           122.42           estimate D2E/DX2                !
 ! A154  A(11,50,48)           122.035          estimate D2E/DX2                !
 ! A155  A(11,50,52)           105.6519         estimate D2E/DX2                !
 ! A156  A(48,50,52)           122.1102         estimate D2E/DX2                !
 ! A157  A(49,51,52)           119.1351         estimate D2E/DX2                !
 ! A158  A(49,51,55)           109.7742         estimate D2E/DX2                !
 ! A159  A(52,51,55)           120.7837         estimate D2E/DX2                !
 ! A160  A(50,52,51)           119.4927         estimate D2E/DX2                !
 ! A161  A(50,52,56)           109.5308         estimate D2E/DX2                !
 ! A162  A(51,52,56)           120.3947         estimate D2E/DX2                !
 ! A163  A(10,53,19)           120.1308         estimate D2E/DX2                !
 ! A164  A(10,53,55)           107.3274         estimate D2E/DX2                !
 ! A165  A(19,53,55)           123.754          estimate D2E/DX2                !
 ! A166  A(11,54,20)           120.5575         estimate D2E/DX2                !
 ! A167  A(11,54,56)           107.5387         estimate D2E/DX2                !
 ! A168  A(20,54,56)           122.3478         estimate D2E/DX2                !
 ! A169  A(51,55,53)           107.4908         estimate D2E/DX2                !
 ! A170  A(51,55,83)           120.186          estimate D2E/DX2                !
 ! A171  A(53,55,83)           121.5253         estimate D2E/DX2                !
 ! A172  A(52,56,54)           107.5114         estimate D2E/DX2                !
 ! A173  A(52,56,84)           120.3129         estimate D2E/DX2                !
 ! A174  A(54,56,84)           122.5027         estimate D2E/DX2                !
 ! A175  A(21,57,59)           108.5898         estimate D2E/DX2                !
 ! A176  A(21,57,83)           125.0217         estimate D2E/DX2                !
 ! A177  A(59,57,83)           119.6799         estimate D2E/DX2                !
 ! A178  A(22,58,60)           107.2995         estimate D2E/DX2                !
 ! A179  A(22,58,84)           122.6109         estimate D2E/DX2                !
 ! A180  A(60,58,84)           119.8477         estimate D2E/DX2                !
 ! A181  A(57,59,60)           121.5435         estimate D2E/DX2                !
 ! A182  A(57,59,61)           110.3645         estimate D2E/DX2                !
 ! A183  A(60,59,61)           119.2056         estimate D2E/DX2                !
 ! A184  A(58,60,59)           119.9336         estimate D2E/DX2                !
 ! A185  A(58,60,62)           109.9343         estimate D2E/DX2                !
 ! A186  A(59,60,62)           119.5706         estimate D2E/DX2                !
 ! A187  A(23,61,59)           106.3373         estimate D2E/DX2                !
 ! A188  A(23,61,63)           123.6418         estimate D2E/DX2                !
 ! A189  A(59,61,63)           121.7252         estimate D2E/DX2                !
 ! A190  A(24,62,60)           105.2124         estimate D2E/DX2                !
 ! A191  A(24,62,64)           122.2398         estimate D2E/DX2                !
 ! A192  A(60,62,64)           121.9752         estimate D2E/DX2                !
 ! A193  A(61,63,64)           118.5472         estimate D2E/DX2                !
 ! A194  A(61,63,65)           117.3946         estimate D2E/DX2                !
 ! A195  A(64,63,65)           120.0969         estimate D2E/DX2                !
 ! A196  A(62,64,63)           118.0645         estimate D2E/DX2                !
 ! A197  A(62,64,66)           118.2749         estimate D2E/DX2                !
 ! A198  A(63,64,66)           119.5113         estimate D2E/DX2                !
 ! A199  A(27,65,63)           116.9574         estimate D2E/DX2                !
 ! A200  A(27,65,67)           118.5667         estimate D2E/DX2                !
 ! A201  A(63,65,67)           120.6265         estimate D2E/DX2                !
 ! A202  A(28,66,64)           117.4901         estimate D2E/DX2                !
 ! A203  A(28,66,68)           118.1699         estimate D2E/DX2                !
 ! A204  A(64,66,68)           120.3409         estimate D2E/DX2                !
 ! A205  A(65,67,68)           119.5538         estimate D2E/DX2                !
 ! A206  A(65,67,69)           118.0438         estimate D2E/DX2                !
 ! A207  A(68,67,69)           118.1777         estimate D2E/DX2                !
 ! A208  A(66,68,67)           119.8352         estimate D2E/DX2                !
 ! A209  A(66,68,70)           118.1237         estimate D2E/DX2                !
 ! A210  A(67,68,70)           117.8252         estimate D2E/DX2                !
 ! A211  A(31,69,67)           121.2917         estimate D2E/DX2                !
 ! A212  A(31,69,71)           105.6182         estimate D2E/DX2                !
 ! A213  A(67,69,71)           122.5596         estimate D2E/DX2                !
 ! A214  A(32,70,68)           121.1814         estimate D2E/DX2                !
 ! A215  A(32,70,72)           105.6576         estimate D2E/DX2                !
 ! A216  A(68,70,72)           122.5277         estimate D2E/DX2                !
 ! A217  A(69,71,72)           119.1059         estimate D2E/DX2                !
 ! A218  A(69,71,73)           108.5581         estimate D2E/DX2                !
 ! A219  A(72,71,73)           120.1425         estimate D2E/DX2                !
 ! A220  A(70,72,71)           119.3316         estimate D2E/DX2                !
 ! A221  A(70,72,74)           108.7393         estimate D2E/DX2                !
 ! A222  A(71,72,74)           120.0458         estimate D2E/DX2                !
 ! A223  A(33,73,71)           108.3861         estimate D2E/DX2                !
 ! A224  A(33,73,75)           119.2206         estimate D2E/DX2                !
 ! A225  A(71,73,75)           119.9086         estimate D2E/DX2                !
 ! A226  A(34,74,72)           108.5128         estimate D2E/DX2                !
 ! A227  A(34,74,76)           119.3317         estimate D2E/DX2                !
 ! A228  A(72,74,76)           119.8242         estimate D2E/DX2                !
 ! A229  A(73,75,76)           120.04           estimate D2E/DX2                !
 ! A230  A(73,75,77)           119.2563         estimate D2E/DX2                !
 ! A231  A(76,75,77)           108.7488         estimate D2E/DX2                !
 ! A232  A(74,76,75)           119.985          estimate D2E/DX2                !
 ! A233  A(74,76,78)           119.2366         estimate D2E/DX2                !
 ! A234  A(75,76,78)           108.7316         estimate D2E/DX2                !
 ! A235  A(37,77,75)           122.4583         estimate D2E/DX2                !
 ! A236  A(37,77,81)           121.4653         estimate D2E/DX2                !
 ! A237  A(75,77,81)           105.9582         estimate D2E/DX2                !
 ! A238  A(38,78,76)           122.4383         estimate D2E/DX2                !
 ! A239  A(38,78,81)           121.4748         estimate D2E/DX2                !
 ! A240  A(76,78,81)           106.0089         estimate D2E/DX2                !
 ! A241  A(39,79,40)           122.5143         estimate D2E/DX2                !
 ! A242  A(39,79,82)           120.4433         estimate D2E/DX2                !
 ! A243  A(40,79,82)           106.5728         estimate D2E/DX2                !
 ! A244  A(41,80,42)           122.2566         estimate D2E/DX2                !
 ! A245  A(41,80,82)           106.6639         estimate D2E/DX2                !
 ! A246  A(42,80,82)           120.436          estimate D2E/DX2                !
 ! A247  A(77,81,78)           109.8183         estimate D2E/DX2                !
 ! A248  A(77,81,82)           120.0994         estimate D2E/DX2                !
 ! A249  A(78,81,82)           119.9573         estimate D2E/DX2                !
 ! A250  A(79,82,80)           109.628          estimate D2E/DX2                !
 ! A251  A(79,82,81)           119.9531         estimate D2E/DX2                !
 ! A252  A(80,82,81)           120.1351         estimate D2E/DX2                !
 ! A253  A(55,83,57)           115.5699         estimate D2E/DX2                !
 ! A254  A(55,83,84)           118.6349         estimate D2E/DX2                !
 ! A255  A(57,83,84)           119.3367         estimate D2E/DX2                !
 ! A256  A(56,84,58)           114.7539         estimate D2E/DX2                !
 ! A257  A(56,84,83)           119.5795         estimate D2E/DX2                !
 ! A258  A(58,84,83)           119.1091         estimate D2E/DX2                !
 ! D1    D(17,1,5,9)            17.2065         estimate D2E/DX2                !
 ! D2    D(17,1,5,29)         -132.4105         estimate D2E/DX2                !
 ! D3    D(25,1,5,9)           135.2574         estimate D2E/DX2                !
 ! D4    D(25,1,5,29)          -14.3596         estimate D2E/DX2                !
 ! D5    D(85,1,5,9)          -105.3038         estimate D2E/DX2                !
 ! D6    D(85,1,5,29)          105.0792         estimate D2E/DX2                !
 ! D7    D(5,1,17,15)          -25.3091         estimate D2E/DX2                !
 ! D8    D(5,1,17,19)          136.9999         estimate D2E/DX2                !
 ! D9    D(25,1,17,15)        -138.1075         estimate D2E/DX2                !
 ! D10   D(25,1,17,19)          24.2015         estimate D2E/DX2                !
 ! D11   D(85,1,17,15)          98.0579         estimate D2E/DX2                !
 ! D12   D(85,1,17,19)         -99.6331         estimate D2E/DX2                !
 ! D13   D(5,1,25,23)         -143.3688         estimate D2E/DX2                !
 ! D14   D(5,1,25,27)            7.653          estimate D2E/DX2                !
 ! D15   D(17,1,25,23)         -23.1262         estimate D2E/DX2                !
 ! D16   D(17,1,25,27)         127.8956         estimate D2E/DX2                !
 ! D17   D(85,1,25,23)          98.627          estimate D2E/DX2                !
 ! D18   D(85,1,25,27)        -110.3511         estimate D2E/DX2                !
 ! D19   D(43,2,6,10)         -148.855          estimate D2E/DX2                !
 ! D20   D(43,2,6,15)           -3.5367         estimate D2E/DX2                !
 ! D21   D(44,2,6,10)           -3.5179         estimate D2E/DX2                !
 ! D22   D(44,2,6,15)          141.8004         estimate D2E/DX2                !
 ! D23   D(6,2,43,13)            1.9855         estimate D2E/DX2                !
 ! D24   D(6,2,43,39)          151.328          estimate D2E/DX2                !
 ! D25   D(44,2,43,13)        -142.462          estimate D2E/DX2                !
 ! D26   D(44,2,43,39)           6.8805         estimate D2E/DX2                !
 ! D27   D(6,2,44,40)         -151.9994         estimate D2E/DX2                !
 ! D28   D(6,2,44,47)            0.8925         estimate D2E/DX2                !
 ! D29   D(43,2,44,40)         -12.3204         estimate D2E/DX2                !
 ! D30   D(43,2,44,47)         140.5715         estimate D2E/DX2                !
 ! D31   D(18,3,7,12)            3.1076         estimate D2E/DX2                !
 ! D32   D(18,3,7,30)          147.212          estimate D2E/DX2                !
 ! D33   D(26,3,7,12)         -141.9842         estimate D2E/DX2                !
 ! D34   D(26,3,7,30)            2.1202         estimate D2E/DX2                !
 ! D35   D(7,3,18,16)            5.567          estimate D2E/DX2                !
 ! D36   D(7,3,18,20)         -144.8496         estimate D2E/DX2                !
 ! D37   D(26,3,18,16)         146.3182         estimate D2E/DX2                !
 ! D38   D(26,3,18,20)          -4.0983         estimate D2E/DX2                !
 ! D39   D(7,3,26,24)          149.0374         estimate D2E/DX2                !
 ! D40   D(7,3,26,28)            4.5495         estimate D2E/DX2                !
 ! D41   D(18,3,26,24)           3.1407         estimate D2E/DX2                !
 ! D42   D(18,3,26,28)        -141.3472         estimate D2E/DX2                !
 ! D43   D(45,4,8,11)            3.0582         estimate D2E/DX2                !
 ! D44   D(45,4,8,16)         -142.1705         estimate D2E/DX2                !
 ! D45   D(46,4,8,11)          148.8258         estimate D2E/DX2                !
 ! D46   D(46,4,8,16)            3.5971         estimate D2E/DX2                !
 ! D47   D(8,4,45,41)          152.5281         estimate D2E/DX2                !
 ! D48   D(8,4,45,48)           -0.4271         estimate D2E/DX2                !
 ! D49   D(46,4,45,41)          11.9882         estimate D2E/DX2                !
 ! D50   D(46,4,45,48)        -140.967          estimate D2E/DX2                !
 ! D51   D(8,4,46,14)           -2.9591         estimate D2E/DX2                !
 ! D52   D(8,4,46,42)         -151.5931         estimate D2E/DX2                !
 ! D53   D(45,4,46,14)         142.266          estimate D2E/DX2                !
 ! D54   D(45,4,46,42)          -6.368          estimate D2E/DX2                !
 ! D55   D(1,5,9,13)            -0.8818         estimate D2E/DX2                !
 ! D56   D(1,5,9,35)          -154.861          estimate D2E/DX2                !
 ! D57   D(29,5,9,13)          145.6594         estimate D2E/DX2                !
 ! D58   D(29,5,9,35)           -8.3198         estimate D2E/DX2                !
 ! D59   D(1,5,29,27)           16.713          estimate D2E/DX2                !
 ! D60   D(1,5,29,31)          163.6801         estimate D2E/DX2                !
 ! D61   D(9,5,29,27)         -135.1567         estimate D2E/DX2                !
 ! D62   D(9,5,29,31)           11.8104         estimate D2E/DX2                !
 ! D63   D(2,6,10,49)            0.0078         estimate D2E/DX2                !
 ! D64   D(2,6,10,53)          141.5357         estimate D2E/DX2                !
 ! D65   D(15,6,10,49)        -141.572          estimate D2E/DX2                !
 ! D66   D(15,6,10,53)          -0.044          estimate D2E/DX2                !
 ! D67   D(2,6,15,13)            3.7149         estimate D2E/DX2                !
 ! D68   D(2,6,15,17)         -143.9695         estimate D2E/DX2                !
 ! D69   D(10,6,15,13)         148.7633         estimate D2E/DX2                !
 ! D70   D(10,6,15,17)           1.0789         estimate D2E/DX2                !
 ! D71   D(3,7,12,14)           -8.2092         estimate D2E/DX2                !
 ! D72   D(3,7,12,36)          145.0112         estimate D2E/DX2                !
 ! D73   D(30,7,12,14)        -147.9367         estimate D2E/DX2                !
 ! D74   D(30,7,12,36)           5.2837         estimate D2E/DX2                !
 ! D75   D(3,7,30,28)           -8.0681         estimate D2E/DX2                !
 ! D76   D(3,7,30,32)         -153.054          estimate D2E/DX2                !
 ! D77   D(12,7,30,28)         137.2211         estimate D2E/DX2                !
 ! D78   D(12,7,30,32)          -7.7648         estimate D2E/DX2                !
 ! D79   D(4,8,11,50)           -0.1188         estimate D2E/DX2                !
 ! D80   D(4,8,11,54)         -141.0143         estimate D2E/DX2                !
 ! D81   D(16,8,11,50)         141.0972         estimate D2E/DX2                !
 ! D82   D(16,8,11,54)           0.2017         estimate D2E/DX2                !
 ! D83   D(4,8,16,14)           -2.8355         estimate D2E/DX2                !
 ! D84   D(4,8,16,18)          143.3412         estimate D2E/DX2                !
 ! D85   D(11,8,16,14)        -147.5692         estimate D2E/DX2                !
 ! D86   D(11,8,16,18)          -1.3925         estimate D2E/DX2                !
 ! D87   D(5,9,13,15)           -7.101          estimate D2E/DX2                !
 ! D88   D(5,9,13,43)         -149.9095         estimate D2E/DX2                !
 ! D89   D(35,9,13,15)         147.4046         estimate D2E/DX2                !
 ! D90   D(35,9,13,43)           4.5962         estimate D2E/DX2                !
 ! D91   D(5,9,35,33)           -4.1398         estimate D2E/DX2                !
 ! D92   D(5,9,35,37)          150.1723         estimate D2E/DX2                !
 ! D93   D(13,9,35,33)        -157.2251         estimate D2E/DX2                !
 ! D94   D(13,9,35,37)          -2.913          estimate D2E/DX2                !
 ! D95   D(6,10,49,47)           6.3741         estimate D2E/DX2                !
 ! D96   D(6,10,49,51)         151.5995         estimate D2E/DX2                !
 ! D97   D(53,10,49,47)       -138.618          estimate D2E/DX2                !
 ! D98   D(53,10,49,51)          6.6074         estimate D2E/DX2                !
 ! D99   D(6,10,53,19)          -1.432          estimate D2E/DX2                !
 ! D100  D(6,10,53,55)        -150.0871         estimate D2E/DX2                !
 ! D101  D(49,10,53,19)        143.7905         estimate D2E/DX2                !
 ! D102  D(49,10,53,55)         -4.8645         estimate D2E/DX2                !
 ! D103  D(8,11,50,48)          -5.6974         estimate D2E/DX2                !
 ! D104  D(8,11,50,52)        -151.4374         estimate D2E/DX2                !
 ! D105  D(54,11,50,48)        138.9832         estimate D2E/DX2                !
 ! D106  D(54,11,50,52)         -6.7568         estimate D2E/DX2                !
 ! D107  D(8,11,54,20)           1.6824         estimate D2E/DX2                !
 ! D108  D(8,11,54,56)         148.6366         estimate D2E/DX2                !
 ! D109  D(50,11,54,20)       -142.9892         estimate D2E/DX2                !
 ! D110  D(50,11,54,56)          3.965          estimate D2E/DX2                !
 ! D111  D(7,12,14,16)           4.8317         estimate D2E/DX2                !
 ! D112  D(7,12,14,46)         149.3901         estimate D2E/DX2                !
 ! D113  D(36,12,14,16)       -148.7047         estimate D2E/DX2                !
 ! D114  D(36,12,14,46)         -4.1463         estimate D2E/DX2                !
 ! D115  D(7,12,36,34)           4.9414         estimate D2E/DX2                !
 ! D116  D(7,12,36,38)        -149.1373         estimate D2E/DX2                !
 ! D117  D(14,12,36,34)        156.9487         estimate D2E/DX2                !
 ! D118  D(14,12,36,38)          2.87           estimate D2E/DX2                !
 ! D119  D(9,13,15,6)         -149.1129         estimate D2E/DX2                !
 ! D120  D(9,13,15,17)          -3.0911         estimate D2E/DX2                !
 ! D121  D(43,13,15,6)          -2.4215         estimate D2E/DX2                !
 ! D122  D(43,13,15,17)        143.6003         estimate D2E/DX2                !
 ! D123  D(9,13,43,2)          147.4115         estimate D2E/DX2                !
 ! D124  D(9,13,43,39)          -1.9809         estimate D2E/DX2                !
 ! D125  D(15,13,43,2)           0.2731         estimate D2E/DX2                !
 ! D126  D(15,13,43,39)       -149.1192         estimate D2E/DX2                !
 ! D127  D(12,14,16,8)         149.2333         estimate D2E/DX2                !
 ! D128  D(12,14,16,18)          3.903          estimate D2E/DX2                !
 ! D129  D(46,14,16,8)           0.9602         estimate D2E/DX2                !
 ! D130  D(46,14,16,18)       -144.3701         estimate D2E/DX2                !
 ! D131  D(12,14,46,4)        -147.679          estimate D2E/DX2                !
 ! D132  D(12,14,46,42)          1.2993         estimate D2E/DX2                !
 ! D133  D(16,14,46,4)           1.2547         estimate D2E/DX2                !
 ! D134  D(16,14,46,42)        150.2331         estimate D2E/DX2                !
 ! D135  D(6,15,17,1)          162.0836         estimate D2E/DX2                !
 ! D136  D(6,15,17,19)          -0.6343         estimate D2E/DX2                !
 ! D137  D(13,15,17,1)          20.2109         estimate D2E/DX2                !
 ! D138  D(13,15,17,19)       -142.5069         estimate D2E/DX2                !
 ! D139  D(8,16,18,3)         -149.7859         estimate D2E/DX2                !
 ! D140  D(8,16,18,20)           0.6982         estimate D2E/DX2                !
 ! D141  D(14,16,18,3)          -8.9552         estimate D2E/DX2                !
 ! D142  D(14,16,18,20)        141.5289         estimate D2E/DX2                !
 ! D143  D(1,17,19,21)          -1.3452         estimate D2E/DX2                !
 ! D144  D(1,17,19,53)        -162.3442         estimate D2E/DX2                !
 ! D145  D(15,17,19,21)        160.1659         estimate D2E/DX2                !
 ! D146  D(15,17,19,53)         -0.833          estimate D2E/DX2                !
 ! D147  D(3,18,20,22)           0.8788         estimate D2E/DX2                !
 ! D148  D(3,18,20,54)         150.2876         estimate D2E/DX2                !
 ! D149  D(16,18,20,22)       -148.2682         estimate D2E/DX2                !
 ! D150  D(16,18,20,54)          1.1405         estimate D2E/DX2                !
 ! D151  D(17,19,21,23)        -22.8498         estimate D2E/DX2                !
 ! D152  D(17,19,21,57)       -135.5042         estimate D2E/DX2                !
 ! D153  D(17,19,21,86)        100.9312         estimate D2E/DX2                !
 ! D154  D(53,19,21,23)        138.8793         estimate D2E/DX2                !
 ! D155  D(53,19,21,57)         26.2248         estimate D2E/DX2                !
 ! D156  D(53,19,21,86)        -97.3397         estimate D2E/DX2                !
 ! D157  D(17,19,53,10)          1.871          estimate D2E/DX2                !
 ! D158  D(17,19,53,55)        145.1969         estimate D2E/DX2                !
 ! D159  D(21,19,53,10)       -160.2779         estimate D2E/DX2                !
 ! D160  D(21,19,53,55)        -16.952          estimate D2E/DX2                !
 ! D161  D(18,20,22,24)          3.3165         estimate D2E/DX2                !
 ! D162  D(18,20,22,58)        143.6403         estimate D2E/DX2                !
 ! D163  D(54,20,22,24)       -147.289          estimate D2E/DX2                !
 ! D164  D(54,20,22,58)         -6.9652         estimate D2E/DX2                !
 ! D165  D(18,20,54,11)         -2.3335         estimate D2E/DX2                !
 ! D166  D(18,20,54,56)       -144.3474         estimate D2E/DX2                !
 ! D167  D(22,20,54,11)        148.2725         estimate D2E/DX2                !
 ! D168  D(22,20,54,56)          6.2586         estimate D2E/DX2                !
 ! D169  D(19,21,23,25)         24.4836         estimate D2E/DX2                !
 ! D170  D(19,21,23,61)       -126.5369         estimate D2E/DX2                !
 ! D171  D(57,21,23,25)        144.4565         estimate D2E/DX2                !
 ! D172  D(57,21,23,61)         -6.564          estimate D2E/DX2                !
 ! D173  D(86,21,23,25)        -97.6067         estimate D2E/DX2                !
 ! D174  D(86,21,23,61)        111.3728         estimate D2E/DX2                !
 ! D175  D(19,21,57,59)        129.9846         estimate D2E/DX2                !
 ! D176  D(19,21,57,83)        -20.8967         estimate D2E/DX2                !
 ! D177  D(23,21,57,59)         12.0254         estimate D2E/DX2                !
 ! D178  D(23,21,57,83)       -138.856          estimate D2E/DX2                !
 ! D179  D(86,21,57,59)       -107.1196         estimate D2E/DX2                !
 ! D180  D(86,21,57,83)        101.999          estimate D2E/DX2                !
 ! D181  D(20,22,24,26)         -4.3693         estimate D2E/DX2                !
 ! D182  D(20,22,24,62)        139.4925         estimate D2E/DX2                !
 ! D183  D(58,22,24,26)       -149.9217         estimate D2E/DX2                !
 ! D184  D(58,22,24,62)         -6.0599         estimate D2E/DX2                !
 ! D185  D(20,22,58,60)       -144.1438         estimate D2E/DX2                !
 ! D186  D(20,22,58,84)          0.7519         estimate D2E/DX2                !
 ! D187  D(24,22,58,60)          0.6884         estimate D2E/DX2                !
 ! D188  D(24,22,58,84)        145.584          estimate D2E/DX2                !
 ! D189  D(21,23,25,1)          -1.361          estimate D2E/DX2                !
 ! D190  D(21,23,25,27)       -150.3312         estimate D2E/DX2                !
 ! D191  D(61,23,25,1)         147.7256         estimate D2E/DX2                !
 ! D192  D(61,23,25,27)         -1.2446         estimate D2E/DX2                !
 ! D193  D(21,23,61,59)         -1.1464         estimate D2E/DX2                !
 ! D194  D(21,23,61,63)        147.4231         estimate D2E/DX2                !
 ! D195  D(25,23,61,59)       -153.5664         estimate D2E/DX2                !
 ! D196  D(25,23,61,63)         -4.9969         estimate D2E/DX2                !
 ! D197  D(22,24,26,3)           1.1127         estimate D2E/DX2                !
 ! D198  D(22,24,26,28)        142.2913         estimate D2E/DX2                !
 ! D199  D(62,24,26,3)        -139.501          estimate D2E/DX2                !
 ! D200  D(62,24,26,28)          1.6776         estimate D2E/DX2                !
 ! D201  D(22,24,62,60)          8.8588         estimate D2E/DX2                !
 ! D202  D(22,24,62,64)       -136.2578         estimate D2E/DX2                !
 ! D203  D(26,24,62,60)        153.3363         estimate D2E/DX2                !
 ! D204  D(26,24,62,64)          8.2197         estimate D2E/DX2                !
 ! D205  D(1,25,27,29)           1.7087         estimate D2E/DX2                !
 ! D206  D(1,25,27,65)        -145.8765         estimate D2E/DX2                !
 ! D207  D(23,25,27,29)        154.0624         estimate D2E/DX2                !
 ! D208  D(23,25,27,65)          6.4772         estimate D2E/DX2                !
 ! D209  D(3,26,28,30)          -9.252          estimate D2E/DX2                !
 ! D210  D(3,26,28,66)         134.7571         estimate D2E/DX2                !
 ! D211  D(24,26,28,30)       -154.1616         estimate D2E/DX2                !
 ! D212  D(24,26,28,66)        -10.1525         estimate D2E/DX2                !
 ! D213  D(25,27,29,5)         -11.5238         estimate D2E/DX2                !
 ! D214  D(25,27,29,31)       -158.9321         estimate D2E/DX2                !
 ! D215  D(65,27,29,5)         137.115          estimate D2E/DX2                !
 ! D216  D(65,27,29,31)        -10.2933         estimate D2E/DX2                !
 ! D217  D(25,27,65,63)         -5.2633         estimate D2E/DX2                !
 ! D218  D(25,27,65,67)        152.8115         estimate D2E/DX2                !
 ! D219  D(29,27,65,63)       -148.2645         estimate D2E/DX2                !
 ! D220  D(29,27,65,67)          9.8103         estimate D2E/DX2                !
 ! D221  D(26,28,30,7)          10.6343         estimate D2E/DX2                !
 ! D222  D(26,28,30,32)        155.7161         estimate D2E/DX2                !
 ! D223  D(66,28,30,7)        -133.8698         estimate D2E/DX2                !
 ! D224  D(66,28,30,32)         11.212          estimate D2E/DX2                !
 ! D225  D(26,28,66,64)          8.4865         estimate D2E/DX2                !
 ! D226  D(26,28,66,68)       -149.1223         estimate D2E/DX2                !
 ! D227  D(30,28,66,64)        146.8429         estimate D2E/DX2                !
 ! D228  D(30,28,66,68)        -10.7659         estimate D2E/DX2                !
 ! D229  D(5,29,31,33)          -2.5374         estimate D2E/DX2                !
 ! D230  D(5,29,31,69)        -144.2453         estimate D2E/DX2                !
 ! D231  D(27,29,31,33)        141.4926         estimate D2E/DX2                !
 ! D232  D(27,29,31,69)         -0.2153         estimate D2E/DX2                !
 ! D233  D(7,30,32,34)          -0.1408         estimate D2E/DX2                !
 ! D234  D(7,30,32,70)         141.7859         estimate D2E/DX2                !
 ! D235  D(28,30,32,34)       -141.7112         estimate D2E/DX2                !
 ! D236  D(28,30,32,70)          0.2155         estimate D2E/DX2                !
 ! D237  D(29,31,33,35)        -10.4338         estimate D2E/DX2                !
 ! D238  D(29,31,33,73)       -155.577          estimate D2E/DX2                !
 ! D239  D(69,31,33,35)        134.5078         estimate D2E/DX2                !
 ! D240  D(69,31,33,73)        -10.6353         estimate D2E/DX2                !
 ! D241  D(29,31,69,67)         11.171          estimate D2E/DX2                !
 ! D242  D(29,31,69,71)        156.6428         estimate D2E/DX2                !
 ! D243  D(33,31,69,67)       -133.925          estimate D2E/DX2                !
 ! D244  D(33,31,69,71)         11.5467         estimate D2E/DX2                !
 ! D245  D(30,32,34,36)         10.8253         estimate D2E/DX2                !
 ! D246  D(30,32,34,74)        156.0525         estimate D2E/DX2                !
 ! D247  D(70,32,34,36)       -134.3295         estimate D2E/DX2                !
 ! D248  D(70,32,34,74)         10.8977         estimate D2E/DX2                !
 ! D249  D(30,32,70,68)        -11.9071         estimate D2E/DX2                !
 ! D250  D(30,32,70,72)       -157.2281         estimate D2E/DX2                !
 ! D251  D(34,32,70,68)        133.6729         estimate D2E/DX2                !
 ! D252  D(34,32,70,72)        -11.648          estimate D2E/DX2                !
 ! D253  D(31,33,35,9)          13.4439         estimate D2E/DX2                !
 ! D254  D(31,33,35,37)       -141.5462         estimate D2E/DX2                !
 ! D255  D(73,33,35,9)         152.5972         estimate D2E/DX2                !
 ! D256  D(73,33,35,37)         -2.3929         estimate D2E/DX2                !
 ! D257  D(31,33,73,71)          5.4651         estimate D2E/DX2                !
 ! D258  D(31,33,73,75)        147.4617         estimate D2E/DX2                !
 ! D259  D(35,33,73,71)       -138.5696         estimate D2E/DX2                !
 ! D260  D(35,33,73,75)          3.427          estimate D2E/DX2                !
 ! D261  D(32,34,36,12)        -12.8998         estimate D2E/DX2                !
 ! D262  D(32,34,36,38)        141.6848         estimate D2E/DX2                !
 ! D263  D(74,34,36,12)       -152.2194         estimate D2E/DX2                !
 ! D264  D(74,34,36,38)          2.3652         estimate D2E/DX2                !
 ! D265  D(32,34,74,72)         -5.7711         estimate D2E/DX2                !
 ! D266  D(32,34,74,76)       -147.9339         estimate D2E/DX2                !
 ! D267  D(36,34,74,72)        138.6117         estimate D2E/DX2                !
 ! D268  D(36,34,74,76)         -3.5511         estimate D2E/DX2                !
 ! D269  D(9,35,37,39)          -1.3592         estimate D2E/DX2                !
 ! D270  D(9,35,37,77)        -155.0671         estimate D2E/DX2                !
 ! D271  D(33,35,37,39)        152.7974         estimate D2E/DX2                !
 ! D272  D(33,35,37,77)         -0.9105         estimate D2E/DX2                !
 ! D273  D(12,36,38,42)          1.19           estimate D2E/DX2                !
 ! D274  D(12,36,38,78)        154.8488         estimate D2E/DX2                !
 ! D275  D(34,36,38,42)       -152.696          estimate D2E/DX2                !
 ! D276  D(34,36,38,78)          0.9628         estimate D2E/DX2                !
 ! D277  D(35,37,39,43)          4.0038         estimate D2E/DX2                !
 ! D278  D(35,37,39,79)       -147.8827         estimate D2E/DX2                !
 ! D279  D(77,37,39,43)        158.0586         estimate D2E/DX2                !
 ! D280  D(77,37,39,79)          6.1721         estimate D2E/DX2                !
 ! D281  D(35,37,77,75)          3.2637         estimate D2E/DX2                !
 ! D282  D(35,37,77,81)        143.73           estimate D2E/DX2                !
 ! D283  D(39,37,77,75)       -151.0118         estimate D2E/DX2                !
 ! D284  D(39,37,77,81)        -10.5455         estimate D2E/DX2                !
 ! D285  D(36,38,42,46)         -4.0284         estimate D2E/DX2                !
 ! D286  D(36,38,42,80)        148.0188         estimate D2E/DX2                !
 ! D287  D(78,38,42,46)       -157.9772         estimate D2E/DX2                !
 ! D288  D(78,38,42,80)         -5.9301         estimate D2E/DX2                !
 ! D289  D(36,38,78,76)         -3.19           estimate D2E/DX2                !
 ! D290  D(36,38,78,81)       -143.7448         estimate D2E/DX2                !
 ! D291  D(42,38,78,76)        151.0161         estimate D2E/DX2                !
 ! D292  D(42,38,78,81)         10.4613         estimate D2E/DX2                !
 ! D293  D(37,39,43,2)        -147.8316         estimate D2E/DX2                !
 ! D294  D(37,39,43,13)         -2.4023         estimate D2E/DX2                !
 ! D295  D(79,39,43,2)           5.5218         estimate D2E/DX2                !
 ! D296  D(79,39,43,13)        150.9511         estimate D2E/DX2                !
 ! D297  D(37,39,79,40)        141.065          estimate D2E/DX2                !
 ! D298  D(37,39,79,82)          0.9831         estimate D2E/DX2                !
 ! D299  D(43,39,79,40)        -12.0506         estimate D2E/DX2                !
 ! D300  D(43,39,79,82)       -152.1325         estimate D2E/DX2                !
 ! D301  D(44,40,41,45)         -0.0954         estimate D2E/DX2                !
 ! D302  D(44,40,41,80)       -148.9629         estimate D2E/DX2                !
 ! D303  D(79,40,41,45)        148.7446         estimate D2E/DX2                !
 ! D304  D(79,40,41,80)         -0.1229         estimate D2E/DX2                !
 ! D305  D(41,40,44,2)         150.4191         estimate D2E/DX2                !
 ! D306  D(41,40,44,47)         -2.8037         estimate D2E/DX2                !
 ! D307  D(79,40,44,2)           5.7966         estimate D2E/DX2                !
 ! D308  D(79,40,44,47)       -147.4262         estimate D2E/DX2                !
 ! D309  D(41,40,79,39)       -141.9139         estimate D2E/DX2                !
 ! D310  D(41,40,79,82)          2.8323         estimate D2E/DX2                !
 ! D311  D(44,40,79,39)          6.5985         estimate D2E/DX2                !
 ! D312  D(44,40,79,82)        151.3446         estimate D2E/DX2                !
 ! D313  D(40,41,45,4)        -150.3335         estimate D2E/DX2                !
 ! D314  D(40,41,45,48)          2.8913         estimate D2E/DX2                !
 ! D315  D(80,41,45,4)          -5.7215         estimate D2E/DX2                !
 ! D316  D(80,41,45,48)        147.5032         estimate D2E/DX2                !
 ! D317  D(40,41,80,42)        141.8668         estimate D2E/DX2                !
 ! D318  D(40,41,80,82)         -2.641          estimate D2E/DX2                !
 ! D319  D(45,41,80,42)         -6.6125         estimate D2E/DX2                !
 ! D320  D(45,41,80,82)       -151.1203         estimate D2E/DX2                !
 ! D321  D(38,42,46,4)         147.5486         estimate D2E/DX2                !
 ! D322  D(38,42,46,14)          2.8511         estimate D2E/DX2                !
 ! D323  D(80,42,46,4)          -5.9139         estimate D2E/DX2                !
 ! D324  D(80,42,46,14)       -150.6113         estimate D2E/DX2                !
 ! D325  D(38,42,80,41)       -141.1137         estimate D2E/DX2                !
 ! D326  D(38,42,80,82)         -1.2875         estimate D2E/DX2                !
 ! D327  D(46,42,80,41)         12.2035         estimate D2E/DX2                !
 ! D328  D(46,42,80,82)        152.0298         estimate D2E/DX2                !
 ! D329  D(2,44,47,48)        -148.8432         estimate D2E/DX2                !
 ! D330  D(2,44,47,49)           5.1189         estimate D2E/DX2                !
 ! D331  D(40,44,47,48)          2.8563         estimate D2E/DX2                !
 ! D332  D(40,44,47,49)        156.8184         estimate D2E/DX2                !
 ! D333  D(4,45,48,47)         149.0582         estimate D2E/DX2                !
 ! D334  D(4,45,48,50)          -5.02           estimate D2E/DX2                !
 ! D335  D(41,45,48,47)         -2.7523         estimate D2E/DX2                !
 ! D336  D(41,45,48,50)       -156.8305         estimate D2E/DX2                !
 ! D337  D(44,47,48,45)         -0.1022         estimate D2E/DX2                !
 ! D338  D(44,47,48,50)        153.669          estimate D2E/DX2                !
 ! D339  D(49,47,48,45)       -153.8004         estimate D2E/DX2                !
 ! D340  D(49,47,48,50)         -0.0291         estimate D2E/DX2                !
 ! D341  D(44,47,49,10)         -8.7301         estimate D2E/DX2                !
 ! D342  D(44,47,49,51)       -148.0635         estimate D2E/DX2                !
 ! D343  D(48,47,49,10)        145.6468         estimate D2E/DX2                !
 ! D344  D(48,47,49,51)          6.3134         estimate D2E/DX2                !
 ! D345  D(45,48,50,11)          8.0913         estimate D2E/DX2                !
 ! D346  D(45,48,50,52)        148.3015         estimate D2E/DX2                !
 ! D347  D(47,48,50,11)       -146.3745         estimate D2E/DX2                !
 ! D348  D(47,48,50,52)         -6.1643         estimate D2E/DX2                !
[...]
 Alpha virt. eigenvalues --    1.12817   1.12877   1.13524   1.13779   1.14343
 Alpha virt. eigenvalues --    1.14410   1.14985   1.15196   1.15369   1.15677
 Alpha virt. eigenvalues --    1.15854   1.16339   1.16642   1.16835   1.17078
 Alpha virt. eigenvalues --    1.17095   1.17198   1.17551   1.17990   1.18101
 Alpha virt. eigenvalues --    1.18360   1.18559   1.18845   1.18976   1.19297
 Alpha virt. eigenvalues --    1.19672   1.19851   1.19969   1.20722   1.21135
 Alpha virt. eigenvalues --    1.21343   1.21689   1.22199   1.22221   1.22605
 Alpha virt. eigenvalues --    1.22816   1.23145   1.23484   1.23878   1.24219
 Alpha virt. eigenvalues --    1.24399   1.24904   1.24978   1.25357   1.25419
 Alpha virt. eigenvalues --    1.26272   1.26346   1.26568   1.26989   1.27272
 Alpha virt. eigenvalues --    1.27339   1.27542   1.27971   1.28296   1.28716
 Alpha virt. eigenvalues --    1.28809   1.29130   1.29355   1.29536   1.30038
 Alpha virt. eigenvalues --    1.30397   1.30908   1.31056   1.31244   1.31770
 Alpha virt. eigenvalues --    1.31856   1.32038   1.32331   1.32678   1.33352
 Alpha virt. eigenvalues --    1.33701   1.34430   1.34492   1.34877   1.35140
 Alpha virt. eigenvalues --    1.35459   1.35825   1.36145   1.36787   1.37028
 Alpha virt. eigenvalues --    1.37344   1.38073   1.38843   1.39011   1.39899
 Alpha virt. eigenvalues --    1.40125   1.40857   1.41248   1.41363   1.42227
 Alpha virt. eigenvalues --    1.42674   1.43054   1.43294   1.44040   1.44841
 Alpha virt. eigenvalues --    1.46840   1.47065   1.47317   1.47458   1.47706
 Alpha virt. eigenvalues --    1.47986   1.48423   1.49046   1.49288   1.49477
 Alpha virt. eigenvalues --    1.49990   1.50995   1.51349   1.51783   1.52828
 Alpha virt. eigenvalues --    1.53720   1.54394   1.54564   1.55201   1.55626
 Alpha virt. eigenvalues --    1.55746   1.56510   1.56758   1.57019   1.57436
 Alpha virt. eigenvalues --    1.58152   1.58394   1.58456   1.58693   1.59474
 Alpha virt. eigenvalues --    1.60212   1.60689   1.61145   1.61980   1.62134
 Alpha virt. eigenvalues --    1.62586   1.63551   1.63788   1.64106   1.64449
 Alpha virt. eigenvalues --    1.64616   1.64940   1.65047   1.65501   1.65665
 Alpha virt. eigenvalues --    1.66098   1.66309   1.66482   1.66546   1.66838
 Alpha virt. eigenvalues --    1.67124   1.67413   1.68018   1.68389   1.68552
 Alpha virt. eigenvalues --    1.69159   1.69287   1.69817   1.70005   1.70177
 Alpha virt. eigenvalues --    1.70528   1.70587   1.70729   1.70894   1.71480
 Alpha virt. eigenvalues --    1.71658   1.71911   1.72196   1.72303   1.72330
 Alpha virt. eigenvalues --    1.72909   1.73146   1.73219   1.73423   1.73750
 Alpha virt. eigenvalues --    1.73930   1.74027   1.74323   1.74466   1.74664
 Alpha virt. eigenvalues --    1.74791   1.74939   1.75120   1.75375   1.75639
 Alpha virt. eigenvalues --    1.75969   1.76279   1.76362   1.76701   1.76896
 Alpha virt. eigenvalues --    1.77319   1.77595   1.77797   1.78002   1.78401
 Alpha virt. eigenvalues --    1.78706   1.78919   1.79045   1.79422   1.79647
 Alpha virt. eigenvalues --    1.79824   1.80976   1.81361   1.81547   1.81704
 Alpha virt. eigenvalues --    1.82436   1.82598   1.83044   1.83507   1.84332
 Alpha virt. eigenvalues --    1.84724   1.85574   1.86057   1.86342   1.86903
 Alpha virt. eigenvalues --    1.86986   1.88164   1.88288   1.88674   1.90298
 Alpha virt. eigenvalues --    1.90603   1.91268   1.91639   1.91689   1.91955
 Alpha virt. eigenvalues --    1.92729   1.92965   1.93121   1.93205   1.93777
 Alpha virt. eigenvalues --    1.94276   1.94326   1.94955   1.95233   1.95461
 Alpha virt. eigenvalues --    1.95812   1.95978   1.96661   1.96930   1.97240
 Alpha virt. eigenvalues --    1.97429   1.97547   1.98102   1.98145   1.98260
 Alpha virt. eigenvalues --    1.98396   1.98843   1.98999   1.99241   1.99483
 Alpha virt. eigenvalues --    1.99861   1.99999   2.00209   2.00431   2.00523
 Alpha virt. eigenvalues --    2.00758   2.01018   2.01211   2.01518   2.01645
 Alpha virt. eigenvalues --    2.01780   2.02031   2.02238   2.02498   2.02673
 Alpha virt. eigenvalues --    2.02819   2.02921   2.03057   2.03473   2.03632
 Alpha virt. eigenvalues --    2.03763   2.04183   2.04315   2.04639   2.05058
 Alpha virt. eigenvalues --    2.05344   2.05526   2.05677   2.06642   2.06826
 Alpha virt. eigenvalues --    2.07000   2.07394   2.07655   2.07802   2.08253
 Alpha virt. eigenvalues --    2.09069   2.09461   2.09813   2.11253   2.11490
 Alpha virt. eigenvalues --    2.11715   2.12528   2.12818   2.13515   2.13541
 Alpha virt. eigenvalues --    2.14142   2.14360   2.14848   2.15175   2.15285
 Alpha virt. eigenvalues --    2.16021   2.16460   2.17406   2.17897   2.18395
 Alpha virt. eigenvalues --    2.19252   2.19546   2.20089   2.20367   2.20447
 Alpha virt. eigenvalues --    2.21257   2.21468   2.21827   2.22021   2.22695
 Alpha virt. eigenvalues --    2.23138   2.23219   2.23496   2.23972   2.24338
 Alpha virt. eigenvalues --    2.24637   2.25180   2.25330   2.25816   2.26407
 Alpha virt. eigenvalues --    2.26494   2.27005   2.27648   2.27842   2.28512
 Alpha virt. eigenvalues --    2.28722   2.28793   2.29321   2.29712   2.29843
 Alpha virt. eigenvalues --    2.30368   2.30525   2.30938   2.31481   2.32014
 Alpha virt. eigenvalues --    2.32571   2.32632   2.33322   2.33901   2.34278
 Alpha virt. eigenvalues --    2.34553   2.35005   2.35581   2.36009   2.36827
 Alpha virt. eigenvalues --    2.37623   2.39127   2.39906   2.40018   2.40452
 Alpha virt. eigenvalues --    2.40714   2.41213   2.41949   2.42384   2.42824
 Alpha virt. eigenvalues --    2.43055   2.43510   2.44348   2.44489   2.45207
 Alpha virt. eigenvalues --    2.45724   2.46109   2.46695   2.47131   2.47901
 Alpha virt. eigenvalues --    2.48240   2.48754   2.49757   2.50660   2.51030
 Alpha virt. eigenvalues --    2.51383   2.52041   2.52141   2.52770   2.53415
 Alpha virt. eigenvalues --    2.53610   2.53869   2.54072   2.54823   2.54908
 Alpha virt. eigenvalues --    2.55704   2.55865   2.56025   2.56450   2.56764
 Alpha virt. eigenvalues --    2.56883   2.57441   2.57743   2.57943   2.58245
 Alpha virt. eigenvalues --    2.58374   2.58935   2.59042   2.59263   2.59405
 Alpha virt. eigenvalues --    2.59709   2.59804   2.60185   2.60465   2.60578
 Alpha virt. eigenvalues --    2.61114   2.61611   2.62076   2.62636   2.62809
 Alpha virt. eigenvalues --    2.63404   2.63738   2.64203   2.64431   2.64526
 Alpha virt. eigenvalues --    2.64856   2.65163   2.65590   2.66137   2.66254
 Alpha virt. eigenvalues --    2.66423   2.66580   2.67475   2.67629   2.67894
 Alpha virt. eigenvalues --    2.68017   2.68220   2.68607   2.68856   2.69112
 Alpha virt. eigenvalues --    2.69527   2.69913   2.70066   2.70397   2.70724
 Alpha virt. eigenvalues --    2.71041   2.72399   2.72576   2.72807   2.73751
 Alpha virt. eigenvalues --    2.74182   2.74649   2.76134   2.76867   2.77329
 Alpha virt. eigenvalues --    2.77576   2.78014   2.78561   2.78867   2.79267
 Alpha virt. eigenvalues --    2.80077   2.80492   2.80651   2.81204   2.81653
 Alpha virt. eigenvalues --    2.81998   2.82189   2.82413   2.82970   2.83141
 Alpha virt. eigenvalues --    2.83651   2.83799   2.84053   2.84200   2.84818
 Alpha virt. eigenvalues --    2.85395   2.85485   2.86088   2.86942   2.87206
 Alpha virt. eigenvalues --    2.88047   2.88365   2.88540   2.89273   2.89541
 Alpha virt. eigenvalues --    2.90442   2.90845   2.91100   2.91336   2.91728
 Alpha virt. eigenvalues --    2.91940   2.92094   2.93040   2.93321   2.93390
 Alpha virt. eigenvalues --    2.94052   2.94726   2.95247   2.95688   2.96285
 Alpha virt. eigenvalues --    2.96469   2.97233   2.97929   2.98508   2.99768
 Alpha virt. eigenvalues --    3.00305   3.00626   3.01447   3.02133   3.02712
 Alpha virt. eigenvalues --    3.04279   3.05125   3.06170   3.07278   3.08610
 Alpha virt. eigenvalues --    3.09978   3.12480   3.13048   3.14201   3.16217
 Alpha virt. eigenvalues --    3.17894   3.18996   3.19671   3.22465   3.23584
 Alpha virt. eigenvalues --    3.26040   3.27756   3.29479   3.29805   3.30622
 Alpha virt. eigenvalues --    3.32495   3.34370   3.35106   3.36295   3.37526
 Alpha virt. eigenvalues --    3.39203   3.41532   3.41742   3.43110   3.44902
 Alpha virt. eigenvalues --    3.46746   3.48675   3.50829   3.52935   3.54344
 Alpha virt. eigenvalues --    3.57428   3.60486   3.61987   4.00366   4.01491
 Alpha virt. eigenvalues --    4.01832   4.01928   4.02710   4.03901   4.04662
 Alpha virt. eigenvalues --    4.04993   4.05418   4.06645   4.06683   4.06968
 Alpha virt. eigenvalues --    4.07137   4.07605   4.08548   4.08643   4.09778
 Alpha virt. eigenvalues --    4.10275   4.11070   4.11843   4.13004   4.13404
 Alpha virt. eigenvalues --    4.13456   4.14504   4.15151   4.16661   4.17775
 Alpha virt. eigenvalues --    4.19453   4.20811   4.20962   4.21394   4.21595
 Alpha virt. eigenvalues --    4.22057   4.23083   4.23483   4.23911   4.27052
 Alpha virt. eigenvalues --    4.27384   4.28853   4.29221   4.29588   4.30390
 Alpha virt. eigenvalues --    4.31085   4.31971   4.34320   4.35234   4.37144
 Alpha virt. eigenvalues --    4.38727   4.40554   4.41878   4.42292   4.45204
 Alpha virt. eigenvalues --    4.46690   4.48492   4.48821   4.49879   4.51436
 Alpha virt. eigenvalues --    4.53052   4.54994   4.55680   4.58169   4.59327
 Alpha virt. eigenvalues --    4.61425   4.62422   4.65877   4.66817   4.67277
 Alpha virt. eigenvalues --    4.67732   4.70887   4.74418   4.76790   4.81540
 Alpha virt. eigenvalues --    4.84620   4.85339   4.88412   4.89854   4.91713
 Alpha virt. eigenvalues --    4.96261   5.01184   5.02266   5.07739   5.13248
 Alpha virt. eigenvalues --    5.16693   5.17990   5.23553   5.29487
          Condensed to atoms (all electrons):
 Mulliken charges:
               1
     1  C   -0.359056
     2  C   -0.022752
     3  C   -0.022667
     4  C   -0.025689
     5  C    0.049024
     6  C   -0.019336
     7  C   -0.019754
     8  C   -0.016513
     9  C    0.068093
    10  C   -0.003316
    11  C   -0.004280
    12  C    0.053712
    13  C   -0.039618
    14  C   -0.028308
    15  C    0.005757
    16  C   -0.023406
    17  C    0.129714
    18  C    0.054313
    19  C    0.128425
    20  C    0.057055
    21  C   -0.357450
    22  C   -0.023159
    23  C    0.091379
    24  C   -0.017684
    25  C    0.092499
    26  C   -0.009077
    27  C    0.007209
    28  C   -0.024197
    29  C    0.021957
    30  C   -0.018790
    31  C   -0.025067
    32  C   -0.012045
    33  C   -0.021485
    34  C   -0.022564
    35  C    0.037689
    36  C    0.042512
    37  C    0.047175
    38  C    0.045563
    39  C    0.053730
    40  C   -0.031192
    41  C   -0.030468
    42  C    0.054743
    43  C   -0.030118
    44  C    0.056747
    45  C    0.056466
    46  C   -0.033772
    47  C    0.049074
    48  C    0.049112
    49  C   -0.023974
    50  C   -0.024639
    51  C   -0.008031
    52  C   -0.013418
    53  C    0.010275
    54  C   -0.021657
    55  C   -0.030965
    56  C   -0.017462
    57  C    0.052058
    58  C   -0.020275
    59  C    0.027234
    60  C   -0.025833
    61  C    0.004954
    62  C   -0.022680
    63  C    0.032016
    64  C    0.046501
    65  C    0.031658
    66  C    0.041420
    67  C    0.043334
    68  C    0.039018
    69  C   -0.021684
    70  C   -0.023934
    71  C   -0.008313
    72  C   -0.002964
    73  C   -0.005903
    74  C   -0.004864
    75  C   -0.003481
    76  C   -0.005293
    77  C   -0.024868
    78  C   -0.024373
    79  C   -0.021553
    80  C   -0.024071
    81  C   -0.002881
    82  C   -0.021377
    83  C    0.068890
    84  C    0.052733
    85  Cl  -0.022310
    86  Cl  -0.033472
 Sum of Mulliken charges =  -0.00000
 Mulliken charges with hydrogens summed into heavy atoms:
               1
     1  C   -0.359056
     2  C   -0.022752
     3  C   -0.022667
     4  C   -0.025689
     5  C    0.049024
     6  C   -0.019336
     7  C   -0.019754
     8  C   -0.016513
     9  C    0.068093
    10  C   -0.003316
    11  C   -0.004280
    12  C    0.053712
    13  C   -0.039618
    14  C   -0.028308
    15  C    0.005757
    16  C   -0.023406
    17  C    0.129714
    18  C    0.054313
    19  C    0.128425
    20  C    0.057055
    21  C   -0.357450
    22  C   -0.023159
    23  C    0.091379
    24  C   -0.017684
    25  C    0.092499
    26  C   -0.009077
    27  C    0.007209
    28  C   -0.024197
    29  C    0.021957
    30  C   -0.018790
    31  C   -0.025067
    32  C   -0.012045
    33  C   -0.021485
    34  C   -0.022564
    35  C    0.037689
    36  C    0.042512
    37  C    0.047175
    38  C    0.045563
    39  C    0.053730
    40  C   -0.031192
    41  C   -0.030468
    42  C    0.054743
    43  C   -0.030118
    44  C    0.056747
    45  C    0.056466
    46  C   -0.033772
    47  C    0.049074
    48  C    0.049112
    49  C   -0.023974
    50  C   -0.024639
    51  C   -0.008031
    52  C   -0.013418
    53  C    0.010275
    54  C   -0.021657
    55  C   -0.030965
    56  C   -0.017462
    57  C    0.052058
    58  C   -0.020275
    59  C    0.027234
    60  C   -0.025833
    61  C    0.004954
    62  C   -0.022680
    63  C    0.032016
    64  C    0.046501
    65  C    0.031658
    66  C    0.041420
    67  C    0.043334
    68  C    0.039018
    69  C   -0.021684
    70  C   -0.023934
    71  C   -0.008313
    72  C   -0.002964
    73  C   -0.005903
    74  C   -0.004864
    75  C   -0.003481
    76  C   -0.005293
    77  C   -0.024868
    78  C   -0.024373
    79  C   -0.021553
    80  C   -0.024071
    81  C   -0.002881
    82  C   -0.021377
    83  C    0.068890
    84  C    0.052733
    85  Cl  -0.022310
    86  Cl  -0.033472
 Electronic spatial extent (au):  <R**2>=          37658.0084
 Charge=             -0.0000 electrons
 Dipole moment (field-independent basis, Debye):
    X=              3.5611    Y=              0.3847    Z=              0.0459  Tot=              3.5821
 Quadrupole moment (field-independent basis, Debye-Ang):
   XX=           -504.4162   YY=           -477.4412   ZZ=           -475.3735
   XY=             -4.1217   XZ=             -1.8615   YZ=              1.9620
 Traceless Quadrupole moment (field-independent basis, Debye-Ang):
   XX=            -18.6726   YY=              8.3024   ZZ=             10.3701
   XY=             -4.1217   XZ=             -1.8615   YZ=              1.9620
 Octapole moment (field-independent basis, Debye-Ang**2):
  XXX=             79.8080  YYY=             -2.9721  ZZZ=             -9.1051  XYY=             -7.9228
  XXY=              4.6468  XXZ=              7.1738  XZZ=            -33.3762  YZZ=             -1.3764
  YYZ=              2.2166  XYZ=             -4.3783
 Hexadecapole moment (field-independent basis, Debye-Ang**3):
 XXXX=         -23033.0974 YYYY=         -18193.1944 ZZZZ=         -15147.8064 XXXY=            -23.0539
 XXXZ=            -50.0885 YYYX=             -7.2754 YYYZ=             -0.9957 ZZZX=             43.2595
 ZZZY=             22.5203 XXYY=          -6835.8604 XXZZ=          -6246.7396 YYZZ=          -5560.4696
 XXYZ=             15.1363 YYXZ=              5.2331 ZZXY=             13.6858
 N-N= 1.558798743222D+04 E-N=-4.076919739071D+04  KE= 4.088602652989D+03
 No NMR shielding tensors so no spin-rotation constants.
 Leave Link  601 at Mon Jun 27 22:46:34 2022, MaxMem=  1342177280 cpu:              22.2 elap:               1.1
 (Enter /home/mkliu/g16/l9999.exe)
 1\1\GINC-NODE01\FOpt\RB3LYP\6-31G(d,p)\C84Cl2\MKLIU\27-Jun-2022\0\\#P 
 opt b3lyp/6-31G(d, p) empiricaldispersion=GD3\\force\\0,1\C,8.20563354
 11,18.6087590804,10.6005800551\C,12.2929633672,20.1540369089,8.9523962
 142\C,8.268952221,26.9284339671,10.5348150744\C,12.2957245799,25.61508
 79629,8.9488941442\C,7.9421680772,18.8838686185,9.1207802927\C,11.8614
 753094,19.578389898,10.1981433073\C,7.9539244849,26.884914715,9.137701
 2964\C,11.8660706001,26.1953233586,10.1948169763\C,8.935906929,19.0641
 597642,8.1468976691\C,12.1291806897,20.2259578733,11.3751652798\C,12.1
 345319952,25.54833771,11.3763287596\C,8.9536981725,26.7105909388,8.140
 4104318\C,10.2891236593,19.0057577139,8.6200074161\C,10.2903850023,26.
 7649179776,8.6062177746\C,10.6024481928,18.9067788363,10.0060201366\C,
 10.6083051425,26.877186357,9.9943606459\C,9.6181051147,18.9490975578,1
 1.0286668257\C,9.6057802185,26.8577105753,11.0035627845\C,9.8836136062
 ,19.6131765304,12.238282311\C,9.8816322841,26.1574868175,12.2668011881
 \C,8.7693199014,20.0565829646,13.1646226925\C,8.8053860547,25.55578800
 56,12.9668951733\C,7.4564724837,20.1956702611,12.415579309\C,7.4718659
 152,25.563825555,12.4095505379\C,7.1953673252,19.5300384149,11.2616791
 28\C,7.2100621955,26.2345005364,11.2377959464\C,6.3396838754,20.123153
 8778,10.2936768891\C,6.2899721251,25.6773680689,10.2880202928\C,6.7151
 969837,19.5798098376,9.0126215727\C,6.6822128115,26.2133323574,9.00967
 04583\C,6.3808649198,20.2469081564,7.8599241377\C,6.3747532261,25.5410
 398399,7.8648173659\C,7.3088115079,20.2907024391,6.7618685194\C,7.3169
 940009,25.4910366714,6.7585115257\C,8.6424949973,19.8349909485,6.93431
 54571\C,8.6504624915,25.9420783944,6.9251621669\C,9.7107029977,20.5792
 315721,6.2624864736\C,9.7177603724,25.1926551359,6.2563524422\C,11.059
 8591443,20.5663829937,6.834234824\C,12.7629414135,22.1556590012,7.7277
 972361\C,12.7662739815,23.610365605,7.7238868471\C,11.0701612996,25.20
 31015351,6.8285004236\C,11.3275390156,19.7620353645,7.9642840793\C,12.
 9313074117,21.4219429342,8.9217723945\C,12.9306556747,24.34445679,8.91
 83537783\C,11.338372937,26.0042577489,7.9536359442\C,13.1770801794,22.
 1482691813,10.1756652751\C,13.1749207232,23.618984855,10.1743206575\C,
 12.8491730978,21.4865933643,11.3752853464\C,12.8450033271,24.282960135
 7,11.3734755649\C,12.3928954363,22.1934869728,12.5402142393\C,12.39046
 83333,23.5697557659,12.5376053082\C,11.1479967991,20.2362156912,12.434
 2929921\C,11.1547398487,25.5363226514,12.4437358015\C,11.3139068251,21
 .4494393346,13.1590895479\C,11.3080965795,24.3086313596,13.1570231071\
 C,8.9655963623,21.4733002723,13.6955549931\C,8.9624504198,24.312434848
 3,13.6739592595\C,7.7610614663,22.1999344303,13.5115193229\C,7.7375096
 13,23.578716032,13.5294266279\C,6.8862272714,21.4836940966,12.61495507
 86\C,6.848359488,24.2900501909,12.6463579509\C,6.1170563936,22.1605492
 714,11.627322931\C,6.1032982931,23.6226727373,11.6407507564\C,5.819258
 6862,21.4403152619,10.4081931403\C,5.795218109,24.3522308954,10.408771
 7527\C,5.4771766624,22.1627267204,9.1807510265\C,5.4694220715,23.62376
 78081,9.1830613837\C,5.6577404927,21.4944667878,7.9383967816\C,5.65225
 13661,24.2933763626,7.9378596671\C,5.955383231,22.2034372208,6.7260659
 569\C,5.9587341126,23.5844039105,6.7298490114\C,6.9895636149,21.472486
 989,6.010354946\C,6.9950923544,24.3145264719,6.0131218802\C,7.99956267
 51,22.1618265479,5.3627966708\C,8.003646292,23.6177070044,5.3619250728
 \C,9.3539263443,21.6987330623,5.4679200995\C,9.3561492707,24.072961879
 1,5.4650554309\C,11.9030400392,21.7047393156,6.6809264803\C,11.9103955
 926,24.0589669407,6.6766095268\C,10.194430466,22.8824505798,5.41215169
 09\C,11.4283013211,22.8819729791,6.0009908497\C,10.1951632092,22.14666
 46089,13.7344272144\C,10.201198868,23.6197275335,13.7243302846\Cl,7.86
 77831563,16.8139309101,10.9851791477\Cl,8.6184151262,18.8566329453,14.
 5954241392\\Version=ES64L-G16RevA.03\State=1-A\HF=-4121.3994727\RMSD=7
 .897e-09\RMSF=8.338e-05\Dipole=0.144714,1.198667,-0.7269293\Quadrupole
 =8.1797465,-9.0702245,0.890478,-2.585981,2.4759322,8.4123039\PG=C01 [X
 (C84Cl2)]\\@


 THERE IS NO SCIENCE WITHOUT FANCY, NOR ART WITHOUT FACTS.
     -- VLADIMIR NABAKOV
 Job cpu time:       1 days  2 hours 40 minutes 57.1 seconds.
 Elapsed time:       0 days  1 hours  6 minutes 48.6 seconds.
 File lengths (MBytes):  RWF=   1037 Int=      0 D2E=      0 Chk=    130 Scr=      1
 Normal termination of Gaussian 16 at Mon Jun 27 22:46:34 2022.
