 Entering Gaussian System, Link 0=g16
 Input=2_addons_C84_14_Cl22_rank_2.gjf
 Output=2_addons_C84_14_Cl22_rank_2.log
 Initial command:
 /home/mkliu/g16/l1.exe "/data/scratch/Gau-118569.inp" -scrdir="/data/scratch/"
 Entering Link 1 = /home/mkliu/g16/l1.exe PID=    118570.
  
 Copyright (c) 1988,1990,1992,1993,1995,1998,2003,2009,2016,
            Gaussian, Inc.  All Rights Reserved.
  
 This is part of the Gaussian(R) 16 program.  It is based on
 the Gaussian(R) 09 system (copyright 2009, Gaussian, Inc.),
 the Gaussian(R) 03 system (copyright 2003, Gaussian, Inc.),
 the Gaussian(R) 98 system (copyright 1998, Gaussian, Inc.),
 the Gaussian(R) 94 system (copyright 1995, Gaussian, Inc.),
 the Gaussian 92(TM) system (copyright 1992, Gaussian, Inc.),
 the Gaussian 90(TM) system (copyright 1990, Gaussian, Inc.),
 the Gaussian 88(TM) system (copyright 1988, Gaussian, Inc.),
 the Gaussian 86(TM) system (copyright 1986, Carnegie Mellon
 University), and the Gaussian 82(TM) system (copyright 1983,
 Carnegie Mellon University). Gaussian is a federally registered
 trademark of Gaussian, Inc.
  
 This software contains proprietary and confidential information,
 including trade secrets, belonging to Gaussian, Inc.
  
 This software is provided under written license and may be
 used, copied, transmitted, or stored only in accord with that
 written license.
  
 The following legend is applicable only to US Government
 contracts under FAR:
  
                    RESTRICTED RIGHTS LEGEND
  
 Use, reproduction and disclosure by the US Government is
 subject to restrictions as set forth in subparagraphs (a)
 and (c) of the Commercial Computer Software - Restricted
 Rights clause in FAR 52.227-19.
  
 Gaussian, Inc.
 340 Quinnipiac St., Bldg. 40, Wallingford CT 06492
  
  
 ---------------------------------------------------------------
 Warning -- This program may not be used in any manner that
 competes with the business of Gaussian, Inc. or will provide
 assistance to any competitor of Gaussian, Inc.  The licensee
 of this program is prohibited from giving any competitor of
 Gaussian, Inc. access to this program.  By using this program,
 the user acknowledges that Gaussian, Inc. is engaged in the
 business of creating and licensing software in the field of
 computational chemistry and represents and warrants to the
 licensee that it is not a competitor of Gaussian, Inc. and that
 it will not use this program in any manner prohibited above.
 ---------------------------------------------------------------
  

 Cite this work as:
 Gaussian 16, Revision A.03,
 M. J. Frisch, G. W. Trucks, H. B. Schlegel, G. E. Scuseria, 
 M. A. Robb, J. R. Cheeseman, G. Scalmani, V. Barone, 
 G. A. Petersson, H. Nakatsuji, X. Li, M. Caricato, A. V. Marenich, 
 J. Bloino, B. G. Janesko, R. Gomperts, B. Mennucci, H. P. Hratchian, 
 J. V. Ortiz, A. F. Izmaylov, J. L. Sonnenberg, D. Williams-Young, 
 F. Ding, F. Lipparini, F. Egidi, J. Goings, B. Peng, A. Petrone, 
 T. Henderson, D. Ranasinghe, V. G. Zakrzewski, J. Gao, N. Rega, 
 G. Zheng, W. Liang, M. Hada, M. Ehara, K. Toyota, R. Fukuda, 
 J. Hasegawa, M. Ishida, T. Nakajima, Y. Honda, O. Kitao, H. Nakai, 
 T. Vreven, K. Throssell, J. A. Montgomery, Jr., J. E. Peralta, 
 F. Ogliaro, M. J. Bearpark, J. J. Heyd, E. N. Brothers, K. N. Kudin, 
 V. N. Staroverov, T. A. Keith, R. Kobayashi, J. Normand, 
 K. Raghavachari, A. P. Rendell, J. C. Burant, S. S. Iyengar, 
 J. Tomasi, M. Cossi, J. M. Millam, M. Klene, C. Adamo, R. Cammi, 
 J. W. Ochterski, R. L. Martin, K. Morokuma, O. Farkas, 
 J. B. Foresman, and D. J. Fox, Gaussian, Inc., Wallingford CT, 2016.
 
 ******************************************
 Gaussian 16:  ES64L-G16RevA.03 25-Dec-2016
                28-Jun-2022 
 ******************************************
 %mem=10GB
 %chk=2_addons_C84_14_Cl22_rank_2.chk
 %nprocshared=24
 Will use up to   24 processors via shared memory.
 ------------------------------------------------
 #P opt b3lyp/6-31G(d, p) empiricaldispersion=GD3
 ------------------------------------------------
 1/18=20,19=15,26=3,38=1/1,3;
 2/9=110,12=2,17=6,18=5,40=1/2;
 3/5=1,6=6,7=101,11=2,25=1,30=1,71=1,74=-5,124=31/1,2,3;
 4//1;
 5/5=2,38=5/2;
 6/7=2,8=2,9=2,10=2,28=1/1;
 7//1,2,3,16;
 1/18=20,19=15,26=3/3(2);
 2/9=110/2;
 99//99;
 2/9=110/2;
 3/5=1,6=6,7=101,11=2,25=1,30=1,71=1,74=-5,124=31/1,2,3;
 4/5=5,16=3,69=1/1;
 5/5=2,38=5/2;
 7//1,2,3,16;
 1/18=20,19=15,26=3/3(-5);
 2/9=110/2;
 6/7=2,8=2,9=2,10=2,19=2,28=1/1;
 99/9=1/99;
 Leave Link    1 at Tue Jun 28 22:23:27 2022, MaxMem=  1342177280 cpu:               0.7 elap:               0.0
 (Enter /home/mkliu/g16/l101.exe)
 -----
 force
 -----
 Symbolic Z-matrix:
 Charge =  0 Multiplicity = 1
 C                     8.27385   18.88339   10.53766 
 C                     12.46891   20.00621   8.90293 
 C                     8.27235   26.89173   10.54321 
 C                     12.25988   25.58441   8.97037 
 C                     7.9559    18.92744   9.15685 
 C                     11.86317   19.57114   10.20341 
 C                     7.95989   26.84478   9.16082 
 C                     11.84136   26.17389   10.20737 
 C                     8.94087   19.11968   8.16179 
 C                     12.11422   20.23082   11.36504 
 C                     12.11252   25.5311   11.38415 
 C                     8.94719   26.67132   8.16163 
 C                     10.26924   19.08197   8.62437 
 C                     10.2703   26.73017   8.63211 
 C                     10.59519   18.9579   9.99982 
 C                     10.58645   26.84719   10.00932 
 C                     9.60025   18.95546   11.00784 
 C                     9.59764   26.83092   11.01823 
 C                     9.87517   19.63583   12.2534 
 C                     9.87533   26.1373   12.26482 
 C                     8.80962   20.24497   12.95323 
 C                     8.80926   25.52148   12.95655 
 C                     7.47941   20.23614   12.39921 
 C                     7.47781   25.52752   12.40036 
 C                     7.21482   19.5627   11.23936 
 C                     7.21441   26.1998   11.2411 
 C                     6.29527   20.12547   10.29915 
 C                     6.30021   25.63537   10.29914 
 C                     6.68649   19.58909   9.03414 
 C                     6.69595   26.17171   9.03684 
 C                     6.37895   20.25851   7.888 
 C                     6.39217   25.50152   7.88995 
 C                     7.31322   20.30431   6.79081 
 C                     7.32779   25.45957   6.79566 
 C                     8.64405   19.86816   6.966 
 C                     8.65      25.91259   6.96035 
 C                     9.7005    20.6056   6.31197 
 C                     9.70418   25.16906   6.30133 
 C                     11.03568   20.57555   6.86774 
 C                     12.74786   22.14919   7.7704 
 C                     12.70454   23.57752   7.77398 
 C                     11.03028   25.16562   6.86971 
 C                     11.30314   19.80275   7.95699 
 C                     12.90417   21.45039   8.92769 
 C                     12.88764   24.31576   8.95276 
 C                     11.30859   25.95992   7.99051 
 C                     13.12518   22.16089   10.17068 
 C                     13.13423   23.60527   10.17895 
 C                     12.82763   21.4946   11.3697 
 C                     12.81946   24.27557   11.38039 
 C                     12.37137   22.195    12.51717 
 C                     12.3711   23.57326   12.52565 
 C                     11.134    20.25324   12.41874 
 C                     11.13537   25.52268   12.44462 
 C                     11.29168   21.46816   13.13504 
 C                     11.28997   24.3009   13.14929 
 C                     8.96592   21.46854   13.65139 
 C                     8.96449   24.29638   13.65129 
 C                     7.73136   22.19835   13.51169 
 C                     7.72992   23.56466   13.51058 
 C                     6.84669   21.49701   12.63245 
 C                     6.84683   24.26511   12.632 
 C                     6.09205   22.15767   11.63982 
 C                     6.09157   23.60372   11.63917 
 C                     5.79532   21.43728   10.42055 
 C                     5.79704   24.32285   10.42055 
 C                     5.47518   22.15708   9.20397 
 C                     5.47816   23.60443   9.20508 
 C                     5.66184   21.49724   7.96976 
 C                     5.67187   24.26412   7.97088 
 C                     5.96771   22.19381   6.75835 
 C                     5.97287   23.56739   6.76099 
 C                     6.9922    21.46646   6.04724 
 C                     7.0052    24.28967   6.05242 
 C                     8.00676   22.15371   5.39473 
 C                     8.00864   23.59714   5.4027 
 C                     9.34381   21.69445   5.49455 
 C                     9.35333   24.05149   5.51969 
 C                     12.06273   21.62649   6.52543 
 C                     11.85452   24.01954   6.72792 
 C                     10.18717   22.87884   5.44768 
 C                     11.424    22.87704   6.00631 
 C                     10.19893   22.15473   13.70756 
 C                     10.19776   23.60937   13.71241 
 Cl                    13.26688   20.94445   5.35056 
 Cl                    13.87396   18.95215   8.43954 
 
 ITRead=  0  0  0  0  0  0  0  0  0  0  0  0  0  0  0  0  0  0  0  0
 ITRead=  0  0  0  0  0  0  0  0  0  0  0  0  0  0  0  0  0  0  0  0
 ITRead=  0  0  0  0  0  0  0  0  0  0  0  0  0  0  0  0  0  0  0  0
 ITRead=  0  0  0  0  0  0  0  0  0  0  0  0  0  0  0  0  0  0  0  0
 ITRead=  0  0  0  0  0  0
 MicOpt= -1 -1 -1 -1 -1 -1 -1 -1 -1 -1 -1 -1 -1 -1 -1 -1 -1 -1 -1 -1
 MicOpt= -1 -1 -1 -1 -1 -1 -1 -1 -1 -1 -1 -1 -1 -1 -1 -1 -1 -1 -1 -1
 MicOpt= -1 -1 -1 -1 -1 -1 -1 -1 -1 -1 -1 -1 -1 -1 -1 -1 -1 -1 -1 -1
 MicOpt= -1 -1 -1 -1 -1 -1 -1 -1 -1 -1 -1 -1 -1 -1 -1 -1 -1 -1 -1 -1
 MicOpt= -1 -1 -1 -1 -1 -1
 NAtoms=     86 NQM=       86 NQMF=       0 NMMI=      0 NMMIF=      0
                NMic=       0 NMicF=      0.
                    Isotopes and Nuclear Properties:
 (Nuclear quadrupole moments (NQMom) in fm**2, nuclear magnetic moments (NMagM)
  in nuclear magnetons)

  Atom         1           2           3           4           5           6           7           8           9          10
 IAtWgt=          12          12          12          12          12          12          12          12          12          12
 AtmWgt=  12.0000000  12.0000000  12.0000000  12.0000000  12.0000000  12.0000000  12.0000000  12.0000000  12.0000000  12.0000000
 NucSpn=           0           0           0           0           0           0           0           0           0           0
 AtZEff=  -0.0000000  -0.0000000  -0.0000000  -0.0000000  -0.0000000  -0.0000000  -0.0000000  -0.0000000  -0.0000000  -0.0000000
 NQMom=    0.0000000   0.0000000   0.0000000   0.0000000   0.0000000   0.0000000   0.0000000   0.0000000   0.0000000   0.0000000
 NMagM=    0.0000000   0.0000000   0.0000000   0.0000000   0.0000000   0.0000000   0.0000000   0.0000000   0.0000000   0.0000000
 AtZNuc=   6.0000000   6.0000000   6.0000000   6.0000000   6.0000000   6.0000000   6.0000000   6.0000000   6.0000000   6.0000000

  Atom        11          12          13          14          15          16          17          18          19          20
 IAtWgt=          12          12          12          12          12          12          12          12          12          12
 AtmWgt=  12.0000000  12.0000000  12.0000000  12.0000000  12.0000000  12.0000000  12.0000000  12.0000000  12.0000000  12.0000000
 NucSpn=           0           0           0           0           0           0           0           0           0           0
 AtZEff=  -0.0000000  -0.0000000  -0.0000000  -0.0000000  -0.0000000  -0.0000000  -0.0000000  -0.0000000  -0.0000000  -0.0000000
 NQMom=    0.0000000   0.0000000   0.0000000   0.0000000   0.0000000   0.0000000   0.0000000   0.0000000   0.0000000   0.0000000
 NMagM=    0.0000000   0.0000000   0.0000000   0.0000000   0.0000000   0.0000000   0.0000000   0.0000000   0.0000000   0.0000000
 AtZNuc=   6.0000000   6.0000000   6.0000000   6.0000000   6.0000000   6.0000000   6.0000000   6.0000000   6.0000000   6.0000000

  Atom        21          22          23          24          25          26          27          28          29          30
 IAtWgt=          12          12          12          12          12          12          12          12          12          12
 AtmWgt=  12.0000000  12.0000000  12.0000000  12.0000000  12.0000000  12.0000000  12.0000000  12.0000000  12.0000000  12.0000000
 NucSpn=           0           0           0           0           0           0           0           0           0           0
 AtZEff=  -0.0000000  -0.0000000  -0.0000000  -0.0000000  -0.0000000  -0.0000000  -0.0000000  -0.0000000  -0.0000000  -0.0000000
 NQMom=    0.0000000   0.0000000   0.0000000   0.0000000   0.0000000   0.0000000   0.0000000   0.0000000   0.0000000   0.0000000
 NMagM=    0.0000000   0.0000000   0.0000000   0.0000000   0.0000000   0.0000000   0.0000000   0.0000000   0.0000000   0.0000000
 AtZNuc=   6.0000000   6.0000000   6.0000000   6.0000000   6.0000000   6.0000000   6.0000000   6.0000000   6.0000000   6.0000000

  Atom        31          32          33          34          35          36          37          38          39          40
 IAtWgt=          12          12          12          12          12          12          12          12          12          12
 AtmWgt=  12.0000000  12.0000000  12.0000000  12.0000000  12.0000000  12.0000000  12.0000000  12.0000000  12.0000000  12.0000000
 NucSpn=           0           0           0           0           0           0           0           0           0           0
 AtZEff=  -0.0000000  -0.0000000  -0.0000000  -0.0000000  -0.0000000  -0.0000000  -0.0000000  -0.0000000  -0.0000000  -0.0000000
 NQMom=    0.0000000   0.0000000   0.0000000   0.0000000   0.0000000   0.0000000   0.0000000   0.0000000   0.0000000   0.0000000
 NMagM=    0.0000000   0.0000000   0.0000000   0.0000000   0.0000000   0.0000000   0.0000000   0.0000000   0.0000000   0.0000000
 AtZNuc=   6.0000000   6.0000000   6.0000000   6.0000000   6.0000000   6.0000000   6.0000000   6.0000000   6.0000000   6.0000000

  Atom        41          42          43          44          45          46          47          48          49          50
 IAtWgt=          12          12          12          12          12          12          12          12          12          12
 AtmWgt=  12.0000000  12.0000000  12.0000000  12.0000000  12.0000000  12.0000000  12.0000000  12.0000000  12.0000000  12.0000000
 NucSpn=           0           0           0           0           0           0           0           0           0           0
 AtZEff=  -0.0000000  -0.0000000  -0.0000000  -0.0000000  -0.0000000  -0.0000000  -0.0000000  -0.0000000  -0.0000000  -0.0000000
 NQMom=    0.0000000   0.0000000   0.0000000   0.0000000   0.0000000   0.0000000   0.0000000   0.0000000   0.0000000   0.0000000
 NMagM=    0.0000000   0.0000000   0.0000000   0.0000000   0.0000000   0.0000000   0.0000000   0.0000000   0.0000000   0.0000000
 AtZNuc=   6.0000000   6.0000000   6.0000000   6.0000000   6.0000000   6.0000000   6.0000000   6.0000000   6.0000000   6.0000000

  Atom        51          52          53          54          55          56          57          58          59          60
 IAtWgt=          12          12          12          12          12          12          12          12          12          12
 AtmWgt=  12.0000000  12.0000000  12.0000000  12.0000000  12.0000000  12.0000000  12.0000000  12.0000000  12.0000000  12.0000000
 NucSpn=           0           0           0           0           0           0           0           0           0           0
 AtZEff=  -0.0000000  -0.0000000  -0.0000000  -0.0000000  -0.0000000  -0.0000000  -0.0000000  -0.0000000  -0.0000000  -0.0000000
 NQMom=    0.0000000   0.0000000   0.0000000   0.0000000   0.0000000   0.0000000   0.0000000   0.0000000   0.0000000   0.0000000
 NMagM=    0.0000000   0.0000000   0.0000000   0.0000000   0.0000000   0.0000000   0.0000000   0.0000000   0.0000000   0.0000000
 AtZNuc=   6.0000000   6.0000000   6.0000000   6.0000000   6.0000000   6.0000000   6.0000000   6.0000000   6.0000000   6.0000000

  Atom        61          62          63          64          65          66          67          68          69          70
 IAtWgt=          12          12          12          12          12          12          12          12          12          12
 AtmWgt=  12.0000000  12.0000000  12.0000000  12.0000000  12.0000000  12.0000000  12.0000000  12.0000000  12.0000000  12.0000000
 NucSpn=           0           0           0           0           0           0           0           0           0           0
 AtZEff=  -0.0000000  -0.0000000  -0.0000000  -0.0000000  -0.0000000  -0.0000000  -0.0000000  -0.0000000  -0.0000000  -0.0000000
 NQMom=    0.0000000   0.0000000   0.0000000   0.0000000   0.0000000   0.0000000   0.0000000   0.0000000   0.0000000   0.0000000
 NMagM=    0.0000000   0.0000000   0.0000000   0.0000000   0.0000000   0.0000000   0.0000000   0.0000000   0.0000000   0.0000000
 AtZNuc=   6.0000000   6.0000000   6.0000000   6.0000000   6.0000000   6.0000000   6.0000000   6.0000000   6.0000000   6.0000000

  Atom        71          72          73          74          75          76          77          78          79          80
 IAtWgt=          12          12          12          12          12          12          12          12          12          12
 AtmWgt=  12.0000000  12.0000000  12.0000000  12.0000000  12.0000000  12.0000000  12.0000000  12.0000000  12.0000000  12.0000000
 NucSpn=           0           0           0           0           0           0           0           0           0           0
 AtZEff=  -0.0000000  -0.0000000  -0.0000000  -0.0000000  -0.0000000  -0.0000000  -0.0000000  -0.0000000  -0.0000000  -0.0000000
 NQMom=    0.0000000   0.0000000   0.0000000   0.0000000   0.0000000   0.0000000   0.0000000   0.0000000   0.0000000   0.0000000
 NMagM=    0.0000000   0.0000000   0.0000000   0.0000000   0.0000000   0.0000000   0.0000000   0.0000000   0.0000000   0.0000000
 AtZNuc=   6.0000000   6.0000000   6.0000000   6.0000000   6.0000000   6.0000000   6.0000000   6.0000000   6.0000000   6.0000000

  Atom        81          82          83          84          85          86
 IAtWgt=          12          12          12          12          35          35
 AtmWgt=  12.0000000  12.0000000  12.0000000  12.0000000  34.9688527  34.9688527
 NucSpn=           0           0           0           0           3           3
 AtZEff=  -0.0000000  -0.0000000  -0.0000000  -0.0000000  -0.0000000  -0.0000000
 NQMom=    0.0000000   0.0000000   0.0000000   0.0000000  -8.1650000  -8.1650000
 NMagM=    0.0000000   0.0000000   0.0000000   0.0000000   0.8218740   0.8218740
 AtZNuc=   6.0000000   6.0000000   6.0000000   6.0000000  17.0000000  17.0000000
 Leave Link  101 at Tue Jun 28 22:23:27 2022, MaxMem=  1342177280 cpu:               6.5 elap:               0.3
 (Enter /home/mkliu/g16/l103.exe)

 GradGradGradGradGradGradGradGradGradGradGradGradGradGradGradGradGradGrad
 Berny optimization.
 Initialization pass.
                           ----------------------------
                           !    Initial Parameters    !
                           ! (Angstroms and Degrees)  !
 --------------------------                            --------------------------
 ! Name  Definition              Value          Derivative Info.                !
 --------------------------------------------------------------------------------
 ! R1    R(1,5)                  1.4176         estimate D2E/DX2                !
 ! R2    R(1,17)                 1.4091         estimate D2E/DX2                !
 ! R3    R(1,25)                 1.4406         estimate D2E/DX2                !
 ! R4    R(2,6)                  1.4992         estimate D2E/DX2                !
 ! R5    R(2,43)                 1.515          estimate D2E/DX2                !
 ! R6    R(2,44)                 1.5085         estimate D2E/DX2                !
 ! R7    R(2,86)                 1.8166         estimate D2E/DX2                !
 ! R8    R(3,7)                  1.418          estimate D2E/DX2                !
 ! R9    R(3,18)                 1.4092         estimate D2E/DX2                !
 ! R10   R(3,26)                 1.444          estimate D2E/DX2                !
 ! R11   R(4,8)                  1.4328         estimate D2E/DX2                !
 ! R12   R(4,45)                 1.4156         estimate D2E/DX2                !
 ! R13   R(4,46)                 1.4164         estimate D2E/DX2                !
 ! R14   R(5,9)                  1.4133         estimate D2E/DX2                !
 ! R15   R(5,29)                 1.4368         estimate D2E/DX2                !
 ! R16   R(6,10)                 1.3593         estimate D2E/DX2                !
 ! R17   R(6,15)                 1.4231         estimate D2E/DX2                !
 ! R18   R(7,12)                 1.4154         estimate D2E/DX2                !
 ! R19   R(7,30)                 1.4373         estimate D2E/DX2                !
 ! R20   R(8,11)                 1.368          estimate D2E/DX2                !
 ! R21   R(8,16)                 1.4378         estimate D2E/DX2                !
 ! R22   R(9,13)                 1.4071         estimate D2E/DX2                !
 ! R23   R(9,35)                 1.4416         estimate D2E/DX2                !
 ! R24   R(10,49)                1.4512         estimate D2E/DX2                !
 ! R25   R(10,53)                1.4393         estimate D2E/DX2                !
 ! R26   R(11,50)                1.4409         estimate D2E/DX2                !
 ! R27   R(11,54)                1.442          estimate D2E/DX2                !
 ! R28   R(12,14)                1.4055         estimate D2E/DX2                !
 ! R29   R(12,36)                1.4516         estimate D2E/DX2                !
 ! R30   R(13,15)                1.419          estimate D2E/DX2                !
 ! R31   R(13,43)                1.4261         estimate D2E/DX2                !
 ! R32   R(14,16)                1.4179         estimate D2E/DX2                !
 ! R33   R(14,46)                1.4433         estimate D2E/DX2                !
 ! R34   R(15,17)                1.4163         estimate D2E/DX2                !
 ! R35   R(16,18)                1.4128         estimate D2E/DX2                !
 ! R36   R(17,19)                1.4457         estimate D2E/DX2                !
 ! R37   R(18,20)                1.4533         estimate D2E/DX2                !
 ! R38   R(19,21)                1.4129         estimate D2E/DX2                !
 ! R39   R(19,53)                1.4118         estimate D2E/DX2                !
 ! R40   R(20,22)                1.4122         estimate D2E/DX2                !
 ! R41   R(20,54)                1.4134         estimate D2E/DX2                !
 ! R42   R(21,23)                1.441          estimate D2E/DX2                !
 ! R43   R(21,57)                1.4174         estimate D2E/DX2                !
 ! R44   R(22,24)                1.443          estimate D2E/DX2                !
 ! R45   R(22,58)                1.4169         estimate D2E/DX2                !
 ! R46   R(23,25)                1.367          estimate D2E/DX2                !
 ! R47   R(23,61)                1.4299         estimate D2E/DX2                !
 ! R48   R(24,26)                1.3657         estimate D2E/DX2                !
 ! R49   R(24,62)                1.4302         estimate D2E/DX2                !
 ! R50   R(25,27)                1.4305         estimate D2E/DX2                !
 ! R51   R(26,28)                1.4289         estimate D2E/DX2                !
 ! R52   R(27,29)                1.4286         estimate D2E/DX2                !
 ! R53   R(27,65)                1.4091         estimate D2E/DX2                !
 ! R54   R(28,30)                1.4275         estimate D2E/DX2                !
 ! R55   R(28,66)                1.4109         estimate D2E/DX2                !
 ! R56   R(29,31)                1.3625         estimate D2E/DX2                !
 ! R57   R(30,32)                1.3626         estimate D2E/DX2                !
 ! R58   R(31,33)                1.4418         estimate D2E/DX2                !
 ! R59   R(31,69)                1.4337         estimate D2E/DX2                !
 ! R60   R(32,34)                1.4404         estimate D2E/DX2                !
 ! R61   R(32,70)                1.4341         estimate D2E/DX2                !
 ! R62   R(33,35)                1.4114         estimate D2E/DX2                !
 ! R63   R(33,73)                1.4165         estimate D2E/DX2                !
 ! R64   R(34,36)                1.4073         estimate D2E/DX2                !
 ! R65   R(34,74)                1.4231         estimate D2E/DX2                !
 ! R66   R(35,37)                1.4449         estimate D2E/DX2                !
 ! R67   R(36,38)                1.4486         estimate D2E/DX2                !
 ! R68   R(37,39)                1.4465         estimate D2E/DX2                !
 ! R69   R(37,77)                1.4075         estimate D2E/DX2                !
 ! R70   R(38,42)                1.4428         estimate D2E/DX2                !
 ! R71   R(38,78)                1.4082         estimate D2E/DX2                !
 ! R72   R(39,43)                1.3621         estimate D2E/DX2                !
 ! R73   R(39,79)                1.5088         estimate D2E/DX2                !
 ! R74   R(40,41)                1.429          estimate D2E/DX2                !
 ! R75   R(40,44)                1.3609         estimate D2E/DX2                !
 ! R76   R(40,79)                1.5141         estimate D2E/DX2                !
 ! R77   R(41,45)                1.4029         estimate D2E/DX2                !
 ! R78   R(41,80)                1.4185         estimate D2E/DX2                !
 ! R79   R(42,46)                1.4016         estimate D2E/DX2                !
 ! R80   R(42,80)                1.4188         estimate D2E/DX2                !
 ! R81   R(44,47)                1.4487         estimate D2E/DX2                !
 ! R82   R(45,48)                1.4384         estimate D2E/DX2                !
 ! R83   R(47,48)                1.4444         estimate D2E/DX2                !
 ! R84   R(47,49)                1.4036         estimate D2E/DX2                !
 ! R85   R(48,50)                1.4113         estimate D2E/DX2                !
 ! R86   R(49,51)                1.4197         estimate D2E/DX2                !
 ! R87   R(50,52)                1.4163         estimate D2E/DX2                !
 ! R88   R(51,52)                1.3783         estimate D2E/DX2                !
 ! R89   R(51,55)                1.4408         estimate D2E/DX2                !
 ! R90   R(52,56)                1.4447         estimate D2E/DX2                !
 ! R91   R(53,55)                1.4191         estimate D2E/DX2                !
 ! R92   R(54,56)                1.4189         estimate D2E/DX2                !
 ! R93   R(55,83)                1.4118         estimate D2E/DX2                !
 ! R94   R(56,84)                1.41           estimate D2E/DX2                !
 ! R95   R(57,59)                1.4409         estimate D2E/DX2                !
 ! R96   R(57,83)                1.4122         estimate D2E/DX2                !
 ! R97   R(58,60)                1.442          estimate D2E/DX2                !
 ! R98   R(58,84)                1.413          estimate D2E/DX2                !
 ! R99   R(59,60)                1.3663         estimate D2E/DX2                !
 ! R100  R(59,61)                1.4309         estimate D2E/DX2                !
 ! R101  R(60,62)                1.4291         estimate D2E/DX2                !
 ! R102  R(61,63)                1.4111         estimate D2E/DX2                !
 ! R103  R(62,64)                1.4119         estimate D2E/DX2                !
 ! R104  R(63,64)                1.446          estimate D2E/DX2                !
 ! R105  R(63,65)                1.4469         estimate D2E/DX2                !
 ! R106  R(64,66)                1.4453         estimate D2E/DX2                !
 ! R107  R(65,67)                1.4494         estimate D2E/DX2                !
 ! R108  R(66,68)                1.4475         estimate D2E/DX2                !
 ! R109  R(67,68)                1.4473         estimate D2E/DX2                !
 ! R110  R(67,69)                1.4119         estimate D2E/DX2                !
 ! R111  R(68,70)                1.4128         estimate D2E/DX2                !
 ! R112  R(69,71)                1.4305         estimate D2E/DX2                !
 ! R113  R(70,72)                1.4282         estimate D2E/DX2                !
 ! R114  R(71,72)                1.3736         estimate D2E/DX2                !
 ! R115  R(71,73)                1.4437         estimate D2E/DX2                !
 ! R116  R(72,74)                1.4455         estimate D2E/DX2                !
 ! R117  R(73,75)                1.3883         estimate D2E/DX2                !
 ! R118  R(74,76)                1.3815         estimate D2E/DX2                !
 ! R119  R(75,76)                1.4435         estimate D2E/DX2                !
 ! R120  R(75,77)                1.4172         estimate D2E/DX2                !
 ! R121  R(76,78)                1.4242         estimate D2E/DX2                !
 ! R122  R(77,81)                1.4547         estimate D2E/DX2                !
 ! R123  R(78,81)                1.4407         estimate D2E/DX2                !
 ! R124  R(79,82)                1.4971         estimate D2E/DX2                !
 ! R125  R(79,85)                1.8153         estimate D2E/DX2                !
 ! R126  R(80,82)                1.4182         estimate D2E/DX2                !
 ! R127  R(81,82)                1.3571         estimate D2E/DX2                !
 ! R128  R(83,84)                1.4547         estimate D2E/DX2                !
 ! A1    A(5,1,17)             122.3129         estimate D2E/DX2                !
 ! A2    A(5,1,25)             107.1519         estimate D2E/DX2                !
 ! A3    A(17,1,25)            120.3525         estimate D2E/DX2                !
 ! A4    A(6,2,43)             101.0545         estimate D2E/DX2                !
 ! A5    A(6,2,44)             112.3442         estimate D2E/DX2                !
 ! A6    A(6,2,86)             111.4327         estimate D2E/DX2                !
 ! A7    A(43,2,44)            111.152          estimate D2E/DX2                !
 ! A8    A(43,2,86)            110.9756         estimate D2E/DX2                !
 ! A9    A(44,2,86)            109.6643         estimate D2E/DX2                !
 ! A10   A(7,3,18)             122.3044         estimate D2E/DX2                !
 ! A11   A(7,3,26)             107.089          estimate D2E/DX2                !
 ! A12   A(18,3,26)            120.3614         estimate D2E/DX2                !
 ! A13   A(8,4,45)             120.5976         estimate D2E/DX2                !
 ! A14   A(8,4,46)             106.979          estimate D2E/DX2                !
 ! A15   A(45,4,46)            121.7924         estimate D2E/DX2                !
 ! A16   A(1,5,9)              122.2569         estimate D2E/DX2                !
 ! A17   A(1,5,29)             107.1974         estimate D2E/DX2                !
 ! A18   A(9,5,29)             119.5381         estimate D2E/DX2                !
 ! A19   A(2,6,10)             121.7271         estimate D2E/DX2                !
 ! A20   A(2,6,15)             111.1595         estimate D2E/DX2                !
 ! A21   A(10,6,15)            119.7322         estimate D2E/DX2                !
 ! A22   A(3,7,12)             122.5861         estimate D2E/DX2                !
 ! A23   A(3,7,30)             107.0587         estimate D2E/DX2                !
 ! A24   A(12,7,30)            119.6785         estimate D2E/DX2                !
 ! A25   A(4,8,11)             119.4358         estimate D2E/DX2                !
 ! A26   A(4,8,16)             109.1886         estimate D2E/DX2                !
 ! A27   A(11,8,16)            120.7645         estimate D2E/DX2                !
 ! A28   A(5,9,13)             115.0138         estimate D2E/DX2                !
 ! A29   A(5,9,35)             120.7408         estimate D2E/DX2                !
 ! A30   A(13,9,35)            118.7496         estimate D2E/DX2                !
 ! A31   A(6,10,49)            121.0757         estimate D2E/DX2                !
 ! A32   A(6,10,53)            120.4919         estimate D2E/DX2                !
 ! A33   A(49,10,53)           108.5948         estimate D2E/DX2                !
 ! A34   A(8,11,50)            120.2934         estimate D2E/DX2                !
 ! A35   A(8,11,54)            120.0672         estimate D2E/DX2                !
 ! A36   A(50,11,54)           109.2258         estimate D2E/DX2                !
 ! A37   A(7,12,14)            114.5337         estimate D2E/DX2                !
 ! A38   A(7,12,36)            120.3628         estimate D2E/DX2                !
 ! A39   A(14,12,36)           119.4488         estimate D2E/DX2                !
 ! A40   A(9,13,15)            122.5379         estimate D2E/DX2                !
 ! A41   A(9,13,43)            121.1316         estimate D2E/DX2                !
 ! A42   A(15,13,43)           109.346          estimate D2E/DX2                !
 ! A43   A(12,14,16)           122.5818         estimate D2E/DX2                !
 ! A44   A(12,14,46)           120.403          estimate D2E/DX2                !
 ! A45   A(16,14,46)           108.3875         estimate D2E/DX2                !
 ! A46   A(6,15,13)            107.7975         estimate D2E/DX2                !
 ! A47   A(6,15,17)            121.656          estimate D2E/DX2                !
 ! A48   A(13,15,17)           121.9153         estimate D2E/DX2                !
 ! A49   A(8,16,14)            106.8435         estimate D2E/DX2                !
 ! A50   A(8,16,18)            120.4713         estimate D2E/DX2                !
 ! A51   A(14,16,18)           122.4558         estimate D2E/DX2                !
 ! A52   A(1,17,15)            115.0774         estimate D2E/DX2                !
 ! A53   A(1,17,19)            119.3783         estimate D2E/DX2                !
 ! A54   A(15,17,19)           118.6073         estimate D2E/DX2                !
 ! A55   A(3,18,16)            114.6469         estimate D2E/DX2                !
 ! A56   A(3,18,20)            119.3031         estimate D2E/DX2                !
 ! A57   A(16,18,20)           118.9673         estimate D2E/DX2                !
 ! A58   A(17,19,21)           119.0944         estimate D2E/DX2                !
 ! A59   A(17,19,53)           118.4429         estimate D2E/DX2                !
 ! A60   A(21,19,53)           115.2082         estimate D2E/DX2                !
 ! A61   A(18,20,22)           118.9492         estimate D2E/DX2                !
 ! A62   A(18,20,54)           119.142          estimate D2E/DX2                !
 ! A63   A(22,20,54)           114.901          estimate D2E/DX2                !
 ! A64   A(19,21,23)           120.206          estimate D2E/DX2                !
 ! A65   A(19,21,57)           122.208          estimate D2E/DX2                !
 ! A66   A(23,21,57)           107.245          estimate D2E/DX2                !
 ! A67   A(20,22,24)           120.394          estimate D2E/DX2                !
 ! A68   A(20,22,58)           122.3117         estimate D2E/DX2                !
 ! A69   A(24,22,58)           107.0796         estimate D2E/DX2                !
 ! A70   A(21,23,25)           120.5233         estimate D2E/DX2                !
 ! A71   A(21,23,61)           109.899          estimate D2E/DX2                !
 ! A72   A(25,23,61)           119.154          estimate D2E/DX2                !
 ! A73   A(22,24,26)           120.4771         estimate D2E/DX2                !
 ! A74   A(22,24,62)           109.9359         estimate D2E/DX2                !
 ! A75   A(26,24,62)           119.136          estimate D2E/DX2                !
 ! A76   A(1,25,23)            120.217          estimate D2E/DX2                !
 ! A77   A(1,25,27)            109.7498         estimate D2E/DX2                !
 ! A78   A(23,25,27)           119.227          estimate D2E/DX2                !
 ! A79   A(3,26,24)            120.3196         estimate D2E/DX2                !
 ! A80   A(3,26,28)            109.8425         estimate D2E/DX2                !
 ! A81   A(24,26,28)           119.2435         estimate D2E/DX2                !
 ! A82   A(25,27,29)           104.9667         estimate D2E/DX2                !
 ! A83   A(25,27,65)           122.527          estimate D2E/DX2                !
 ! A84   A(29,27,65)           121.5322         estimate D2E/DX2                !
 ! A85   A(26,28,30)           104.9019         estimate D2E/DX2                !
 ! A86   A(26,28,66)           122.6104         estimate D2E/DX2                !
 ! A87   A(30,28,66)           121.6343         estimate D2E/DX2                !
 ! A88   A(5,29,27)            109.8293         estimate D2E/DX2                !
 ! A89   A(5,29,31)            119.8378         estimate D2E/DX2                !
 ! A90   A(27,29,31)           119.9068         estimate D2E/DX2                !
 ! A91   A(7,30,28)            110.0878         estimate D2E/DX2                !
 ! A92   A(7,30,32)            119.9305         estimate D2E/DX2                !
 ! A93   A(28,30,32)           119.8468         estimate D2E/DX2                !
 ! A94   A(29,31,33)           120.6304         estimate D2E/DX2                !
 ! A95   A(29,31,69)           119.3048         estimate D2E/DX2                !
 ! A96   A(33,31,69)           109.8808         estimate D2E/DX2                !
 ! A97   A(30,32,34)           120.5943         estimate D2E/DX2                !
 ! A98   A(30,32,70)           119.2655         estimate D2E/DX2                !
 ! A99   A(34,32,70)           110.1214         estimate D2E/DX2                !
 ! A100  A(31,33,35)           120.4464         estimate D2E/DX2                !
 ! A101  A(31,33,73)           106.1812         estimate D2E/DX2                !
 ! A102  A(35,33,73)           122.166          estimate D2E/DX2                !
 ! A103  A(32,34,36)           120.7971         estimate D2E/DX2                !
 ! A104  A(32,34,74)           105.8719         estimate D2E/DX2                !
 ! A105  A(36,34,74)           122.5968         estimate D2E/DX2                !
 ! A106  A(9,35,33)            117.229          estimate D2E/DX2                !
 ! A107  A(9,35,37)            119.3345         estimate D2E/DX2                !
 ! A108  A(33,35,37)           118.3941         estimate D2E/DX2                !
 ! A109  A(12,36,34)           117.2232         estimate D2E/DX2                !
 ! A110  A(12,36,38)           119.7218         estimate D2E/DX2                !
 ! A111  A(34,36,38)           117.7258         estimate D2E/DX2                !
 ! A112  A(35,37,39)           119.3646         estimate D2E/DX2                !
 ! A113  A(35,37,77)           118.1918         estimate D2E/DX2                !
 ! A114  A(39,37,77)           118.2374         estimate D2E/DX2                !
 ! A115  A(36,38,42)           119.3976         estimate D2E/DX2                !
 ! A116  A(36,38,78)           118.5911         estimate D2E/DX2                !
 ! A117  A(42,38,78)           116.4729         estimate D2E/DX2                !
 ! A118  A(37,39,43)           120.0188         estimate D2E/DX2                !
 ! A119  A(37,39,79)           121.7801         estimate D2E/DX2                !
 ! A120  A(43,39,79)           116.2936         estimate D2E/DX2                !
 ! A121  A(41,40,44)           120.9703         estimate D2E/DX2                !
 ! A122  A(41,40,79)           109.4754         estimate D2E/DX2                !
 ! A123  A(44,40,79)           125.0242         estimate D2E/DX2                !
 ! A124  A(40,41,45)           121.6106         estimate D2E/DX2                !
 ! A125  A(40,41,80)           109.1342         estimate D2E/DX2                !
 ! A126  A(45,41,80)           122.2673         estimate D2E/DX2                !
 ! A127  A(38,42,46)           119.747          estimate D2E/DX2                !
 ! A128  A(38,42,80)           119.7696         estimate D2E/DX2                !
 ! A129  A(46,42,80)           114.9822         estimate D2E/DX2                !
 ! A130  A(2,43,13)            109.4839         estimate D2E/DX2                !
 ! A131  A(2,43,39)            125.0448         estimate D2E/DX2                !
 ! A132  A(13,43,39)           121.2407         estimate D2E/DX2                !
 ! A133  A(2,44,40)            116.3893         estimate D2E/DX2                !
 ! A134  A(2,44,47)            121.845          estimate D2E/DX2                !
 ! A135  A(40,44,47)           119.6913         estimate D2E/DX2                !
 ! A136  A(4,45,41)            115.0995         estimate D2E/DX2                !
 ! A137  A(4,45,48)            120.5358         estimate D2E/DX2                !
 ! A138  A(41,45,48)           118.602          estimate D2E/DX2                !
 ! A139  A(4,46,14)            108.4892         estimate D2E/DX2                !
 ! A140  A(4,46,42)            122.4337         estimate D2E/DX2                !
 ! A141  A(14,46,42)           121.0028         estimate D2E/DX2                !
 ! A142  A(44,47,48)           119.7549         estimate D2E/DX2                !
 ! A143  A(44,47,49)           117.8912         estimate D2E/DX2                !
 ! A144  A(48,47,49)           118.1072         estimate D2E/DX2                !
 ! A145  A(45,48,47)           119.2065         estimate D2E/DX2                !
 ! A146  A(45,48,50)           116.9264         estimate D2E/DX2                !
 ! A147  A(47,48,50)           118.5808         estimate D2E/DX2                !
 ! A148  A(10,49,47)           120.9871         estimate D2E/DX2                !
 ! A149  A(10,49,51)           105.9163         estimate D2E/DX2                !
 ! A150  A(47,49,51)           121.6273         estimate D2E/DX2                !
 ! A151  A(11,50,48)           121.7017         estimate D2E/DX2                !
 ! A152  A(11,50,52)           105.9418         estimate D2E/DX2                !
 ! A153  A(48,50,52)           121.565          estimate D2E/DX2                !
 ! A154  A(49,51,52)           119.8933         estimate D2E/DX2                !
 ! A155  A(49,51,55)           109.7908         estimate D2E/DX2                !
 ! A156  A(52,51,55)           120.1118         estimate D2E/DX2                !
 ! A157  A(50,52,51)           119.3954         estimate D2E/DX2                !
 ! A158  A(50,52,56)           109.646          estimate D2E/DX2                !
 ! A159  A(51,52,56)           120.4272         estimate D2E/DX2                !
 ! A160  A(10,53,19)           120.9775         estimate D2E/DX2                !
 ! A161  A(10,53,55)           107.8892         estimate D2E/DX2                !
 ! A162  A(19,53,55)           122.1791         estimate D2E/DX2                !
 ! A163  A(11,54,20)           120.53           estimate D2E/DX2                !
 ! A164  A(11,54,56)           107.243          estimate D2E/DX2                !
 ! A165  A(20,54,56)           122.3264         estimate D2E/DX2                !
 ! A166  A(51,55,53)           107.3786         estimate D2E/DX2                !
 ! A167  A(51,55,83)           120.5707         estimate D2E/DX2                !
 ! A168  A(53,55,83)           122.3436         estimate D2E/DX2                !
 ! A169  A(52,56,54)           107.5081         estimate D2E/DX2                !
 ! A170  A(52,56,84)           120.3337         estimate D2E/DX2                !
 ! A171  A(54,56,84)           122.4286         estimate D2E/DX2                !
 ! A172  A(21,57,59)           107.1572         estimate D2E/DX2                !
 ! A173  A(21,57,83)           122.3661         estimate D2E/DX2                !
 ! A174  A(59,57,83)           120.3857         estimate D2E/DX2                !
 ! A175  A(22,58,60)           107.2836         estimate D2E/DX2                !
 ! A176  A(22,58,84)           122.4932         estimate D2E/DX2                !
 ! A177  A(60,58,84)           120.314          estimate D2E/DX2                !
 ! A178  A(57,59,60)           120.4952         estimate D2E/DX2                !
 ! A179  A(57,59,61)           109.9395         estimate D2E/DX2                !
 ! A180  A(60,59,61)           119.2734         estimate D2E/DX2                !
 ! A181  A(58,60,59)           120.4278         estimate D2E/DX2                !
 ! A182  A(58,60,62)           109.8965         estimate D2E/DX2                !
 ! A183  A(59,60,62)           119.4244         estimate D2E/DX2                !
 ! A184  A(23,61,59)           105.0022         estimate D2E/DX2                !
 ! A185  A(23,61,63)           122.3264         estimate D2E/DX2                !
 ! A186  A(59,61,63)           122.2341         estimate D2E/DX2                !
 ! A187  A(24,62,60)           105.0445         estimate D2E/DX2                !
 ! A188  A(24,62,64)           122.3835         estimate D2E/DX2                !
 ! A189  A(60,62,64)           122.2243         estimate D2E/DX2                !
 ! A190  A(61,63,64)           117.9484         estimate D2E/DX2                !
 ! A191  A(61,63,65)           117.9906         estimate D2E/DX2                !
 ! A192  A(64,63,65)           119.8297         estimate D2E/DX2                !
 ! A193  A(62,64,63)           117.9002         estimate D2E/DX2                !
 ! A194  A(62,64,66)           117.957          estimate D2E/DX2                !
 ! A195  A(63,64,66)           119.8684         estimate D2E/DX2                !
 ! A196  A(27,65,63)           117.6027         estimate D2E/DX2                !
 ! A197  A(27,65,67)           117.9301         estimate D2E/DX2                !
 ! A198  A(63,65,67)           120.3549         estimate D2E/DX2                !
 ! A199  A(28,66,64)           117.5649         estimate D2E/DX2                !
 ! A200  A(28,66,68)           117.9062         estimate D2E/DX2                !
 ! A201  A(64,66,68)           120.3943         estimate D2E/DX2                !
 ! A202  A(65,67,68)           119.7045         estimate D2E/DX2                !
 ! A203  A(65,67,69)           118.1931         estimate D2E/DX2                !
 ! A204  A(68,67,69)           117.8876         estimate D2E/DX2                !
 ! A205  A(66,68,67)           119.8299         estimate D2E/DX2                !
 ! A206  A(66,68,70)           118.1385         estimate D2E/DX2                !
 ! A207  A(67,68,70)           117.8109         estimate D2E/DX2                !
 ! A208  A(31,69,67)           121.3171         estimate D2E/DX2                !
 ! A209  A(31,69,71)           105.3967         estimate D2E/DX2                !
 ! A210  A(67,69,71)           122.7492         estimate D2E/DX2                !
 ! A211  A(32,70,68)           121.4048         estimate D2E/DX2                !
 ! A212  A(32,70,72)           105.5017         estimate D2E/DX2                !
 ! A213  A(68,70,72)           122.7616         estimate D2E/DX2                !
 ! A214  A(69,71,72)           119.0857         estimate D2E/DX2                !
 ! A215  A(69,71,73)           108.876          estimate D2E/DX2                !
 ! A216  A(72,71,73)           120.1383         estimate D2E/DX2                !
 ! A217  A(70,72,71)           119.2527         estimate D2E/DX2                !
 ! A218  A(70,72,74)           108.7843         estimate D2E/DX2                !
 ! A219  A(71,72,74)           120.093          estimate D2E/DX2                !
 ! A220  A(33,73,71)           108.397          estimate D2E/DX2                !
 ! A221  A(33,73,75)           119.1591         estimate D2E/DX2                !
 ! A222  A(71,73,75)           120.0453         estimate D2E/DX2                !
 ! A223  A(34,74,72)           108.4608         estimate D2E/DX2                !
 ! A224  A(34,74,76)           119.5428         estimate D2E/DX2                !
 ! A225  A(72,74,76)           119.9194         estimate D2E/DX2                !
 ! A226  A(73,75,76)           119.5631         estimate D2E/DX2                !
 ! A227  A(73,75,77)           119.7297         estimate D2E/DX2                !
 ! A228  A(76,75,77)           108.81           estimate D2E/DX2                !
 ! A229  A(74,76,75)           120.1929         estimate D2E/DX2                !
 ! A230  A(74,76,78)           119.1588         estimate D2E/DX2                !
 ! A231  A(75,76,78)           108.7053         estimate D2E/DX2                !
 ! A232  A(37,77,75)           122.052          estimate D2E/DX2                !
 ! A233  A(37,77,81)           120.1089         estimate D2E/DX2                !
 ! A234  A(75,77,81)           106.3095         estimate D2E/DX2                !
 ! A235  A(38,78,76)           122.2773         estimate D2E/DX2                !
 ! A236  A(38,78,81)           121.9723         estimate D2E/DX2                !
 ! A237  A(76,78,81)           106.4215         estimate D2E/DX2                !
 ! A238  A(39,79,40)           111.2187         estimate D2E/DX2                !
 ! A239  A(39,79,82)           111.7208         estimate D2E/DX2                !
 ! A240  A(39,79,85)           109.6735         estimate D2E/DX2                !
 ! A241  A(40,79,82)           100.941          estimate D2E/DX2                !
 ! A242  A(40,79,85)           111.2045         estimate D2E/DX2                !
 ! A243  A(82,79,85)           111.8644         estimate D2E/DX2                !
 ! A244  A(41,80,42)           121.745          estimate D2E/DX2                !
 ! A245  A(41,80,82)           107.8242         estimate D2E/DX2                !
 ! A246  A(42,80,82)           121.6843         estimate D2E/DX2                !
 ! A247  A(77,81,78)           108.9982         estimate D2E/DX2                !
 ! A248  A(77,81,82)           120.931          estimate D2E/DX2                !
 ! A249  A(78,81,82)           120.5291         estimate D2E/DX2                !
 ! A250  A(79,82,80)           111.5286         estimate D2E/DX2                !
 ! A251  A(79,82,81)           122.1848         estimate D2E/DX2                !
 ! A252  A(80,82,81)           119.0139         estimate D2E/DX2                !
 ! A253  A(55,83,57)           115.0472         estimate D2E/DX2                !
 ! A254  A(55,83,84)           119.2271         estimate D2E/DX2                !
 ! A255  A(57,83,84)           119.0338         estimate D2E/DX2                !
 ! A256  A(56,84,58)           114.8554         estimate D2E/DX2                !
 ! A257  A(56,84,83)           119.24           estimate D2E/DX2                !
 ! A258  A(58,84,83)           119.1271         estimate D2E/DX2                !
 ! D1    D(17,1,5,9)            -3.523          estimate D2E/DX2                !
 ! D2    D(17,1,5,29)         -147.1907         estimate D2E/DX2                !
 ! D3    D(25,1,5,9)           141.6563         estimate D2E/DX2                !
 ! D4    D(25,1,5,29)           -2.0113         estimate D2E/DX2                !
 ! D5    D(5,1,17,15)           -5.2328         estimate D2E/DX2                !
 ! D6    D(5,1,17,19)          145.2369         estimate D2E/DX2                !
 ! D7    D(25,1,17,15)        -146.0144         estimate D2E/DX2                !
 ! D8    D(25,1,17,19)           4.4554         estimate D2E/DX2                !
 ! D9    D(5,1,25,23)         -148.7761         estimate D2E/DX2                !
 ! D10   D(5,1,25,27)           -4.7324         estimate D2E/DX2                !
 ! D11   D(17,1,25,23)          -2.7791         estimate D2E/DX2                !
 ! D12   D(17,1,25,27)         141.2646         estimate D2E/DX2                !
 ! D13   D(43,2,6,10)         -140.0626         estimate D2E/DX2                !
 ! D14   D(43,2,6,15)            9.7678         estimate D2E/DX2                !
 ! D15   D(44,2,6,10)          -21.5199         estimate D2E/DX2                !
 ! D16   D(44,2,6,15)          128.3106         estimate D2E/DX2                !
 ! D17   D(86,2,6,10)          101.9987         estimate D2E/DX2                !
 ! D18   D(86,2,6,15)         -108.1709         estimate D2E/DX2                !
 ! D19   D(6,2,43,13)          -10.5834         estimate D2E/DX2                !
 ! D20   D(6,2,43,39)          146.3588         estimate D2E/DX2                !
 ! D21   D(44,2,43,13)        -129.985          estimate D2E/DX2                !
 ! D22   D(44,2,43,39)          26.9572         estimate D2E/DX2                !
 ! D23   D(86,2,43,13)         107.6875         estimate D2E/DX2                !
 ! D24   D(86,2,43,39)         -95.3703         estimate D2E/DX2                !
 ! D25   D(6,2,44,40)         -144.1203         estimate D2E/DX2                !
 ! D26   D(6,2,44,47)           19.4372         estimate D2E/DX2                !
 ! D27   D(43,2,44,40)         -31.7051         estimate D2E/DX2                !
 ! D28   D(43,2,44,47)         131.8524         estimate D2E/DX2                !
 ! D29   D(86,2,44,40)          91.3786         estimate D2E/DX2                !
 ! D30   D(86,2,44,47)        -105.0639         estimate D2E/DX2                !
 ! D31   D(18,3,7,12)            3.0127         estimate D2E/DX2                !
 ! D32   D(18,3,7,30)          147.1883         estimate D2E/DX2                !
 ! D33   D(26,3,7,12)         -142.0737         estimate D2E/DX2                !
 ! D34   D(26,3,7,30)            2.1019         estimate D2E/DX2                !
 ! D35   D(7,3,18,16)            5.6769         estimate D2E/DX2                !
 ! D36   D(7,3,18,20)         -144.6145         estimate D2E/DX2                !
 ! D37   D(26,3,18,16)         146.3291         estimate D2E/DX2                !
 ! D38   D(26,3,18,20)          -3.9623         estimate D2E/DX2                !
 ! D39   D(7,3,26,24)          148.7411         estimate D2E/DX2                !
 ! D40   D(7,3,26,28)            4.382          estimate D2E/DX2                !
 ! D41   D(18,3,26,24)           2.8415         estimate D2E/DX2                !
 ! D42   D(18,3,26,28)        -141.5176         estimate D2E/DX2                !
 ! D43   D(45,4,8,11)            3.2428         estimate D2E/DX2                !
 ! D44   D(45,4,8,16)         -141.6685         estimate D2E/DX2                !
 ! D45   D(46,4,8,11)          148.379          estimate D2E/DX2                !
 ! D46   D(46,4,8,16)            3.4676         estimate D2E/DX2                !
 ! D47   D(8,4,45,41)          151.9497         estimate D2E/DX2                !
 ! D48   D(8,4,45,48)           -0.9335         estimate D2E/DX2                !
 ! D49   D(46,4,45,41)          11.9818         estimate D2E/DX2                !
 ! D50   D(46,4,45,48)        -140.9013         estimate D2E/DX2                !
 ! D51   D(8,4,46,14)           -2.5611         estimate D2E/DX2                !
 ! D52   D(8,4,46,42)         -151.4285         estimate D2E/DX2                !
 ! D53   D(45,4,46,14)         142.0663         estimate D2E/DX2                !
 ! D54   D(45,4,46,42)          -6.8011         estimate D2E/DX2                !
 ! D55   D(1,5,9,13)             8.2303         estimate D2E/DX2                !
 ! D56   D(1,5,9,35)          -145.2825         estimate D2E/DX2                !
 ! D57   D(29,5,9,13)          147.6487         estimate D2E/DX2                !
 ! D58   D(29,5,9,35)           -5.8642         estimate D2E/DX2                !
 ! D59   D(1,5,29,27)            8.1024         estimate D2E/DX2                !
 ! D60   D(1,5,29,31)          152.9723         estimate D2E/DX2                !
 ! D61   D(9,5,29,27)         -136.7366         estimate D2E/DX2                !
 ! D62   D(9,5,29,31)            8.1333         estimate D2E/DX2                !
 ! D63   D(2,6,10,49)            8.7547         estimate D2E/DX2                !
 ! D64   D(2,6,10,53)          150.655          estimate D2E/DX2                !
 ! D65   D(15,6,10,49)        -138.5799         estimate D2E/DX2                !
 ! D66   D(15,6,10,53)           3.3204         estimate D2E/DX2                !
 ! D67   D(2,6,15,13)           -5.5685         estimate D2E/DX2                !
 ! D68   D(2,6,15,17)         -153.8033         estimate D2E/DX2                !
 ! D69   D(10,6,15,13)         144.9419         estimate D2E/DX2                !
 ! D70   D(10,6,15,17)          -3.2928         estimate D2E/DX2                !
 ! D71   D(3,7,12,14)           -8.1513         estimate D2E/DX2                !
 ! D72   D(3,7,12,36)          145.1955         estimate D2E/DX2                !
 ! D73   D(30,7,12,14)        -148.0576         estimate D2E/DX2                !
 ! D74   D(30,7,12,36)           5.2893         estimate D2E/DX2                !
 ! D75   D(3,7,30,28)           -7.9185         estimate D2E/DX2                !
 ! D76   D(3,7,30,32)         -153.2061         estimate D2E/DX2                !
 ! D77   D(12,7,30,28)         137.4964         estimate D2E/DX2                !
 ! D78   D(12,7,30,32)          -7.7912         estimate D2E/DX2                !
 ! D79   D(4,8,11,50)            0.34           estimate D2E/DX2                !
 ! D80   D(4,8,11,54)         -140.8165         estimate D2E/DX2                !
 ! D81   D(16,8,11,50)         141.1557         estimate D2E/DX2                !
 ! D82   D(16,8,11,54)          -0.0008         estimate D2E/DX2                !
 ! D83   D(4,8,16,14)           -3.0208         estimate D2E/DX2                !
 ! D84   D(4,8,16,18)          142.9428         estimate D2E/DX2                !
 ! D85   D(11,8,16,14)        -147.3855         estimate D2E/DX2                !
 ! D86   D(11,8,16,18)          -1.4219         estimate D2E/DX2                !
 ! D87   D(5,9,13,15)           -4.3911         estimate D2E/DX2                !
 ! D88   D(5,9,13,43)         -152.0001         estimate D2E/DX2                !
 ! D89   D(35,9,13,15)         149.6819         estimate D2E/DX2                !
 ! D90   D(35,9,13,43)           2.0728         estimate D2E/DX2                !
 ! D91   D(5,9,35,33)           -4.7468         estimate D2E/DX2                !
 ! D92   D(5,9,35,37)          149.759          estimate D2E/DX2                !
 ! D93   D(13,9,35,33)        -157.2957         estimate D2E/DX2                !
 ! D94   D(13,9,35,37)          -2.7898         estimate D2E/DX2                !
 ! D95   D(6,10,49,47)           8.4679         estimate D2E/DX2                !
 ! D96   D(6,10,49,51)         152.3039         estimate D2E/DX2                !
 ! D97   D(53,10,49,47)       -137.4084         estimate D2E/DX2                !
 ! D98   D(53,10,49,51)          6.4277         estimate D2E/DX2                !
 ! D99   D(6,10,53,19)          -2.3518         estimate D2E/DX2                !
 ! D100  D(6,10,53,55)        -150.1845         estimate D2E/DX2                !
 ! D101  D(49,10,53,19)        143.7591         estimate D2E/DX2                !
 ! D102  D(49,10,53,55)         -4.0736         estimate D2E/DX2                !
 ! D103  D(8,11,50,48)          -6.445          estimate D2E/DX2                !
 ! D104  D(8,11,50,52)        -151.1617         estimate D2E/DX2                !
 ! D105  D(54,11,50,48)        138.4652         estimate D2E/DX2                !
 ! D106  D(54,11,50,52)         -6.2516         estimate D2E/DX2                !
 ! D107  D(8,11,54,20)           2.1041         estimate D2E/DX2                !
 ! D108  D(8,11,54,56)         148.5191         estimate D2E/DX2                !
 ! D109  D(50,11,54,20)       -142.8983         estimate D2E/DX2                !
 ! D110  D(50,11,54,56)          3.5167         estimate D2E/DX2                !
 ! D111  D(7,12,14,16)           4.7712         estimate D2E/DX2                !
 ! D112  D(7,12,14,46)         148.7728         estimate D2E/DX2                !
 ! D113  D(36,12,14,16)       -148.838          estimate D2E/DX2                !
 ! D114  D(36,12,14,46)         -4.8364         estimate D2E/DX2                !
 ! D115  D(7,12,36,34)           4.833          estimate D2E/DX2                !
 ! D116  D(7,12,36,38)        -148.8224         estimate D2E/DX2                !
 ! D117  D(14,12,36,34)        156.887          estimate D2E/DX2                !
 ! D118  D(14,12,36,38)          3.2316         estimate D2E/DX2                !
 ! D119  D(9,13,15,6)         -152.5323         estimate D2E/DX2                !
 ! D120  D(9,13,15,17)          -4.3973         estimate D2E/DX2                !
 ! D121  D(43,13,15,6)          -1.6093         estimate D2E/DX2                !
 ! D122  D(43,13,15,17)        146.5257         estimate D2E/DX2                !
 ! D123  D(9,13,43,2)          159.4568         estimate D2E/DX2                !
 ! D124  D(9,13,43,39)           1.4832         estimate D2E/DX2                !
 ! D125  D(15,13,43,2)           8.053          estimate D2E/DX2                !
 ! D126  D(15,13,43,39)       -149.9205         estimate D2E/DX2                !
 ! D127  D(12,14,16,8)         149.1108         estimate D2E/DX2                !
 ! D128  D(12,14,16,18)          3.9804         estimate D2E/DX2                !
 ! D129  D(46,14,16,8)           1.4013         estimate D2E/DX2                !
 ! D130  D(46,14,16,18)       -143.7291         estimate D2E/DX2                !
 ! D131  D(12,14,46,4)        -147.813          estimate D2E/DX2                !
 ! D132  D(12,14,46,42)          1.583          estimate D2E/DX2                !
 ! D133  D(16,14,46,4)           0.7267         estimate D2E/DX2                !
 ! D134  D(16,14,46,42)        150.1226         estimate D2E/DX2                !
 ! D135  D(6,15,17,1)          152.8484         estimate D2E/DX2                !
 ! D136  D(6,15,17,19)           2.1378         estimate D2E/DX2                !
 ! D137  D(13,15,17,1)           9.042          estimate D2E/DX2                !
 ! D138  D(13,15,17,19)       -141.6686         estimate D2E/DX2                !
 ! D139  D(8,16,18,3)         -149.6496         estimate D2E/DX2                !
 ! D140  D(8,16,18,20)           0.7484         estimate D2E/DX2                !
 ! D141  D(14,16,18,3)          -9.06           estimate D2E/DX2                !
 ! D142  D(14,16,18,20)        141.338          estimate D2E/DX2                !
 ! D143  D(1,17,19,21)          -1.692          estimate D2E/DX2                !
 ! D144  D(1,17,19,53)        -150.5335         estimate D2E/DX2                !
 ! D145  D(15,17,19,21)        147.7441         estimate D2E/DX2                !
 ! D146  D(15,17,19,53)         -1.0973         estimate D2E/DX2                !
 ! D147  D(3,18,20,22)           1.0788         estimate D2E/DX2                !
 ! D148  D(3,18,20,54)         150.3196         estimate D2E/DX2                !
 ! D149  D(16,18,20,22)       -147.9339         estimate D2E/DX2                !
 ! D150  D(16,18,20,54)          1.3069         estimate D2E/DX2                !
 ! D151  D(17,19,21,23)         -2.7114         estimate D2E/DX2                !
 ! D152  D(17,19,21,57)       -143.2578         estimate D2E/DX2                !
 ! D153  D(53,19,21,23)        147.1005         estimate D2E/DX2                !
 ! D154  D(53,19,21,57)          6.5541         estimate D2E/DX2                !
 ! D155  D(17,19,53,10)          1.1882         estimate D2E/DX2                !
 ! D156  D(17,19,53,55)        144.4181         estimate D2E/DX2                !
 ! D157  D(21,19,53,10)       -148.8309         estimate D2E/DX2                !
 ! D158  D(21,19,53,55)         -5.601          estimate D2E/DX2                !
 ! D159  D(18,20,22,24)          2.9204         estimate D2E/DX2                !
 ! D160  D(18,20,22,58)        143.6217         estimate D2E/DX2                !
 ! D161  D(54,20,22,24)       -147.5763         estimate D2E/DX2                !
 ! D162  D(54,20,22,58)         -6.8749         estimate D2E/DX2                !
 ! D163  D(18,20,54,11)         -2.7328         estimate D2E/DX2                !
 ! D164  D(18,20,54,56)       -144.0353         estimate D2E/DX2                !
 ! D165  D(22,20,54,11)        147.7032         estimate D2E/DX2                !
 ! D166  D(22,20,54,56)          6.4007         estimate D2E/DX2                !
 ! D167  D(19,21,23,25)          4.4687         estimate D2E/DX2                !
 ! D168  D(19,21,23,61)       -140.1044         estimate D2E/DX2                !
 ! D169  D(57,21,23,25)        150.2067         estimate D2E/DX2                !
 ! D170  D(57,21,23,61)          5.6336         estimate D2E/DX2                !
 ! D171  D(19,21,57,59)        144.6329         estimate D2E/DX2                !
 ! D172  D(19,21,57,83)         -0.6947         estimate D2E/DX2                !
 ! D173  D(23,21,57,59)         -0.2659         estimate D2E/DX2                !
 ! D174  D(23,21,57,83)       -145.5935         estimate D2E/DX2                !
 ! D175  D(20,22,24,26)         -4.1276         estimate D2E/DX2                !
 ! D176  D(20,22,24,62)        140.4012         estimate D2E/DX2                !
 ! D177  D(58,22,24,26)       -150.0729         estimate D2E/DX2                !
 ! D178  D(58,22,24,62)         -5.5441         estimate D2E/DX2                !
 ! D179  D(20,22,58,60)       -144.9934         estimate D2E/DX2                !
 ! D180  D(20,22,58,84)          0.5839         estimate D2E/DX2                !
 ! D181  D(24,22,58,60)          0.1501         estimate D2E/DX2                !
 ! D182  D(24,22,58,84)        145.7274         estimate D2E/DX2                !
 ! D183  D(21,23,25,1)          -1.7025         estimate D2E/DX2                !
 ! D184  D(21,23,25,27)       -142.4124         estimate D2E/DX2                !
 ! D185  D(61,23,25,1)         139.6797         estimate D2E/DX2                !
 ! D186  D(61,23,25,27)         -1.0302         estimate D2E/DX2                !
 ! D187  D(21,23,61,59)         -8.5901         estimate D2E/DX2                !
 ! D188  D(21,23,61,63)        136.8032         estimate D2E/DX2                !
 ! D189  D(25,23,61,59)       -153.7163         estimate D2E/DX2                !
 ! D190  D(25,23,61,63)         -8.323          estimate D2E/DX2                !
 ! D191  D(22,24,26,3)           1.2208         estimate D2E/DX2                !
 ! D192  D(22,24,26,28)        142.3057         estimate D2E/DX2                !
 ! D193  D(62,24,26,3)        -140.1304         estimate D2E/DX2                !
 ! D194  D(62,24,26,28)          0.9546         estimate D2E/DX2                !
 ! D195  D(22,24,62,60)          8.5796         estimate D2E/DX2                !
 ! D196  D(22,24,62,64)       -136.9391         estimate D2E/DX2                !
 ! D197  D(26,24,62,60)        153.6504         estimate D2E/DX2                !
 ! D198  D(26,24,62,64)          8.1317         estimate D2E/DX2                !
 ! D199  D(1,25,27,29)           9.4507         estimate D2E/DX2                !
 ! D200  D(1,25,27,65)        -134.894          estimate D2E/DX2                !
 ! D201  D(23,25,27,29)        153.9013         estimate D2E/DX2                !
 ! D202  D(23,25,27,65)          9.5567         estimate D2E/DX2                !
 ! D203  D(3,26,28,30)          -8.9851         estimate D2E/DX2                !
 ! D204  D(3,26,28,66)         135.5607         estimate D2E/DX2                !
 ! D205  D(24,26,28,30)       -153.7821         estimate D2E/DX2                !
 ! D206  D(24,26,28,66)         -9.2363         estimate D2E/DX2                !
 ! D207  D(25,27,29,5)         -10.7417         estimate D2E/DX2                !
 ! D208  D(25,27,29,31)       -155.5837         estimate D2E/DX2                !
 ! D209  D(65,27,29,5)         134.0458         estimate D2E/DX2                !
 ! D210  D(65,27,29,31)        -10.7962         estimate D2E/DX2                !
 ! D211  D(25,27,65,63)         -8.5085         estimate D2E/DX2                !
 ! D212  D(25,27,65,67)        148.8047         estimate D2E/DX2                !
 ! D213  D(29,27,65,63)       -147.1563         estimate D2E/DX2                !
 ! D214  D(29,27,65,67)         10.1569         estimate D2E/DX2                !
 ! D215  D(26,28,30,7)          10.3573         estimate D2E/DX2                !
 ! D216  D(26,28,30,32)        155.6782         estimate D2E/DX2                !
 ! D217  D(66,28,30,7)        -134.6215         estimate D2E/DX2                !
 ! D218  D(66,28,30,32)         10.6994         estimate D2E/DX2                !
 ! D219  D(26,28,66,64)          8.2218         estimate D2E/DX2                !
 ! D220  D(26,28,66,68)       -149.042          estimate D2E/DX2                !
 ! D221  D(30,28,66,64)        147.0463         estimate D2E/DX2                !
 ! D222  D(30,28,66,68)        -10.2175         estimate D2E/DX2                !
 ! D223  D(5,29,31,33)           0.3379         estimate D2E/DX2                !
 ! D224  D(5,29,31,69)        -141.4335         estimate D2E/DX2                !
 ! D225  D(27,29,31,33)        141.6945         estimate D2E/DX2                !
 ! D226  D(27,29,31,69)         -0.077          estimate D2E/DX2                !
 ! D227  D(7,30,32,34)           0.0148         estimate D2E/DX2                !
 ! D228  D(7,30,32,70)         142.1491         estimate D2E/DX2                !
 ! D229  D(28,30,32,34)       -141.9167         estimate D2E/DX2                !
 ! D230  D(28,30,32,70)          0.2175         estimate D2E/DX2                !
 ! D231  D(29,31,33,35)        -11.3684         estimate D2E/DX2                !
 ! D232  D(29,31,33,73)       -155.8136         estimate D2E/DX2                !
 ! D233  D(69,31,33,35)        133.6154         estimate D2E/DX2                !
 ! D234  D(69,31,33,73)        -10.8298         estimate D2E/DX2                !
 ! D235  D(29,31,69,67)         11.3963         estimate D2E/DX2                !
 ! D236  D(29,31,69,71)        156.9179         estimate D2E/DX2                !
 ! D237  D(33,31,69,67)       -134.1178         estimate D2E/DX2                !
 ! D238  D(33,31,69,71)         11.4038         estimate D2E/DX2                !
 ! D239  D(30,32,34,36)         10.5723         estimate D2E/DX2                !
 ! D240  D(30,32,34,74)        155.8071         estimate D2E/DX2                !
 ! D241  D(70,32,34,36)       -134.6583         estimate D2E/DX2                !
 ! D242  D(70,32,34,74)         10.5765         estimate D2E/DX2                !
 ! D243  D(30,32,70,68)        -11.4376         estimate D2E/DX2                !
 ! D244  D(30,32,70,72)       -157.2591         estimate D2E/DX2                !
 ! D245  D(34,32,70,68)        134.3189         estimate D2E/DX2                !
 ! D246  D(34,32,70,72)        -11.5025         estimate D2E/DX2                !
 ! D247  D(31,33,35,9)          13.2539         estimate D2E/DX2                !
 ! D248  D(31,33,35,37)       -141.4978         estimate D2E/DX2                !
 ! D249  D(73,33,35,9)         151.9766         estimate D2E/DX2                !
 ! D250  D(73,33,35,37)         -2.7751         estimate D2E/DX2                !
 ! D251  D(31,33,73,71)          5.8226         estimate D2E/DX2                !
 ! D252  D(31,33,73,75)        147.9891         estimate D2E/DX2                !
 ! D253  D(35,33,73,71)       -137.8646         estimate D2E/DX2                !
 ! D254  D(35,33,73,75)          4.3019         estimate D2E/DX2                !
 ! D255  D(32,34,36,12)        -12.6875         estimate D2E/DX2                !
 ! D256  D(32,34,36,38)        141.5033         estimate D2E/DX2                !
 ! D257  D(74,34,36,12)       -152.0686         estimate D2E/DX2                !
 ! D258  D(74,34,36,38)          2.1222         estimate D2E/DX2                !
 ! D259  D(32,34,74,72)         -5.3698         estimate D2E/DX2                !
 ! D260  D(32,34,74,76)       -147.8955         estimate D2E/DX2                !
 ! D261  D(36,34,74,72)        139.0822         estimate D2E/DX2                !
 ! D262  D(36,34,74,76)         -3.4436         estimate D2E/DX2                !
 ! D263  D(9,35,37,39)           0.1614         estimate D2E/DX2                !
 ! D264  D(9,35,37,77)        -156.407          estimate D2E/DX2                !
 ! D265  D(33,35,37,39)        154.3723         estimate D2E/DX2                !
 ! D266  D(33,35,37,77)         -2.1961         estimate D2E/DX2                !
 ! D267  D(12,36,38,42)          1.5941         estimate D2E/DX2                !
 ! D268  D(12,36,38,78)        154.4407         estimate D2E/DX2                !
 ! D269  D(34,36,38,42)       -151.9315         estimate D2E/DX2                !
 ! D270  D(34,36,38,78)          0.9151         estimate D2E/DX2                !
 ! D271  D(35,37,39,43)          3.3596         estimate D2E/DX2                !
 ! D272  D(35,37,39,79)       -160.337          estimate D2E/DX2                !
 ! D273  D(77,37,39,43)        159.9174         estimate D2E/DX2                !
 ! D274  D(77,37,39,79)         -3.7792         estimate D2E/DX2                !
 ! D275  D(35,37,77,75)          5.7702         estimate D2E/DX2                !
 ! D276  D(35,37,77,81)        144.0236         estimate D2E/DX2                !
 ! D277  D(39,37,77,75)       -151.0651         estimate D2E/DX2                !
 ! D278  D(39,37,77,81)        -12.8117         estimate D2E/DX2                !
 ! D279  D(36,38,42,46)         -4.8488         estimate D2E/DX2                !
 ! D280  D(36,38,42,80)        147.6841         estimate D2E/DX2                !
 ! D281  D(78,38,42,46)       -158.2551         estimate D2E/DX2                !
 ! D282  D(78,38,42,80)         -5.7221         estimate D2E/DX2                !
 ! D283  D(36,38,78,76)         -2.7157         estimate D2E/DX2                !
 ! D284  D(36,38,78,81)       -144.7537         estimate D2E/DX2                !
 ! D285  D(42,38,78,76)        150.9132         estimate D2E/DX2                !
 ! D286  D(42,38,78,81)          8.8751         estimate D2E/DX2                !
 ! D287  D(37,39,43,2)        -158.6153         estimate D2E/DX2                !
 ! D288  D(37,39,43,13)         -4.2005         estimate D2E/DX2                !
 ! D289  D(79,39,43,2)           5.9479         estimate D2E/DX2                !
 ! D290  D(79,39,43,13)        160.3627         estimate D2E/DX2                !
 ! D291  D(37,39,79,40)        132.5408         estimate D2E/DX2                !
 ! D292  D(37,39,79,82)         20.5888         estimate D2E/DX2                !
 ! D293  D(37,39,79,85)       -104.0328         estimate D2E/DX2                !
 ! D294  D(43,39,79,40)        -31.7284         estimate D2E/DX2                !
 ! D295  D(43,39,79,82)       -143.6803         estimate D2E/DX2                !
 ! D296  D(43,39,79,85)         91.698          estimate D2E/DX2                !
 ! D297  D(44,40,41,45)          3.2529         estimate D2E/DX2                !
 ! D298  D(44,40,41,80)       -148.0382         estimate D2E/DX2                !
 ! D299  D(79,40,41,45)        160.5039         estimate D2E/DX2                !
 ! D300  D(79,40,41,80)          9.2128         estimate D2E/DX2                !
 ! D301  D(41,40,44,2)         159.5037         estimate D2E/DX2                !
 ! D302  D(41,40,44,47)         -4.4277         estimate D2E/DX2                !
 ! D303  D(79,40,44,2)           5.9392         estimate D2E/DX2                !
 ! D304  D(79,40,44,47)       -157.9922         estimate D2E/DX2                !
 ! D305  D(41,40,79,39)       -129.1056         estimate D2E/DX2                !
 ! D306  D(41,40,79,82)        -10.4592         estimate D2E/DX2                !
 ! D307  D(41,40,79,85)        108.3471         estimate D2E/DX2                !
 ! D308  D(44,40,79,39)         27.0104         estimate D2E/DX2                !
 ! D309  D(44,40,79,82)        145.6568         estimate D2E/DX2                !
 ! D310  D(44,40,79,85)        -95.5369         estimate D2E/DX2                !
 ! D311  D(40,41,45,4)        -152.9628         estimate D2E/DX2                !
 ! D312  D(40,41,45,48)          0.4756         estimate D2E/DX2                !
 ! D313  D(80,41,45,4)          -5.4226         estimate D2E/DX2                !
 ! D314  D(80,41,45,48)        148.0158         estimate D2E/DX2                !
 ! D315  D(40,41,80,42)        144.3457         estimate D2E/DX2                !
 ! D316  D(40,41,80,82)         -3.6178         estimate D2E/DX2                !
 ! D317  D(45,41,80,42)         -6.72           estimate D2E/DX2                !
 ! D318  D(45,41,80,82)       -154.6836         estimate D2E/DX2                !
 ! D319  D(38,42,46,4)         148.4376         estimate D2E/DX2                !
 ! D320  D(38,42,46,14)          3.3314         estimate D2E/DX2                !
 ! D321  D(80,42,46,4)          -5.3504         estimate D2E/DX2                !
 ! D322  D(80,42,46,14)       -150.4566         estimate D2E/DX2                !
 ! D323  D(38,42,80,41)       -141.8883         estimate D2E/DX2                !
 ! D324  D(38,42,80,82)          1.7097         estimate D2E/DX2                !
 ! D325  D(46,42,80,41)         11.8933         estimate D2E/DX2                !
 ! D326  D(46,42,80,82)        155.4913         estimate D2E/DX2                !
 ! D327  D(2,44,47,48)        -161.0099         estimate D2E/DX2                !
 ! D328  D(2,44,47,49)          -4.5816         estimate D2E/DX2                !
 ! D329  D(40,44,47,48)          2.0196         estimate D2E/DX2                !
 ! D330  D(40,44,47,49)        158.4479         estimate D2E/DX2                !
 ! D331  D(4,45,48,47)         149.1659         estimate D2E/DX2                !
 ! D332  D(4,45,48,50)          -4.8159         estimate D2E/DX2                !
 ! D333  D(41,45,48,47)         -2.7908         estimate D2E/DX2                !
 ! D334  D(41,45,48,50)       -156.7726         estimate D2E/DX2                !
 ! D335  D(44,47,48,45)          1.6186         estimate D2E/DX2                !
 ! D336  D(44,47,48,50)        155.1713         estimate D2E/DX2                !
 ! D337  D(49,47,48,45)       -154.7596         estimate D2E/DX2                !
 ! D338  D(49,47,48,50)         -1.2068         estimate D2E/DX2                !
 ! D339  D(44,47,49,10)        -10.2168         estimate D2E/DX2                !
 ! D340  D(44,47,49,51)       -148.4224         estimate D2E/DX2                !
 ! D341  D(48,47,49,10)        146.6052         estimate D2E/DX2                !
 ! D342  D(48,47,49,51)          8.3996         estimate D2E/DX2                !
 ! D343  D(45,48,50,11)          8.4929         estimate D2E/DX2                !
 ! D344  D(45,48,50,52)        147.8119         estimate D2E/DX2                !
 ! D345  D(47,48,50,11)       -145.6567         estimate D2E/DX2                !
 ! D346  D(47,48,50,52)         -6.3377         estimate D2E/DX2                !
 ! D347  D(10,49,51,52)       -151.6981         estimate D2E/DX2                !
 ! D348  D(10,49,51,55)         -6.426          estimate D2E/DX2                !
[...]
 Alpha virt. eigenvalues --    1.15699   1.16310   1.16372   1.16630   1.16828
 Alpha virt. eigenvalues --    1.16957   1.17189   1.17589   1.17703   1.18111
 Alpha virt. eigenvalues --    1.18373   1.18625   1.18758   1.19055   1.19382
 Alpha virt. eigenvalues --    1.19731   1.19955   1.20090   1.20531   1.20865
 Alpha virt. eigenvalues --    1.21389   1.21795   1.22103   1.22391   1.23050
 Alpha virt. eigenvalues --    1.23133   1.23595   1.23936   1.23998   1.24122
 Alpha virt. eigenvalues --    1.24532   1.24782   1.25158   1.25424   1.25627
 Alpha virt. eigenvalues --    1.25947   1.26591   1.26717   1.27031   1.27524
 Alpha virt. eigenvalues --    1.27586   1.27800   1.27896   1.28181   1.28350
 Alpha virt. eigenvalues --    1.28872   1.28933   1.29477   1.30055   1.30173
 Alpha virt. eigenvalues --    1.30770   1.30891   1.31328   1.31491   1.31905
 Alpha virt. eigenvalues --    1.32011   1.32345   1.32692   1.33054   1.33703
 Alpha virt. eigenvalues --    1.33866   1.34229   1.34754   1.34771   1.35213
 Alpha virt. eigenvalues --    1.35422   1.35792   1.36232   1.36410   1.36738
 Alpha virt. eigenvalues --    1.37557   1.38561   1.38869   1.39303   1.39729
 Alpha virt. eigenvalues --    1.40263   1.40869   1.41055   1.41454   1.42360
 Alpha virt. eigenvalues --    1.42694   1.43437   1.44586   1.45083   1.45310
 Alpha virt. eigenvalues --    1.45781   1.46723   1.47156   1.47269   1.47580
 Alpha virt. eigenvalues --    1.48583   1.48977   1.49304   1.49777   1.50010
 Alpha virt. eigenvalues --    1.51043   1.51073   1.51925   1.52395   1.53033
 Alpha virt. eigenvalues --    1.53559   1.53949   1.54680   1.55234   1.55359
 Alpha virt. eigenvalues --    1.55456   1.55948   1.56372   1.56757   1.57038
 Alpha virt. eigenvalues --    1.57485   1.57703   1.58111   1.58372   1.58634
 Alpha virt. eigenvalues --    1.59024   1.59548   1.60715   1.61551   1.62886
 Alpha virt. eigenvalues --    1.63141   1.63973   1.64199   1.64505   1.64767
 Alpha virt. eigenvalues --    1.65062   1.65245   1.65477   1.65787   1.65857
 Alpha virt. eigenvalues --    1.65957   1.66419   1.66695   1.67193   1.67302
 Alpha virt. eigenvalues --    1.67391   1.67582   1.68036   1.68359   1.68655
 Alpha virt. eigenvalues --    1.68862   1.69263   1.69587   1.70036   1.70222
 Alpha virt. eigenvalues --    1.70312   1.70490   1.70905   1.71049   1.71268
 Alpha virt. eigenvalues --    1.71550   1.71793   1.72084   1.72242   1.72368
 Alpha virt. eigenvalues --    1.72499   1.72736   1.73089   1.73380   1.73531
 Alpha virt. eigenvalues --    1.73810   1.74004   1.74167   1.74227   1.74468
 Alpha virt. eigenvalues --    1.74857   1.75313   1.75518   1.75839   1.76065
 Alpha virt. eigenvalues --    1.76569   1.76639   1.76917   1.77199   1.77281
 Alpha virt. eigenvalues --    1.77569   1.77718   1.77989   1.78295   1.78661
 Alpha virt. eigenvalues --    1.78890   1.79083   1.79189   1.79347   1.79803
 Alpha virt. eigenvalues --    1.79984   1.80003   1.81017   1.81340   1.82023
 Alpha virt. eigenvalues --    1.82363   1.82704   1.83333   1.83916   1.83974
 Alpha virt. eigenvalues --    1.84662   1.84882   1.85715   1.86628   1.86954
 Alpha virt. eigenvalues --    1.87612   1.88045   1.88618   1.89222   1.90326
 Alpha virt. eigenvalues --    1.90451   1.90794   1.91461   1.92069   1.92307
 Alpha virt. eigenvalues --    1.92740   1.92969   1.93332   1.93842   1.94397
 Alpha virt. eigenvalues --    1.94727   1.94797   1.95029   1.95201   1.95749
 Alpha virt. eigenvalues --    1.95825   1.96119   1.96319   1.96457   1.96874
 Alpha virt. eigenvalues --    1.97600   1.97622   1.98050   1.98217   1.98438
 Alpha virt. eigenvalues --    1.98614   1.98963   1.99075   1.99223   1.99457
 Alpha virt. eigenvalues --    1.99511   1.99657   2.00045   2.00343   2.00443
 Alpha virt. eigenvalues --    2.00839   2.00975   2.01103   2.01391   2.01515
 Alpha virt. eigenvalues --    2.01800   2.01928   2.02407   2.02508   2.02620
 Alpha virt. eigenvalues --    2.03049   2.03250   2.03493   2.03747   2.03931
 Alpha virt. eigenvalues --    2.03956   2.04394   2.04600   2.04689   2.05025
 Alpha virt. eigenvalues --    2.05402   2.05779   2.06246   2.06528   2.06743
 Alpha virt. eigenvalues --    2.06940   2.07218   2.07733   2.07930   2.08720
 Alpha virt. eigenvalues --    2.08969   2.09606   2.10318   2.10851   2.11397
 Alpha virt. eigenvalues --    2.12176   2.12380   2.12544   2.13232   2.13409
 Alpha virt. eigenvalues --    2.13678   2.14206   2.14270   2.15031   2.15582
 Alpha virt. eigenvalues --    2.16041   2.16638   2.16915   2.17614   2.18929
 Alpha virt. eigenvalues --    2.18994   2.19762   2.20043   2.20255   2.20819
 Alpha virt. eigenvalues --    2.21353   2.21546   2.21826   2.22014   2.22386
 Alpha virt. eigenvalues --    2.22941   2.23404   2.23946   2.24234   2.24678
 Alpha virt. eigenvalues --    2.24912   2.25436   2.25618   2.26010   2.26554
 Alpha virt. eigenvalues --    2.26879   2.27441   2.27694   2.28013   2.28537
 Alpha virt. eigenvalues --    2.28815   2.28873   2.29074   2.29465   2.29753
 Alpha virt. eigenvalues --    2.30108   2.30600   2.30993   2.31569   2.32297
 Alpha virt. eigenvalues --    2.32492   2.32827   2.32973   2.33665   2.34211
 Alpha virt. eigenvalues --    2.34359   2.35047   2.35570   2.36034   2.36388
 Alpha virt. eigenvalues --    2.38754   2.39187   2.39583   2.40278   2.40809
 Alpha virt. eigenvalues --    2.41353   2.41934   2.42327   2.42957   2.43278
 Alpha virt. eigenvalues --    2.43413   2.44104   2.44322   2.44769   2.45556
 Alpha virt. eigenvalues --    2.45653   2.46130   2.46653   2.47666   2.48156
 Alpha virt. eigenvalues --    2.48753   2.49154   2.49707   2.49923   2.50494
 Alpha virt. eigenvalues --    2.50733   2.51404   2.51969   2.52768   2.53103
 Alpha virt. eigenvalues --    2.53254   2.53777   2.53867   2.54673   2.54782
 Alpha virt. eigenvalues --    2.55238   2.55454   2.56184   2.56618   2.56934
 Alpha virt. eigenvalues --    2.57262   2.57738   2.58019   2.58351   2.58583
 Alpha virt. eigenvalues --    2.58698   2.58957   2.59130   2.59417   2.59548
 Alpha virt. eigenvalues --    2.59942   2.60329   2.60517   2.60732   2.60984
 Alpha virt. eigenvalues --    2.61263   2.61920   2.62281   2.62603   2.63232
 Alpha virt. eigenvalues --    2.63388   2.63574   2.63803   2.64357   2.64723
 Alpha virt. eigenvalues --    2.64987   2.65284   2.65581   2.65804   2.66248
 Alpha virt. eigenvalues --    2.66577   2.66906   2.67250   2.67459   2.67484
 Alpha virt. eigenvalues --    2.67780   2.68215   2.68478   2.68645   2.68992
 Alpha virt. eigenvalues --    2.69238   2.69490   2.69828   2.70447   2.70922
 Alpha virt. eigenvalues --    2.71402   2.71851   2.72391   2.72842   2.73297
 Alpha virt. eigenvalues --    2.73665   2.75365   2.75544   2.76487   2.76665
 Alpha virt. eigenvalues --    2.77752   2.78197   2.78650   2.78942   2.79887
 Alpha virt. eigenvalues --    2.80090   2.80217   2.81026   2.81456   2.81638
 Alpha virt. eigenvalues --    2.81989   2.82457   2.82482   2.82799   2.83168
 Alpha virt. eigenvalues --    2.83668   2.83869   2.83957   2.84125   2.85237
 Alpha virt. eigenvalues --    2.85645   2.85892   2.86465   2.87186   2.87747
 Alpha virt. eigenvalues --    2.88271   2.88991   2.89391   2.89544   2.90149
 Alpha virt. eigenvalues --    2.90528   2.90623   2.91119   2.91530   2.91927
 Alpha virt. eigenvalues --    2.91957   2.92481   2.92691   2.92950   2.93332
 Alpha virt. eigenvalues --    2.94290   2.94677   2.95097   2.95691   2.96316
 Alpha virt. eigenvalues --    2.96589   2.97262   2.97312   2.98022   2.99256
 Alpha virt. eigenvalues --    2.99870   3.00716   3.00806   3.01753   3.03219
 Alpha virt. eigenvalues --    3.04493   3.04858   3.05473   3.07285   3.09966
 Alpha virt. eigenvalues --    3.11164   3.12307   3.13898   3.15579   3.16669
 Alpha virt. eigenvalues --    3.17665   3.19615   3.19976   3.22714   3.23044
 Alpha virt. eigenvalues --    3.24774   3.27269   3.27973   3.30161   3.30694
 Alpha virt. eigenvalues --    3.33808   3.34959   3.35295   3.37763   3.37920
 Alpha virt. eigenvalues --    3.39218   3.39547   3.42010   3.43788   3.46214
 Alpha virt. eigenvalues --    3.47265   3.49461   3.51857   3.53405   3.54316
 Alpha virt. eigenvalues --    3.56782   3.61875   3.62073   4.00443   4.01929
 Alpha virt. eigenvalues --    4.02419   4.02680   4.03308   4.03480   4.04106
 Alpha virt. eigenvalues --    4.04969   4.05379   4.05947   4.06829   4.06855
 Alpha virt. eigenvalues --    4.07107   4.07298   4.08503   4.08918   4.09626
 Alpha virt. eigenvalues --    4.10118   4.10618   4.11675   4.12365   4.12798
 Alpha virt. eigenvalues --    4.14170   4.15367   4.16190   4.16687   4.17450
 Alpha virt. eigenvalues --    4.19216   4.20687   4.20868   4.21389   4.21553
 Alpha virt. eigenvalues --    4.22399   4.23018   4.23221   4.25100   4.26613
 Alpha virt. eigenvalues --    4.27498   4.28684   4.29120   4.29912   4.30691
 Alpha virt. eigenvalues --    4.31160   4.31987   4.34141   4.35221   4.37501
 Alpha virt. eigenvalues --    4.38705   4.40582   4.42034   4.42391   4.45763
 Alpha virt. eigenvalues --    4.46428   4.48810   4.49007   4.49471   4.51561
 Alpha virt. eigenvalues --    4.53218   4.54951   4.56001   4.58378   4.58711
 Alpha virt. eigenvalues --    4.60642   4.61503   4.65864   4.67706   4.67827
 Alpha virt. eigenvalues --    4.68159   4.70876   4.75492   4.77263   4.81383
 Alpha virt. eigenvalues --    4.83966   4.85100   4.88139   4.89370   4.93618
 Alpha virt. eigenvalues --    4.94410   4.99947   5.03649   5.09195   5.13439
 Alpha virt. eigenvalues --    5.16145   5.18292   5.25140   5.29997
          Condensed to atoms (all electrons):
 Mulliken charges:
               1
     1  C   -0.018802
     2  C   -0.361391
     3  C   -0.023368
     4  C   -0.021224
     5  C   -0.017303
     6  C    0.073997
     7  C   -0.019324
     8  C   -0.017144
     9  C    0.046335
    10  C    0.004465
    11  C   -0.001271
    12  C    0.054090
    13  C    0.003218
    14  C   -0.029656
    15  C    0.012058
    16  C   -0.024144
    17  C    0.046850
    18  C    0.057254
    19  C    0.055667
    20  C    0.056279
    21  C   -0.021512
    22  C   -0.021975
    23  C   -0.012786
    24  C   -0.015440
    25  C   -0.013834
    26  C   -0.012677
    27  C   -0.020918
    28  C   -0.020048
    29  C   -0.018674
    30  C   -0.018213
    31  C   -0.011285
    32  C   -0.013752
    33  C   -0.022539
    34  C   -0.024595
    35  C    0.039084
    36  C    0.042616
    37  C    0.069784
    38  C    0.043592
    39  C    0.119556
    40  C    0.077982
    41  C    0.000514
    42  C    0.045278
    43  C    0.078577
    44  C    0.119062
    45  C    0.045392
    46  C   -0.029318
    47  C    0.072206
    48  C    0.041400
    49  C   -0.044993
    50  C   -0.024748
    51  C   -0.006888
    52  C   -0.013455
    53  C   -0.021968
    54  C   -0.023254
    55  C   -0.019995
    56  C   -0.021052
    57  C   -0.021693
    58  C   -0.020346
    59  C   -0.014549
    60  C   -0.013124
    61  C   -0.019865
    62  C   -0.019560
    63  C    0.039059
    64  C    0.038207
    65  C    0.040518
    66  C    0.038009
    67  C    0.039070
    68  C    0.038118
    69  C   -0.020772
    70  C   -0.020952
    71  C   -0.006937
    72  C   -0.006908
    73  C   -0.005476
    74  C   -0.004656
    75  C   -0.000986
    76  C   -0.005724
    77  C   -0.044284
    78  C   -0.021644
    79  C   -0.362281
    80  C    0.012668
    81  C    0.003385
    82  C    0.073741
    83  C    0.055260
    84  C    0.055913
    85  Cl  -0.020849
    86  Cl  -0.021050
 Sum of Mulliken charges =  -0.00000
 Mulliken charges with hydrogens summed into heavy atoms:
               1
     1  C   -0.018802
     2  C   -0.361391
     3  C   -0.023368
     4  C   -0.021224
     5  C   -0.017303
     6  C    0.073997
     7  C   -0.019324
     8  C   -0.017144
     9  C    0.046335
    10  C    0.004465
    11  C   -0.001271
    12  C    0.054090
    13  C    0.003218
    14  C   -0.029656
    15  C    0.012058
    16  C   -0.024144
    17  C    0.046850
    18  C    0.057254
    19  C    0.055667
    20  C    0.056279
    21  C   -0.021512
    22  C   -0.021975
    23  C   -0.012786
    24  C   -0.015440
    25  C   -0.013834
    26  C   -0.012677
    27  C   -0.020918
    28  C   -0.020048
    29  C   -0.018674
    30  C   -0.018213
    31  C   -0.011285
    32  C   -0.013752
    33  C   -0.022539
    34  C   -0.024595
    35  C    0.039084
    36  C    0.042616
    37  C    0.069784
    38  C    0.043592
    39  C    0.119556
    40  C    0.077982
    41  C    0.000514
    42  C    0.045278
    43  C    0.078577
    44  C    0.119062
    45  C    0.045392
    46  C   -0.029318
    47  C    0.072206
    48  C    0.041400
    49  C   -0.044993
    50  C   -0.024748
    51  C   -0.006888
    52  C   -0.013455
    53  C   -0.021968
    54  C   -0.023254
    55  C   -0.019995
    56  C   -0.021052
    57  C   -0.021693
    58  C   -0.020346
    59  C   -0.014549
    60  C   -0.013124
    61  C   -0.019865
    62  C   -0.019560
    63  C    0.039059
    64  C    0.038207
    65  C    0.040518
    66  C    0.038009
    67  C    0.039070
    68  C    0.038118
    69  C   -0.020772
    70  C   -0.020952
    71  C   -0.006937
    72  C   -0.006908
    73  C   -0.005476
    74  C   -0.004656
    75  C   -0.000986
    76  C   -0.005724
    77  C   -0.044284
    78  C   -0.021644
    79  C   -0.362281
    80  C    0.012668
    81  C    0.003385
    82  C    0.073741
    83  C    0.055260
    84  C    0.055913
    85  Cl  -0.020849
    86  Cl  -0.021050
 Electronic spatial extent (au):  <R**2>=          37418.1001
 Charge=              0.0000 electrons
 Dipole moment (field-independent basis, Debye):
    X=              3.3036    Y=              0.1932    Z=              0.6732  Tot=              3.3771
 Quadrupole moment (field-independent basis, Debye-Ang):
   XX=           -501.7476   YY=           -477.1115   ZZ=           -475.8461
   XY=             -1.8322   XZ=             -3.4942   YZ=              0.5228
 Traceless Quadrupole moment (field-independent basis, Debye-Ang):
   XX=            -16.8458   YY=              7.7902   ZZ=              9.0556
   XY=             -1.8322   XZ=             -3.4942   YZ=              0.5228
 Octapole moment (field-independent basis, Debye-Ang**2):
  XXX=             58.4726  YYY=             -1.8632  ZZZ=             -6.5559  XYY=            -12.1611
  XXY=              5.7572  XXZ=             16.8101  XZZ=            -28.6030  YZZ=             -3.4804
  YYZ=             -2.1439  XYZ=             -3.3209
 Hexadecapole moment (field-independent basis, Debye-Ang**3):
 XXXX=         -21597.3274 YYYY=         -18209.6154 ZZZZ=         -16140.9653 XXXY=            -18.4312
 XXXZ=            -40.0844 YYYX=              3.6807 YYYZ=            -17.1449 ZZZX=             42.6696
 ZZZY=            -19.5843 XXYY=          -6601.9818 XXZZ=          -6178.7802 YYZZ=          -5725.4381
 XXYZ=             26.2228 YYXZ=              7.3983 ZZXY=             17.7098
 N-N= 1.560520035812D+04 E-N=-4.080385501660D+04  KE= 4.088621286662D+03
 No NMR shielding tensors so no spin-rotation constants.
 Leave Link  601 at Tue Jun 28 23:22:10 2022, MaxMem=  1342177280 cpu:              22.3 elap:               1.1
 (Enter /home/mkliu/g16/l9999.exe)
 1\1\GINC-NODE02\FOpt\RB3LYP\6-31G(d,p)\C84Cl2\MKLIU\28-Jun-2022\0\\#P 
 opt b3lyp/6-31G(d, p) empiricaldispersion=GD3\\force\\0,1\C,8.26099007
 68,18.8578841303,10.5436323403\C,12.4885443824,19.989713549,8.89900596
 91\C,8.2599285079,26.9193087486,10.5515615664\C,12.2869544459,25.61166
 05857,8.9657714746\C,7.9403529079,18.9005554998,9.1567605049\C,11.8751
 142168,19.5575683322,10.2096520878\C,7.9455158941,26.872419908,9.16261
 22682\C,11.8620070891,26.1977005554,10.212183728\C,8.9368424523,19.087
 5869363,8.1566180479\C,12.1348804656,20.2135086107,11.3721588833\C,12.
 131077836,25.5520435566,11.3904200635\C,8.9474163414,26.7004983259,8.1
 62200672\C,10.2753473483,19.0505109009,8.6154831307\C,10.2807691673,26
 .7640801483,8.6278084567\C,10.6019166016,18.9384670319,9.9998858007\C,
 10.5985462369,26.8784988276,10.0126460177\C,9.5972077348,18.9350578862
 ,11.0105536394\C,9.5961967391,26.8552369152,11.021197782\C,9.877893302
 3,19.6241277894,12.2702404336\C,9.8768766303,26.15240009,12.2838101049
 \C,8.8018745594,20.2304754862,12.9757924244\C,8.7999107568,25.53965863
 11,12.9805417109\C,7.4600372454,20.2192028595,12.4148628229\C,7.456842
 382,25.5463884238,12.4181064238\C,7.1936686091,19.5433970231,11.254348
 519\C,7.1935381714,26.2194438839,11.2568284248\C,6.2691107155,20.10052
 94407,10.3045984947\C,6.2748750325,25.6603902102,10.3050279087\C,6.660
 9272378,19.5667938672,9.0291103287\C,6.6722306778,26.1934465777,9.0326
 418807\C,6.3538113941,20.2372158321,7.8827774108\C,6.3689869407,25.522
 6060143,7.884894206\C,7.2937689397,20.285973778,6.7728422029\C,7.31180
 76565,25.4769750394,6.7797907802\C,8.6343640105,19.8421386591,6.946990
 9302\C,8.6434721669,25.9329016092,6.946745621\C,9.7028396397,20.582047
 3194,6.2832014718\C,9.7100351633,25.1829662904,6.281679597\C,11.052556
 2131,20.5474004254,6.8448922429\C,12.7825047543,22.1462418801,7.759717
 2596\C,12.7376517795,23.5847539568,7.7605543102\C,11.0501708145,25.183
 8609263,6.8586798957\C,11.3156013298,19.7731863025,7.9388115368\C,12.9
 432701268,21.4406303626,8.9165491822\C,12.9182015807,24.3325015018,8.9
 426149262\C,11.3303235576,25.988579943,7.9801945844\C,13.1648192255,22
 .1572640255,10.1740642896\C,13.1693062926,23.6165848105,10.1825851127\
 C,12.8546399152,21.4879594245,11.3789973018\C,12.8496098921,24.2896705
 76,11.3937342591\C,12.3984345578,22.1962445352,12.5284655227\C,12.4005
 046474,23.5792597057,12.5394834716\C,11.1487316957,20.2378131581,12.43
 6267017\C,11.1499940315,25.5433606099,12.4633665196\C,11.308384229,21.
 4604091093,13.1520636641\C,11.3075629226,24.3130615235,13.1672114069\C
 ,8.9598738238,21.4588108034,13.6775485781\C,8.9585765407,24.307274739,
 13.6755461111\C,7.7153814328,22.1978284572,13.537699306\C,7.7136955246
 ,23.5658965037,13.5366108108\C,6.8256383927,21.4854247404,12.659081394
 2\C,6.8259902705,24.2771671389,12.6585216236\C,6.0605747501,22.1503012
 007,11.6601872296\C,6.0599671387,23.6113577212,11.6593341502\C,5.76055
 10773,21.4210372548,10.4294104268\C,5.7627025346,24.3387728182,10.4294
 438131\C,5.4377766629,22.1496266264,9.1999286487\C,5.4414249814,23.611
 7466378,9.2014216686\C,5.63186191,21.4841213352,7.956120075\C,5.643991
 0687,24.2762608188,7.9573319542\C,5.9469598697,22.1910191527,6.7447151
 965\C,5.9530749545,23.5679570595,6.7481831581\C,6.9814262682,21.453957
 4538,6.0283799244\C,6.997243187,24.2986054915,6.0354502532\C,8.0029853
 751,22.1446169617,5.375841645\C,8.0051441226,23.6031485727,5.384774809
 2\C,9.3455744361,21.6848947575,5.4675975979\C,9.3558665292,24.05839447
 89,5.4936264504\C,12.0780153299,21.6194769549,6.5079778601\C,11.872547
 0578,24.0238589481,6.7151850674\C,10.1998348735,22.8781431593,5.421636
 6668\C,11.4328730694,22.8797716996,5.9885181074\C,10.2038918415,22.146
 6068713,13.7245227729\C,10.2033064971,23.620768909,13.7298214953\Cl,13
 .3116108065,20.9677108236,5.2738114952\Cl,13.9132852731,18.8689355741,
 8.4641082651\\Version=ES64L-G16RevA.03\State=1-A\HF=-4121.4202892\RMSD
 =1.962e-09\RMSF=8.491e-05\Dipole=-1.0250199,0.5696387,0.6246004\Quadru
 pole=-3.8260813,1.9381642,1.8879171,7.5220638,6.6453212,-3.8603178\PG=
 C01 [X(C84Cl2)]\\@


 IT IS IMPOSSIBLE TO MEDITATE ON TIME AND THE MYSTERY 
 OF NATURE WITHOUT AN OVERWHELMING EMOTION AT THE
 LIMITATIONS OF HUMAN INTELLIGENCE.

                                         -- ALFRED NORTH WHITEHEAD
 Job cpu time:       0 days 23 hours 21 minutes 21.4 seconds.
 Elapsed time:       0 days  0 hours 58 minutes 28.8 seconds.
 File lengths (MBytes):  RWF=   1037 Int=      0 D2E=      0 Chk=    131 Scr=      1
 Normal termination of Gaussian 16 at Tue Jun 28 23:22:11 2022.
