 Entering Gaussian System, Link 0=g16
 Input=2_addons_C84_14_Cl22_rank_7.gjf
 Output=2_addons_C84_14_Cl22_rank_7.log
 Initial command:
 /home/mkliu/g16/l1.exe "/data/scratch/Gau-200093.inp" -scrdir="/data/scratch/"
 Entering Link 1 = /home/mkliu/g16/l1.exe PID=    200094.
  
 Copyright (c) 1988,1990,1992,1993,1995,1998,2003,2009,2016,
            Gaussian, Inc.  All Rights Reserved.
  
 This is part of the Gaussian(R) 16 program.  It is based on
 the Gaussian(R) 09 system (copyright 2009, Gaussian, Inc.),
 the Gaussian(R) 03 system (copyright 2003, Gaussian, Inc.),
 the Gaussian(R) 98 system (copyright 1998, Gaussian, Inc.),
 the Gaussian(R) 94 system (copyright 1995, Gaussian, Inc.),
 the Gaussian 92(TM) system (copyright 1992, Gaussian, Inc.),
 the Gaussian 90(TM) system (copyright 1990, Gaussian, Inc.),
 the Gaussian 88(TM) system (copyright 1988, Gaussian, Inc.),
 the Gaussian 86(TM) system (copyright 1986, Carnegie Mellon
 University), and the Gaussian 82(TM) system (copyright 1983,
 Carnegie Mellon University). Gaussian is a federally registered
 trademark of Gaussian, Inc.
  
 This software contains proprietary and confidential information,
 including trade secrets, belonging to Gaussian, Inc.
  
 This software is provided under written license and may be
 used, copied, transmitted, or stored only in accord with that
 written license.
  
 The following legend is applicable only to US Government
 contracts under FAR:
  
                    RESTRICTED RIGHTS LEGEND
  
 Use, reproduction and disclosure by the US Government is
 subject to restrictions as set forth in subparagraphs (a)
 and (c) of the Commercial Computer Software - Restricted
 Rights clause in FAR 52.227-19.
  
 Gaussian, Inc.
 340 Quinnipiac St., Bldg. 40, Wallingford CT 06492
  
  
 ---------------------------------------------------------------
 Warning -- This program may not be used in any manner that
 competes with the business of Gaussian, Inc. or will provide
 assistance to any competitor of Gaussian, Inc.  The licensee
 of this program is prohibited from giving any competitor of
 Gaussian, Inc. access to this program.  By using this program,
 the user acknowledges that Gaussian, Inc. is engaged in the
 business of creating and licensing software in the field of
 computational chemistry and represents and warrants to the
 licensee that it is not a competitor of Gaussian, Inc. and that
 it will not use this program in any manner prohibited above.
 ---------------------------------------------------------------
  

 Cite this work as:
 Gaussian 16, Revision A.03,
 M. J. Frisch, G. W. Trucks, H. B. Schlegel, G. E. Scuseria, 
 M. A. Robb, J. R. Cheeseman, G. Scalmani, V. Barone, 
 G. A. Petersson, H. Nakatsuji, X. Li, M. Caricato, A. V. Marenich, 
 J. Bloino, B. G. Janesko, R. Gomperts, B. Mennucci, H. P. Hratchian, 
 J. V. Ortiz, A. F. Izmaylov, J. L. Sonnenberg, D. Williams-Young, 
 F. Ding, F. Lipparini, F. Egidi, J. Goings, B. Peng, A. Petrone, 
 T. Henderson, D. Ranasinghe, V. G. Zakrzewski, J. Gao, N. Rega, 
 G. Zheng, W. Liang, M. Hada, M. Ehara, K. Toyota, R. Fukuda, 
 J. Hasegawa, M. Ishida, T. Nakajima, Y. Honda, O. Kitao, H. Nakai, 
 T. Vreven, K. Throssell, J. A. Montgomery, Jr., J. E. Peralta, 
 F. Ogliaro, M. J. Bearpark, J. J. Heyd, E. N. Brothers, K. N. Kudin, 
 V. N. Staroverov, T. A. Keith, R. Kobayashi, J. Normand, 
 K. Raghavachari, A. P. Rendell, J. C. Burant, S. S. Iyengar, 
 J. Tomasi, M. Cossi, J. M. Millam, M. Klene, C. Adamo, R. Cammi, 
 J. W. Ochterski, R. L. Martin, K. Morokuma, O. Farkas, 
 J. B. Foresman, and D. J. Fox, Gaussian, Inc., Wallingford CT, 2016.
 
 ******************************************
 Gaussian 16:  ES64L-G16RevA.03 25-Dec-2016
                28-Jun-2022 
 ******************************************
 %mem=10GB
 %chk=2_addons_C84_14_Cl22_rank_7.chk
 %nprocshared=24
 Will use up to   24 processors via shared memory.
 ------------------------------------------------
 #P opt b3lyp/6-31G(d, p) empiricaldispersion=GD3
 ------------------------------------------------
 1/18=20,19=15,26=3,38=1/1,3;
 2/9=110,12=2,17=6,18=5,40=1/2;
 3/5=1,6=6,7=101,11=2,25=1,30=1,71=1,74=-5,124=31/1,2,3;
 4//1;
 5/5=2,38=5/2;
 6/7=2,8=2,9=2,10=2,28=1/1;
 7//1,2,3,16;
 1/18=20,19=15,26=3/3(2);
 2/9=110/2;
 99//99;
 2/9=110/2;
 3/5=1,6=6,7=101,11=2,25=1,30=1,71=1,74=-5,124=31/1,2,3;
 4/5=5,16=3,69=1/1;
 5/5=2,38=5/2;
 7//1,2,3,16;
 1/18=20,19=15,26=3/3(-5);
 2/9=110/2;
 6/7=2,8=2,9=2,10=2,19=2,28=1/1;
 99/9=1/99;
 Leave Link    1 at Tue Jun 28 21:46:26 2022, MaxMem=  1342177280 cpu:               0.6 elap:               0.0
 (Enter /home/mkliu/g16/l101.exe)
 -----
 force
 -----
 Symbolic Z-matrix:
 Charge =  0 Multiplicity = 1
 C                     8.27786   18.86278   10.54746 
 C                     12.27376   20.17171   8.9552 
 C                     8.27516   26.89416   10.55419 
 C                     12.26292   25.58131   8.975 
 C                     7.96221   18.9158   9.16341 
 C                     11.84998   19.59363   10.19587 
 C                     7.95976   26.84947   9.17023 
 C                     11.84453   26.17013   10.21065 
 C                     8.9496    19.11369   8.1714 
 C                     12.11439   20.24128   11.37214 
 C                     12.11724   25.52695   11.38787 
 C                     8.94589   26.67427   8.17236 
 C                     10.26973   19.05947   8.63941 
 C                     10.27035   26.7298   8.64045 
 C                     10.59489   18.91722   10.01094 
 C                     10.58924   26.84573   10.01567 
 C                     9.60455   18.92812   11.01836 
 C                     9.60057   26.82946   11.02625 
 C                     9.88119   19.62461   12.26244 
 C                     9.87956   26.13324   12.27053 
 C                     8.81521   20.23795   12.95554 
 C                     8.81331   25.51703   12.96257 
 C                     7.4828    20.22935   12.40186 
 C                     7.48204   25.52536   12.4077 
 C                     7.22033   19.55658   11.24252 
 C                     7.21803   26.20061   11.25018 
 C                     6.30725   20.12331   10.29761 
 C                     6.30237   25.63881   10.3071 
 C                     6.70162   19.58654   9.03739 
 C                     6.69453   26.17923   9.04638 
 C                     6.40764   20.26107   7.88366 
 C                     6.38642   25.51273   7.89703 
 C                     7.334     20.2952   6.79228 
 C                     7.32317   25.46871   6.80548 
 C                     8.6588    19.87944   6.97742 
 C                     8.6444    25.91219   6.97291 
 C                     9.7262    20.61522   6.32819 
 C                     9.69688   25.15868   6.32076 
 C                     11.00353   20.60838   6.86201 
 C                     12.77257   22.16482   7.75131 
 C                     12.71486   23.57943   7.76787 
 C                     11.02219   25.16149   6.88138 
 C                     11.30113   19.82469   7.99478 
 C                     12.92042   21.44907   8.92621 
 C                     12.90163   24.32071   8.9517 
 C                     11.30801   25.96115   7.99622 
 C                     13.1487   22.16432   10.17258 
 C                     13.15437   23.61038   10.18039 
 C                     12.82133   21.49953   11.36598 
 C                     12.82545   24.2756   11.38039 
 C                     12.37276   22.19744   12.52239 
 C                     12.37324   23.57014   12.53111 
 C                     11.14031   20.24592   12.43341 
 C                     11.13945   25.51825   12.44886 
 C                     11.2936   21.4647   13.1434 
 C                     11.29396   24.29801   13.15526 
 C                     8.96907   21.46362   13.65084 
 C                     8.96782   24.29185   13.6579 
 C                     7.73422   22.1939   13.5133 
 C                     7.73354   23.56036   13.516 
 C                     6.85207   21.49282   12.63283 
 C                     6.85103   24.26207   12.63693 
 C                     6.09964   22.15471   11.63939 
 C                     6.09906   23.60252   11.64192 
 C                     5.80729   21.43739   10.41953 
 C                     5.80343   24.32365   10.42484 
 C                     5.49501   22.15859   9.20343 
 C                     5.4871    23.60692   9.2075 
 C                     5.69288   21.50204   7.96856 
 C                     5.66929   24.27272   7.97564 
 C                     5.9936    22.2026   6.76182 
 C                     5.9738    23.57958   6.7634 
 C                     7.01336   21.48895   6.04047 
 C                     6.99825   24.29611   6.06071 
 C                     7.98655   22.16553   5.36216 
 C                     8.00304   23.59192   5.41642 
 C                     9.38207   21.62551   5.24551 
 C                     9.34943   24.03735   5.54278 
 C                     12.05712   21.63652   6.52338 
 C                     11.84403   24.0191   6.73143 
 C                     10.18985   22.88323   5.42409 
 C                     11.41342   22.88097   6.00133 
 C                     10.2021   22.15219   13.71322 
 C                     10.201    23.60591   13.71884 
 Cl                    13.23898   20.91091   5.35372 
 Cl                    9.66476   20.83733   3.62661 
 
 ITRead=  0  0  0  0  0  0  0  0  0  0  0  0  0  0  0  0  0  0  0  0
 ITRead=  0  0  0  0  0  0  0  0  0  0  0  0  0  0  0  0  0  0  0  0
 ITRead=  0  0  0  0  0  0  0  0  0  0  0  0  0  0  0  0  0  0  0  0
 ITRead=  0  0  0  0  0  0  0  0  0  0  0  0  0  0  0  0  0  0  0  0
 ITRead=  0  0  0  0  0  0
 MicOpt= -1 -1 -1 -1 -1 -1 -1 -1 -1 -1 -1 -1 -1 -1 -1 -1 -1 -1 -1 -1
 MicOpt= -1 -1 -1 -1 -1 -1 -1 -1 -1 -1 -1 -1 -1 -1 -1 -1 -1 -1 -1 -1
 MicOpt= -1 -1 -1 -1 -1 -1 -1 -1 -1 -1 -1 -1 -1 -1 -1 -1 -1 -1 -1 -1
 MicOpt= -1 -1 -1 -1 -1 -1 -1 -1 -1 -1 -1 -1 -1 -1 -1 -1 -1 -1 -1 -1
 MicOpt= -1 -1 -1 -1 -1 -1
 NAtoms=     86 NQM=       86 NQMF=       0 NMMI=      0 NMMIF=      0
                NMic=       0 NMicF=      0.
                    Isotopes and Nuclear Properties:
 (Nuclear quadrupole moments (NQMom) in fm**2, nuclear magnetic moments (NMagM)
  in nuclear magnetons)

  Atom         1           2           3           4           5           6           7           8           9          10
 IAtWgt=          12          12          12          12          12          12          12          12          12          12
 AtmWgt=  12.0000000  12.0000000  12.0000000  12.0000000  12.0000000  12.0000000  12.0000000  12.0000000  12.0000000  12.0000000
 NucSpn=           0           0           0           0           0           0           0           0           0           0
 AtZEff=  -0.0000000  -0.0000000  -0.0000000  -0.0000000  -0.0000000  -0.0000000  -0.0000000  -0.0000000  -0.0000000  -0.0000000
 NQMom=    0.0000000   0.0000000   0.0000000   0.0000000   0.0000000   0.0000000   0.0000000   0.0000000   0.0000000   0.0000000
 NMagM=    0.0000000   0.0000000   0.0000000   0.0000000   0.0000000   0.0000000   0.0000000   0.0000000   0.0000000   0.0000000
 AtZNuc=   6.0000000   6.0000000   6.0000000   6.0000000   6.0000000   6.0000000   6.0000000   6.0000000   6.0000000   6.0000000

  Atom        11          12          13          14          15          16          17          18          19          20
 IAtWgt=          12          12          12          12          12          12          12          12          12          12
 AtmWgt=  12.0000000  12.0000000  12.0000000  12.0000000  12.0000000  12.0000000  12.0000000  12.0000000  12.0000000  12.0000000
 NucSpn=           0           0           0           0           0           0           0           0           0           0
 AtZEff=  -0.0000000  -0.0000000  -0.0000000  -0.0000000  -0.0000000  -0.0000000  -0.0000000  -0.0000000  -0.0000000  -0.0000000
 NQMom=    0.0000000   0.0000000   0.0000000   0.0000000   0.0000000   0.0000000   0.0000000   0.0000000   0.0000000   0.0000000
 NMagM=    0.0000000   0.0000000   0.0000000   0.0000000   0.0000000   0.0000000   0.0000000   0.0000000   0.0000000   0.0000000
 AtZNuc=   6.0000000   6.0000000   6.0000000   6.0000000   6.0000000   6.0000000   6.0000000   6.0000000   6.0000000   6.0000000

  Atom        21          22          23          24          25          26          27          28          29          30
 IAtWgt=          12          12          12          12          12          12          12          12          12          12
 AtmWgt=  12.0000000  12.0000000  12.0000000  12.0000000  12.0000000  12.0000000  12.0000000  12.0000000  12.0000000  12.0000000
 NucSpn=           0           0           0           0           0           0           0           0           0           0
 AtZEff=  -0.0000000  -0.0000000  -0.0000000  -0.0000000  -0.0000000  -0.0000000  -0.0000000  -0.0000000  -0.0000000  -0.0000000
 NQMom=    0.0000000   0.0000000   0.0000000   0.0000000   0.0000000   0.0000000   0.0000000   0.0000000   0.0000000   0.0000000
 NMagM=    0.0000000   0.0000000   0.0000000   0.0000000   0.0000000   0.0000000   0.0000000   0.0000000   0.0000000   0.0000000
 AtZNuc=   6.0000000   6.0000000   6.0000000   6.0000000   6.0000000   6.0000000   6.0000000   6.0000000   6.0000000   6.0000000

  Atom        31          32          33          34          35          36          37          38          39          40
 IAtWgt=          12          12          12          12          12          12          12          12          12          12
 AtmWgt=  12.0000000  12.0000000  12.0000000  12.0000000  12.0000000  12.0000000  12.0000000  12.0000000  12.0000000  12.0000000
 NucSpn=           0           0           0           0           0           0           0           0           0           0
 AtZEff=  -0.0000000  -0.0000000  -0.0000000  -0.0000000  -0.0000000  -0.0000000  -0.0000000  -0.0000000  -0.0000000  -0.0000000
 NQMom=    0.0000000   0.0000000   0.0000000   0.0000000   0.0000000   0.0000000   0.0000000   0.0000000   0.0000000   0.0000000
 NMagM=    0.0000000   0.0000000   0.0000000   0.0000000   0.0000000   0.0000000   0.0000000   0.0000000   0.0000000   0.0000000
 AtZNuc=   6.0000000   6.0000000   6.0000000   6.0000000   6.0000000   6.0000000   6.0000000   6.0000000   6.0000000   6.0000000

  Atom        41          42          43          44          45          46          47          48          49          50
 IAtWgt=          12          12          12          12          12          12          12          12          12          12
 AtmWgt=  12.0000000  12.0000000  12.0000000  12.0000000  12.0000000  12.0000000  12.0000000  12.0000000  12.0000000  12.0000000
 NucSpn=           0           0           0           0           0           0           0           0           0           0
 AtZEff=  -0.0000000  -0.0000000  -0.0000000  -0.0000000  -0.0000000  -0.0000000  -0.0000000  -0.0000000  -0.0000000  -0.0000000
 NQMom=    0.0000000   0.0000000   0.0000000   0.0000000   0.0000000   0.0000000   0.0000000   0.0000000   0.0000000   0.0000000
 NMagM=    0.0000000   0.0000000   0.0000000   0.0000000   0.0000000   0.0000000   0.0000000   0.0000000   0.0000000   0.0000000
 AtZNuc=   6.0000000   6.0000000   6.0000000   6.0000000   6.0000000   6.0000000   6.0000000   6.0000000   6.0000000   6.0000000

  Atom        51          52          53          54          55          56          57          58          59          60
 IAtWgt=          12          12          12          12          12          12          12          12          12          12
 AtmWgt=  12.0000000  12.0000000  12.0000000  12.0000000  12.0000000  12.0000000  12.0000000  12.0000000  12.0000000  12.0000000
 NucSpn=           0           0           0           0           0           0           0           0           0           0
 AtZEff=  -0.0000000  -0.0000000  -0.0000000  -0.0000000  -0.0000000  -0.0000000  -0.0000000  -0.0000000  -0.0000000  -0.0000000
 NQMom=    0.0000000   0.0000000   0.0000000   0.0000000   0.0000000   0.0000000   0.0000000   0.0000000   0.0000000   0.0000000
 NMagM=    0.0000000   0.0000000   0.0000000   0.0000000   0.0000000   0.0000000   0.0000000   0.0000000   0.0000000   0.0000000
 AtZNuc=   6.0000000   6.0000000   6.0000000   6.0000000   6.0000000   6.0000000   6.0000000   6.0000000   6.0000000   6.0000000

  Atom        61          62          63          64          65          66          67          68          69          70
 IAtWgt=          12          12          12          12          12          12          12          12          12          12
 AtmWgt=  12.0000000  12.0000000  12.0000000  12.0000000  12.0000000  12.0000000  12.0000000  12.0000000  12.0000000  12.0000000
 NucSpn=           0           0           0           0           0           0           0           0           0           0
 AtZEff=  -0.0000000  -0.0000000  -0.0000000  -0.0000000  -0.0000000  -0.0000000  -0.0000000  -0.0000000  -0.0000000  -0.0000000
 NQMom=    0.0000000   0.0000000   0.0000000   0.0000000   0.0000000   0.0000000   0.0000000   0.0000000   0.0000000   0.0000000
 NMagM=    0.0000000   0.0000000   0.0000000   0.0000000   0.0000000   0.0000000   0.0000000   0.0000000   0.0000000   0.0000000
 AtZNuc=   6.0000000   6.0000000   6.0000000   6.0000000   6.0000000   6.0000000   6.0000000   6.0000000   6.0000000   6.0000000

  Atom        71          72          73          74          75          76          77          78          79          80
 IAtWgt=          12          12          12          12          12          12          12          12          12          12
 AtmWgt=  12.0000000  12.0000000  12.0000000  12.0000000  12.0000000  12.0000000  12.0000000  12.0000000  12.0000000  12.0000000
 NucSpn=           0           0           0           0           0           0           0           0           0           0
 AtZEff=  -0.0000000  -0.0000000  -0.0000000  -0.0000000  -0.0000000  -0.0000000  -0.0000000  -0.0000000  -0.0000000  -0.0000000
 NQMom=    0.0000000   0.0000000   0.0000000   0.0000000   0.0000000   0.0000000   0.0000000   0.0000000   0.0000000   0.0000000
 NMagM=    0.0000000   0.0000000   0.0000000   0.0000000   0.0000000   0.0000000   0.0000000   0.0000000   0.0000000   0.0000000
 AtZNuc=   6.0000000   6.0000000   6.0000000   6.0000000   6.0000000   6.0000000   6.0000000   6.0000000   6.0000000   6.0000000

  Atom        81          82          83          84          85          86
 IAtWgt=          12          12          12          12          35          35
 AtmWgt=  12.0000000  12.0000000  12.0000000  12.0000000  34.9688527  34.9688527
 NucSpn=           0           0           0           0           3           3
 AtZEff=  -0.0000000  -0.0000000  -0.0000000  -0.0000000  -0.0000000  -0.0000000
 NQMom=    0.0000000   0.0000000   0.0000000   0.0000000  -8.1650000  -8.1650000
 NMagM=    0.0000000   0.0000000   0.0000000   0.0000000   0.8218740   0.8218740
 AtZNuc=   6.0000000   6.0000000   6.0000000   6.0000000  17.0000000  17.0000000
 Leave Link  101 at Tue Jun 28 21:46:26 2022, MaxMem=  1342177280 cpu:               6.5 elap:               0.3
 (Enter /home/mkliu/g16/l103.exe)

 GradGradGradGradGradGradGradGradGradGradGradGradGradGradGradGradGradGrad
 Berny optimization.
 Initialization pass.
                           ----------------------------
                           !    Initial Parameters    !
                           ! (Angstroms and Degrees)  !
 --------------------------                            --------------------------
 ! Name  Definition              Value          Derivative Info.                !
 --------------------------------------------------------------------------------
 ! R1    R(1,5)                  1.4206         estimate D2E/DX2                !
 ! R2    R(1,17)                 1.4093         estimate D2E/DX2                !
 ! R3    R(1,25)                 1.4432         estimate D2E/DX2                !
 ! R4    R(2,6)                  1.4328         estimate D2E/DX2                !
 ! R5    R(2,43)                 1.4103         estimate D2E/DX2                !
 ! R6    R(2,44)                 1.432          estimate D2E/DX2                !
 ! R7    R(3,7)                  1.4201         estimate D2E/DX2                !
 ! R8    R(3,18)                 1.4085         estimate D2E/DX2                !
 ! R9    R(3,26)                 1.4432         estimate D2E/DX2                !
 ! R10   R(4,8)                  1.4313         estimate D2E/DX2                !
 ! R11   R(4,45)                 1.4134         estimate D2E/DX2                !
 ! R12   R(4,46)                 1.4192         estimate D2E/DX2                !
 ! R13   R(5,9)                  1.4136         estimate D2E/DX2                !
 ! R14   R(5,29)                 1.4335         estimate D2E/DX2                !
 ! R15   R(6,10)                 1.3686         estimate D2E/DX2                !
 ! R16   R(6,15)                 1.4377         estimate D2E/DX2                !
 ! R17   R(7,12)                 1.4138         estimate D2E/DX2                !
 ! R18   R(7,30)                 1.4371         estimate D2E/DX2                !
 ! R19   R(8,11)                 1.3689         estimate D2E/DX2                !
 ! R20   R(8,16)                 1.4388         estimate D2E/DX2                !
 ! R21   R(9,13)                 1.4017         estimate D2E/DX2                !
 ! R22   R(9,35)                 1.4479         estimate D2E/DX2                !
 ! R23   R(10,49)                1.4433         estimate D2E/DX2                !
 ! R24   R(10,53)                1.4405         estimate D2E/DX2                !
 ! R25   R(11,50)                1.4379         estimate D2E/DX2                !
 ! R26   R(11,54)                1.4429         estimate D2E/DX2                !
 ! R27   R(12,14)                1.4058         estimate D2E/DX2                !
 ! R28   R(12,36)                1.4527         estimate D2E/DX2                !
 ! R29   R(13,15)                1.4167         estimate D2E/DX2                !
 ! R30   R(13,43)                1.437          estimate D2E/DX2                !
 ! R31   R(14,16)                1.4165         estimate D2E/DX2                !
 ! R32   R(14,46)                1.4431         estimate D2E/DX2                !
 ! R33   R(15,17)                1.4127         estimate D2E/DX2                !
 ! R34   R(16,18)                1.4139         estimate D2E/DX2                !
 ! R35   R(17,19)                1.4524         estimate D2E/DX2                !
 ! R36   R(18,20)                1.4529         estimate D2E/DX2                !
 ! R37   R(19,21)                1.4117         estimate D2E/DX2                !
 ! R38   R(19,53)                1.4144         estimate D2E/DX2                !
 ! R39   R(20,22)                1.4126         estimate D2E/DX2                !
 ! R40   R(20,54)                1.4133         estimate D2E/DX2                !
 ! R41   R(21,23)                1.4429         estimate D2E/DX2                !
 ! R42   R(21,57)                1.4175         estimate D2E/DX2                !
 ! R43   R(22,24)                1.4423         estimate D2E/DX2                !
 ! R44   R(22,58)                1.4172         estimate D2E/DX2                !
 ! R45   R(23,25)                1.3659         estimate D2E/DX2                !
 ! R46   R(23,61)                1.4309         estimate D2E/DX2                !
 ! R47   R(24,26)                1.3658         estimate D2E/DX2                !
 ! R48   R(24,62)                1.4306         estimate D2E/DX2                !
 ! R49   R(25,27)                1.431          estimate D2E/DX2                !
 ! R50   R(26,28)                1.4295         estimate D2E/DX2                !
 ! R51   R(27,29)                1.4254         estimate D2E/DX2                !
 ! R52   R(27,65)                1.4112         estimate D2E/DX2                !
 ! R53   R(28,30)                1.4266         estimate D2E/DX2                !
 ! R54   R(28,66)                1.4115         estimate D2E/DX2                !
 ! R55   R(29,31)                1.3684         estimate D2E/DX2                !
 ! R56   R(30,32)                1.3639         estimate D2E/DX2                !
 ! R57   R(31,33)                1.4319         estimate D2E/DX2                !
 ! R58   R(31,69)                1.4346         estimate D2E/DX2                !
 ! R59   R(32,34)                1.4391         estimate D2E/DX2                !
 ! R60   R(32,70)                1.4346         estimate D2E/DX2                !
 ! R61   R(33,35)                1.4008         estimate D2E/DX2                !
 ! R62   R(33,73)                1.4468         estimate D2E/DX2                !
 ! R63   R(34,36)                1.4037         estimate D2E/DX2                !
 ! R64   R(34,74)                1.4266         estimate D2E/DX2                !
 ! R65   R(35,37)                1.4499         estimate D2E/DX2                !
 ! R66   R(36,38)                1.4494         estimate D2E/DX2                !
 ! R67   R(37,39)                1.3844         estimate D2E/DX2                !
 ! R68   R(37,77)                1.5203         estimate D2E/DX2                !
 ! R69   R(38,42)                1.439          estimate D2E/DX2                !
 ! R70   R(38,78)                1.4083         estimate D2E/DX2                !
 ! R71   R(39,43)                1.4092         estimate D2E/DX2                !
 ! R72   R(39,79)                1.5106         estimate D2E/DX2                !
 ! R73   R(40,41)                1.4159         estimate D2E/DX2                !
 ! R74   R(40,44)                1.3837         estimate D2E/DX2                !
 ! R75   R(40,79)                1.5162         estimate D2E/DX2                !
 ! R76   R(41,45)                1.4092         estimate D2E/DX2                !
 ! R77   R(41,80)                1.4233         estimate D2E/DX2                !
 ! R78   R(42,46)                1.4014         estimate D2E/DX2                !
 ! R79   R(42,80)                1.4153         estimate D2E/DX2                !
 ! R80   R(44,47)                1.455          estimate D2E/DX2                !
 ! R81   R(45,48)                1.4416         estimate D2E/DX2                !
 ! R82   R(47,48)                1.4461         estimate D2E/DX2                !
 ! R83   R(47,49)                1.4047         estimate D2E/DX2                !
 ! R84   R(48,50)                1.4109         estimate D2E/DX2                !
 ! R85   R(49,51)                1.4232         estimate D2E/DX2                !
 ! R86   R(50,52)                1.4235         estimate D2E/DX2                !
 ! R87   R(51,52)                1.3727         estimate D2E/DX2                !
 ! R88   R(51,55)                1.4447         estimate D2E/DX2                !
 ! R89   R(52,56)                1.4437         estimate D2E/DX2                !
 ! R90   R(53,55)                1.4188         estimate D2E/DX2                !
 ! R91   R(54,56)                1.4184         estimate D2E/DX2                !
 ! R92   R(55,83)                1.4102         estimate D2E/DX2                !
 ! R93   R(56,84)                1.4111         estimate D2E/DX2                !
 ! R94   R(57,59)                1.4412         estimate D2E/DX2                !
 ! R95   R(57,83)                1.4136         estimate D2E/DX2                !
 ! R96   R(58,60)                1.4418         estimate D2E/DX2                !
 ! R97   R(58,84)                1.4124         estimate D2E/DX2                !
 ! R98   R(59,60)                1.3665         estimate D2E/DX2                !
 ! R99   R(59,61)                1.43           estimate D2E/DX2                !
 ! R100  R(60,62)                1.4297         estimate D2E/DX2                !
 ! R101  R(61,63)                1.4111         estimate D2E/DX2                !
 ! R102  R(62,64)                1.4109         estimate D2E/DX2                !
 ! R103  R(63,64)                1.4478         estimate D2E/DX2                !
 ! R104  R(63,65)                1.445          estimate D2E/DX2                !
 ! R105  R(64,66)                1.4452         estimate D2E/DX2                !
 ! R106  R(65,67)                1.4479         estimate D2E/DX2                !
 ! R107  R(66,68)                1.4476         estimate D2E/DX2                !
 ! R108  R(67,68)                1.4484         estimate D2E/DX2                !
 ! R109  R(67,69)                1.4125         estimate D2E/DX2                !
 ! R110  R(68,70)                1.4121         estimate D2E/DX2                !
 ! R111  R(69,71)                1.4274         estimate D2E/DX2                !
 ! R112  R(70,72)                1.4292         estimate D2E/DX2                !
 ! R113  R(71,72)                1.3771         estimate D2E/DX2                !
 ! R114  R(71,73)                1.4386         estimate D2E/DX2                !
 ! R115  R(72,74)                1.4341         estimate D2E/DX2                !
 ! R116  R(73,75)                1.3656         estimate D2E/DX2                !
 ! R117  R(74,76)                1.3859         estimate D2E/DX2                !
 ! R118  R(75,76)                1.4275         estimate D2E/DX2                !
 ! R119  R(75,77)                1.5009         estimate D2E/DX2                !
 ! R120  R(76,78)                1.4238         estimate D2E/DX2                !
 ! R121  R(77,81)                1.5054         estimate D2E/DX2                !
 ! R122  R(77,86)                1.8226         estimate D2E/DX2                !
 ! R123  R(78,81)                1.4326         estimate D2E/DX2                !
 ! R124  R(79,82)                1.4952         estimate D2E/DX2                !
 ! R125  R(79,85)                1.8142         estimate D2E/DX2                !
 ! R126  R(80,82)                1.4191         estimate D2E/DX2                !
 ! R127  R(81,82)                1.3529         estimate D2E/DX2                !
 ! R128  R(83,84)                1.4537         estimate D2E/DX2                !
 ! A1    A(5,1,17)             122.2082         estimate D2E/DX2                !
 ! A2    A(5,1,25)             106.7657         estimate D2E/DX2                !
 ! A3    A(17,1,25)            120.4379         estimate D2E/DX2                !
 ! A4    A(6,2,43)             106.6441         estimate D2E/DX2                !
 ! A5    A(6,2,44)             120.7289         estimate D2E/DX2                !
 ! A6    A(43,2,44)            121.1407         estimate D2E/DX2                !
 ! A7    A(7,3,18)             122.2883         estimate D2E/DX2                !
 ! A8    A(7,3,26)             106.9868         estimate D2E/DX2                !
 ! A9    A(18,3,26)            120.3695         estimate D2E/DX2                !
 ! A10   A(8,4,45)             120.881          estimate D2E/DX2                !
 ! A11   A(8,4,46)             106.7747         estimate D2E/DX2                !
 ! A12   A(45,4,46)            122.1008         estimate D2E/DX2                !
 ! A13   A(1,5,9)              122.2585         estimate D2E/DX2                !
 ! A14   A(1,5,29)             107.3688         estimate D2E/DX2                !
 ! A15   A(9,5,29)             119.1475         estimate D2E/DX2                !
 ! A16   A(2,6,10)             119.745          estimate D2E/DX2                !
 ! A17   A(2,6,15)             109.6722         estimate D2E/DX2                !
 ! A18   A(10,6,15)            120.1237         estimate D2E/DX2                !
 ! A19   A(3,7,12)             122.4662         estimate D2E/DX2                !
 ! A20   A(3,7,30)             107.1089         estimate D2E/DX2                !
 ! A21   A(12,7,30)            119.6988         estimate D2E/DX2                !
 ! A22   A(4,8,11)             119.3993         estimate D2E/DX2                !
 ! A23   A(4,8,16)             109.3425         estimate D2E/DX2                !
 ! A24   A(11,8,16)            120.7278         estimate D2E/DX2                !
 ! A25   A(5,9,13)             114.7171         estimate D2E/DX2                !
 ! A26   A(5,9,35)             120.8263         estimate D2E/DX2                !
 ! A27   A(13,9,35)            119.0086         estimate D2E/DX2                !
 ! A28   A(6,10,49)            120.2348         estimate D2E/DX2                !
 ! A29   A(6,10,53)            120.2703         estimate D2E/DX2                !
 ! A30   A(49,10,53)           109.3629         estimate D2E/DX2                !
 ! A31   A(8,11,50)            120.1687         estimate D2E/DX2                !
 ! A32   A(8,11,54)            120.0128         estimate D2E/DX2                !
 ! A33   A(50,11,54)           109.4123         estimate D2E/DX2                !
 ! A34   A(7,12,14)            114.6587         estimate D2E/DX2                !
 ! A35   A(7,12,36)            120.1989         estimate D2E/DX2                !
 ! A36   A(14,12,36)           119.4175         estimate D2E/DX2                !
 ! A37   A(9,13,15)            122.9079         estimate D2E/DX2                !
 ! A38   A(9,13,43)            120.372          estimate D2E/DX2                !
 ! A39   A(15,13,43)           108.8462         estimate D2E/DX2                !
 ! A40   A(12,14,16)           122.5887         estimate D2E/DX2                !
 ! A41   A(12,14,46)           120.5129         estimate D2E/DX2                !
 ! A42   A(16,14,46)           108.3685         estimate D2E/DX2                !
 ! A43   A(6,15,13)            106.1202         estimate D2E/DX2                !
 ! A44   A(6,15,17)            121.1058         estimate D2E/DX2                !
 ! A45   A(13,15,17)           121.9173         estimate D2E/DX2                !
 ! A46   A(8,16,14)            106.8312         estimate D2E/DX2                !
 ! A47   A(8,16,18)            120.5184         estimate D2E/DX2                !
 ! A48   A(14,16,18)           122.3838         estimate D2E/DX2                !
 ! A49   A(1,17,15)            114.916          estimate D2E/DX2                !
 ! A50   A(1,17,19)            119.194          estimate D2E/DX2                !
 ! A51   A(15,17,19)           118.7511         estimate D2E/DX2                !
 ! A52   A(3,18,16)            114.7048         estimate D2E/DX2                !
 ! A53   A(3,18,20)            119.3252         estimate D2E/DX2                !
 ! A54   A(16,18,20)           118.907          estimate D2E/DX2                !
 ! A55   A(17,19,21)           119.0178         estimate D2E/DX2                !
 ! A56   A(17,19,53)           118.9311         estimate D2E/DX2                !
 ! A57   A(21,19,53)           114.9602         estimate D2E/DX2                !
 ! A58   A(18,20,22)           118.9248         estimate D2E/DX2                !
 ! A59   A(18,20,54)           119.1946         estimate D2E/DX2                !
 ! A60   A(22,20,54)           114.9134         estimate D2E/DX2                !
 ! A61   A(19,21,23)           120.417          estimate D2E/DX2                !
 ! A62   A(19,21,57)           122.3121         estimate D2E/DX2                !
 ! A63   A(23,21,57)           107.0738         estimate D2E/DX2                !
 ! A64   A(20,22,24)           120.3779         estimate D2E/DX2                !
 ! A65   A(20,22,58)           122.356          estimate D2E/DX2                !
 ! A66   A(24,22,58)           107.1209         estimate D2E/DX2                !
 ! A67   A(21,23,25)           120.4044         estimate D2E/DX2                !
 ! A68   A(21,23,61)           109.8667         estimate D2E/DX2                !
 ! A69   A(25,23,61)           119.1583         estimate D2E/DX2                !
 ! A70   A(22,24,26)           120.4852         estimate D2E/DX2                !
 ! A71   A(22,24,62)           109.9001         estimate D2E/DX2                !
 ! A72   A(26,24,62)           119.15           estimate D2E/DX2                !
 ! A73   A(1,25,23)            120.3156         estimate D2E/DX2                !
 ! A74   A(1,25,27)            109.8725         estimate D2E/DX2                !
 ! A75   A(23,25,27)           119.2106         estimate D2E/DX2                !
 ! A76   A(3,26,24)            120.31           estimate D2E/DX2                !
 ! A77   A(3,26,28)            109.8702         estimate D2E/DX2                !
 ! A78   A(24,26,28)           119.2508         estimate D2E/DX2                !
 ! A79   A(25,27,29)           104.9587         estimate D2E/DX2                !
 ! A80   A(25,27,65)           122.5321         estimate D2E/DX2                !
 ! A81   A(29,27,65)           121.6709         estimate D2E/DX2                !
 ! A82   A(26,28,30)           104.9545         estimate D2E/DX2                !
 ! A83   A(26,28,66)           122.517          estimate D2E/DX2                !
 ! A84   A(30,28,66)           121.5894         estimate D2E/DX2                !
 ! A85   A(5,29,27)            109.9853         estimate D2E/DX2                !
 ! A86   A(5,29,31)            119.5839         estimate D2E/DX2                !
 ! A87   A(27,29,31)           120.0235         estimate D2E/DX2                !
 ! A88   A(7,30,28)            110.0304         estimate D2E/DX2                !
 ! A89   A(7,30,32)            119.9614         estimate D2E/DX2                !
 ! A90   A(28,30,32)           119.8339         estimate D2E/DX2                !
 ! A91   A(29,31,33)           121.0222         estimate D2E/DX2                !
 ! A92   A(29,31,69)           118.9165         estimate D2E/DX2                !
 ! A93   A(33,31,69)           110.2923         estimate D2E/DX2                !
 ! A94   A(30,32,34)           120.4706         estimate D2E/DX2                !
 ! A95   A(30,32,70)           119.2842         estimate D2E/DX2                !
 ! A96   A(34,32,70)           109.9089         estimate D2E/DX2                !
 ! A97   A(31,33,35)           120.267          estimate D2E/DX2                !
 ! A98   A(31,33,73)           105.8043         estimate D2E/DX2                !
 ! A99   A(35,33,73)           121.5464         estimate D2E/DX2                !
 ! A100  A(32,34,36)           120.835          estimate D2E/DX2                !
 ! A101  A(32,34,74)           105.8349         estimate D2E/DX2                !
 ! A102  A(36,34,74)           122.434          estimate D2E/DX2                !
 ! A103  A(9,35,33)            117.1225         estimate D2E/DX2                !
 ! A104  A(9,35,37)            119.3248         estimate D2E/DX2                !
 ! A105  A(33,35,37)           119.1077         estimate D2E/DX2                !
 ! A106  A(12,36,34)           117.3593         estimate D2E/DX2                !
 ! A107  A(12,36,38)           119.5721         estimate D2E/DX2                !
 ! A108  A(34,36,38)           117.7474         estimate D2E/DX2                !
 ! A109  A(35,37,39)           120.2703         estimate D2E/DX2                !
 ! A110  A(35,37,77)           119.3058         estimate D2E/DX2                !
 ! A111  A(39,37,77)           119.1262         estimate D2E/DX2                !
 ! A112  A(36,38,42)           119.5028         estimate D2E/DX2                !
 ! A113  A(36,38,78)           118.9037         estimate D2E/DX2                !
 ! A114  A(42,38,78)           116.3585         estimate D2E/DX2                !
 ! A115  A(37,39,43)           120.5006         estimate D2E/DX2                !
 ! A116  A(37,39,79)           123.6237         estimate D2E/DX2                !
 ! A117  A(43,39,79)           114.2934         estimate D2E/DX2                !
 ! A118  A(41,40,44)           120.7467         estimate D2E/DX2                !
 ! A119  A(41,40,79)           109.7776         estimate D2E/DX2                !
 ! A120  A(44,40,79)           123.9084         estimate D2E/DX2                !
 ! A121  A(40,41,45)           122.0041         estimate D2E/DX2                !
 ! A122  A(40,41,80)           108.9683         estimate D2E/DX2                !
 ! A123  A(45,41,80)           122.0272         estimate D2E/DX2                !
 ! A124  A(38,42,46)           119.925          estimate D2E/DX2                !
 ! A125  A(38,42,80)           119.4695         estimate D2E/DX2                !
 ! A126  A(46,42,80)           115.2419         estimate D2E/DX2                !
 ! A127  A(2,43,13)            108.6961         estimate D2E/DX2                !
 ! A128  A(2,43,39)            123.7957         estimate D2E/DX2                !
 ! A129  A(13,43,39)           120.3423         estimate D2E/DX2                !
 ! A130  A(2,44,40)            115.4904         estimate D2E/DX2                !
 ! A131  A(2,44,47)            119.4707         estimate D2E/DX2                !
 ! A132  A(40,44,47)           119.3297         estimate D2E/DX2                !
 ! A133  A(4,45,41)            115.0321         estimate D2E/DX2                !
 ! A134  A(4,45,48)            120.3097         estimate D2E/DX2                !
 ! A135  A(41,45,48)           118.6886         estimate D2E/DX2                !
 ! A136  A(4,46,14)            108.571          estimate D2E/DX2                !
 ! A137  A(4,46,42)            122.2181         estimate D2E/DX2                !
 ! A138  A(14,46,42)           120.8234         estimate D2E/DX2                !
 ! A139  A(44,47,48)           119.7883         estimate D2E/DX2                !
 ! A140  A(44,47,49)           117.2922         estimate D2E/DX2                !
 ! A141  A(48,47,49)           118.0054         estimate D2E/DX2                !
 ! A142  A(45,48,47)           119.1731         estimate D2E/DX2                !
 ! A143  A(45,48,50)           116.8536         estimate D2E/DX2                !
 ! A144  A(47,48,50)           118.3692         estimate D2E/DX2                !
 ! A145  A(10,49,47)           122.0289         estimate D2E/DX2                !
 ! A146  A(10,49,51)           105.6443         estimate D2E/DX2                !
 ! A147  A(47,49,51)           122.1182         estimate D2E/DX2                !
 ! A148  A(11,50,48)           121.9761         estimate D2E/DX2                !
 ! A149  A(11,50,52)           105.7013         estimate D2E/DX2                !
 ! A150  A(48,50,52)           121.8655         estimate D2E/DX2                !
 ! A151  A(49,51,52)           119.6965         estimate D2E/DX2                !
 ! A152  A(49,51,55)           109.6327         estimate D2E/DX2                !
 ! A153  A(52,51,55)           120.3125         estimate D2E/DX2                !
 ! A154  A(50,52,51)           119.3773         estimate D2E/DX2                !
 ! A155  A(50,52,56)           109.7014         estimate D2E/DX2                !
 ! A156  A(51,52,56)           120.4409         estimate D2E/DX2                !
 ! A157  A(10,53,19)           120.7622         estimate D2E/DX2                !
 ! A158  A(10,53,55)           107.3597         estimate D2E/DX2                !
 ! A159  A(19,53,55)           122.2765         estimate D2E/DX2                !
 ! A160  A(11,54,20)           120.5787         estimate D2E/DX2                !
 ! A161  A(11,54,56)           107.3123         estimate D2E/DX2                !
 ! A162  A(20,54,56)           122.2972         estimate D2E/DX2                !
 ! A163  A(51,55,53)           107.5351         estimate D2E/DX2                !
 ! A164  A(51,55,83)           120.3042         estimate D2E/DX2                !
 ! A165  A(53,55,83)           122.5032         estimate D2E/DX2                !
 ! A166  A(52,56,54)           107.4494         estimate D2E/DX2                !
 ! A167  A(52,56,84)           120.2938         estimate D2E/DX2                !
 ! A168  A(54,56,84)           122.4441         estimate D2E/DX2                !
 ! A169  A(21,57,59)           107.3567         estimate D2E/DX2                !
 ! A170  A(21,57,83)           122.5124         estimate D2E/DX2                !
 ! A171  A(59,57,83)           120.3145         estimate D2E/DX2                !
 ! A172  A(22,58,60)           107.2767         estimate D2E/DX2                !
 ! A173  A(22,58,84)           122.4262         estimate D2E/DX2                !
 ! A174  A(60,58,84)           120.3509         estimate D2E/DX2                !
 ! A175  A(57,59,60)           120.4607         estimate D2E/DX2                !
 ! A176  A(57,59,61)           109.8096         estimate D2E/DX2                !
 ! A177  A(60,59,61)           119.4178         estimate D2E/DX2                !
 ! A178  A(58,60,59)           120.4729         estimate D2E/DX2                !
 ! A179  A(58,60,62)           109.8739         estimate D2E/DX2                !
 ! A180  A(59,60,62)           119.3344         estimate D2E/DX2                !
 ! A181  A(23,61,59)           105.0914         estimate D2E/DX2                !
 ! A182  A(23,61,63)           122.3825         estimate D2E/DX2                !
 ! A183  A(59,61,63)           122.1709         estimate D2E/DX2                !
 ! A184  A(24,62,60)           105.0502         estimate D2E/DX2                !
 ! A185  A(24,62,64)           122.3367         estimate D2E/DX2                !
 ! A186  A(60,62,64)           122.2213         estimate D2E/DX2                !
 ! A187  A(61,63,64)           117.9075         estimate D2E/DX2                !
 ! A188  A(61,63,65)           117.9927         estimate D2E/DX2                !
 ! A189  A(64,63,65)           119.8545         estimate D2E/DX2                !
 ! A190  A(62,64,63)           117.9372         estimate D2E/DX2                !
 ! A191  A(62,64,66)           118.0134         estimate D2E/DX2                !
 ! A192  A(63,64,66)           119.8404         estimate D2E/DX2                !
 ! A193  A(27,65,63)           117.6121         estimate D2E/DX2                !
 ! A194  A(27,65,67)           117.8812         estimate D2E/DX2                !
 ! A195  A(63,65,67)           120.357          estimate D2E/DX2                !
 ! A196  A(28,66,64)           117.571          estimate D2E/DX2                !
 ! A197  A(28,66,68)           117.9293         estimate D2E/DX2                !
 ! A198  A(64,66,68)           120.3856         estimate D2E/DX2                !
 ! A199  A(65,67,68)           119.7951         estimate D2E/DX2                !
 ! A200  A(65,67,69)           118.1986         estimate D2E/DX2                !
 ! A201  A(68,67,69)           117.9069         estimate D2E/DX2                !
 ! A202  A(66,68,67)           119.7524         estimate D2E/DX2                !
 ! A203  A(66,68,70)           118.1615         estimate D2E/DX2                !
 ! A204  A(67,68,70)           117.9264         estimate D2E/DX2                !
 ! A205  A(31,69,67)           121.5753         estimate D2E/DX2                !
 ! A206  A(31,69,71)           105.6378         estimate D2E/DX2                !
 ! A207  A(67,69,71)           122.7166         estimate D2E/DX2                !
 ! A208  A(32,70,68)           121.3221         estimate D2E/DX2                !
 ! A209  A(32,70,72)           105.4385         estimate D2E/DX2                !
 ! A210  A(68,70,72)           122.5989         estimate D2E/DX2                !
 ! A211  A(69,71,72)           119.127          estimate D2E/DX2                !
 ! A212  A(69,71,73)           109.2556         estimate D2E/DX2                !
 ! A213  A(72,71,73)           120.4508         estimate D2E/DX2                !
 ! A214  A(70,72,71)           119.2725         estimate D2E/DX2                !
 ! A215  A(70,72,74)           108.9949         estimate D2E/DX2                !
 ! A216  A(71,72,74)           119.2579         estimate D2E/DX2                !
 ! A217  A(33,73,71)           107.81           estimate D2E/DX2                !
 ! A218  A(33,73,75)           120.5947         estimate D2E/DX2                !
 ! A219  A(71,73,75)           120.5598         estimate D2E/DX2                !
 ! A220  A(34,74,72)           108.5157         estimate D2E/DX2                !
 ! A221  A(34,74,76)           119.6842         estimate D2E/DX2                !
 ! A222  A(72,74,76)           119.4614         estimate D2E/DX2                !
 ! A223  A(73,75,76)           118.9728         estimate D2E/DX2                !
 ! A224  A(73,75,77)           121.5301         estimate D2E/DX2                !
 ! A225  A(76,75,77)           110.5928         estimate D2E/DX2                !
 ! A226  A(74,76,75)           121.1326         estimate D2E/DX2                !
 ! A227  A(74,76,78)           119.0387         estimate D2E/DX2                !
 ! A228  A(75,76,78)           109.0809         estimate D2E/DX2                !
 ! A229  A(37,77,75)           113.2167         estimate D2E/DX2                !
 ! A230  A(37,77,81)           110.4419         estimate D2E/DX2                !
 ! A231  A(37,77,86)           108.0635         estimate D2E/DX2                !
 ! A232  A(75,77,81)           100.8994         estimate D2E/DX2                !
 ! A233  A(75,77,86)           111.6438         estimate D2E/DX2                !
 ! A234  A(81,77,86)           112.5467         estimate D2E/DX2                !
 ! A235  A(38,78,76)           122.1019         estimate D2E/DX2                !
 ! A236  A(38,78,81)           122.8526         estimate D2E/DX2                !
 ! A237  A(76,78,81)           107.1789         estimate D2E/DX2                !
 ! A238  A(39,79,40)           112.6274         estimate D2E/DX2                !
 ! A239  A(39,79,82)           110.1507         estimate D2E/DX2                !
 ! A240  A(39,79,85)           109.0671         estimate D2E/DX2                !
 ! A241  A(40,79,82)           101.2982         estimate D2E/DX2                !
 ! A242  A(40,79,85)           110.7391         estimate D2E/DX2                !
 ! A243  A(82,79,85)           112.8446         estimate D2E/DX2                !
 ! A244  A(41,80,42)           121.8351         estimate D2E/DX2                !
 ! A245  A(41,80,82)           108.2127         estimate D2E/DX2                !
 ! A246  A(42,80,82)           121.7148         estimate D2E/DX2                !
 ! A247  A(77,81,78)           111.5993         estimate D2E/DX2                !
 ! A248  A(77,81,82)           122.3104         estimate D2E/DX2                !
 ! A249  A(78,81,82)           119.772          estimate D2E/DX2                !
 ! A250  A(79,82,80)           110.9316         estimate D2E/DX2                !
 ! A251  A(79,82,81)           122.6652         estimate D2E/DX2                !
 ! A252  A(80,82,81)           119.5119         estimate D2E/DX2                !
 ! A253  A(55,83,57)           114.8233         estimate D2E/DX2                !
 ! A254  A(55,83,84)           119.3176         estimate D2E/DX2                !
 ! A255  A(57,83,84)           119.1168         estimate D2E/DX2                !
 ! A256  A(56,84,58)           114.8867         estimate D2E/DX2                !
 ! A257  A(56,84,83)           119.2309         estimate D2E/DX2                !
 ! A258  A(58,84,83)           119.0873         estimate D2E/DX2                !
 ! D1    D(17,1,5,9)            -3.6751         estimate D2E/DX2                !
 ! D2    D(17,1,5,29)         -146.8905         estimate D2E/DX2                !
 ! D3    D(25,1,5,9)           140.922          estimate D2E/DX2                !
 ! D4    D(25,1,5,29)           -2.2934         estimate D2E/DX2                !
 ! D5    D(5,1,17,15)           -5.9319         estimate D2E/DX2                !
 ! D6    D(5,1,17,19)          144.1906         estimate D2E/DX2                !
 ! D7    D(25,1,17,15)        -145.8886         estimate D2E/DX2                !
 ! D8    D(25,1,17,19)           4.2339         estimate D2E/DX2                !
 ! D9    D(5,1,25,23)         -148.6228         estimate D2E/DX2                !
 ! D10   D(5,1,25,27)           -4.2851         estimate D2E/DX2                !
 ! D11   D(17,1,25,23)          -3.2706         estimate D2E/DX2                !
 ! D12   D(17,1,25,27)         141.0671         estimate D2E/DX2                !
 ! D13   D(43,2,6,10)         -146.4055         estimate D2E/DX2                !
 ! D14   D(43,2,6,15)           -1.5059         estimate D2E/DX2                !
 ! D15   D(44,2,6,10)           -2.7345         estimate D2E/DX2                !
 ! D16   D(44,2,6,15)          142.165          estimate D2E/DX2                !
 ! D17   D(6,2,43,13)            1.0761         estimate D2E/DX2                !
 ! D18   D(6,2,43,39)          151.332          estimate D2E/DX2                !
 ! D19   D(44,2,43,13)        -142.4127         estimate D2E/DX2                !
 ! D20   D(44,2,43,39)           7.8432         estimate D2E/DX2                !
 ! D21   D(6,2,44,40)         -153.1757         estimate D2E/DX2                !
 ! D22   D(6,2,44,47)            0.0429         estimate D2E/DX2                !
 ! D23   D(43,2,44,40)         -14.7172         estimate D2E/DX2                !
 ! D24   D(43,2,44,47)         138.5013         estimate D2E/DX2                !
 ! D25   D(18,3,7,12)            3.0324         estimate D2E/DX2                !
 ! D26   D(18,3,7,30)          147.1526         estimate D2E/DX2                !
 ! D27   D(26,3,7,12)         -141.8887         estimate D2E/DX2                !
 ! D28   D(26,3,7,30)            2.2315         estimate D2E/DX2                !
 ! D29   D(7,3,18,16)            5.7418         estimate D2E/DX2                !
 ! D30   D(7,3,18,20)         -144.5697         estimate D2E/DX2                !
 ! D31   D(26,3,18,16)         146.17           estimate D2E/DX2                !
 ! D32   D(26,3,18,20)          -4.1415         estimate D2E/DX2                !
 ! D33   D(7,3,26,24)          148.7447         estimate D2E/DX2                !
 ! D34   D(7,3,26,28)            4.3442         estimate D2E/DX2                !
 ! D35   D(18,3,26,24)           3.0155         estimate D2E/DX2                !
 ! D36   D(18,3,26,28)        -141.385          estimate D2E/DX2                !
 ! D37   D(45,4,8,11)            2.7091         estimate D2E/DX2                !
 ! D38   D(45,4,8,16)         -142.3119         estimate D2E/DX2                !
 ! D39   D(46,4,8,11)          148.4986         estimate D2E/DX2                !
 ! D40   D(46,4,8,16)            3.4777         estimate D2E/DX2                !
 ! D41   D(8,4,45,41)          151.865          estimate D2E/DX2                !
 ! D42   D(8,4,45,48)           -0.5957         estimate D2E/DX2                !
 ! D43   D(46,4,45,41)          11.3192         estimate D2E/DX2                !
 ! D44   D(46,4,45,48)        -141.1415         estimate D2E/DX2                !
 ! D45   D(8,4,46,14)           -2.6535         estimate D2E/DX2                !
 ! D46   D(8,4,46,42)         -150.9348         estimate D2E/DX2                !
 ! D47   D(45,4,46,14)         142.6231         estimate D2E/DX2                !
 ! D48   D(45,4,46,42)          -5.6581         estimate D2E/DX2                !
 ! D49   D(1,5,9,13)             8.7656         estimate D2E/DX2                !
 ! D50   D(1,5,9,35)          -144.9186         estimate D2E/DX2                !
 ! D51   D(29,5,9,13)          147.8939         estimate D2E/DX2                !
 ! D52   D(29,5,9,35)           -5.7903         estimate D2E/DX2                !
 ! D53   D(1,5,29,27)            8.1499         estimate D2E/DX2                !
 ! D54   D(1,5,29,31)          153.1043         estimate D2E/DX2                !
 ! D55   D(9,5,29,27)         -136.4135         estimate D2E/DX2                !
 ! D56   D(9,5,29,31)            8.541          estimate D2E/DX2                !
 ! D57   D(2,6,10,49)           -0.2165         estimate D2E/DX2                !
 ! D58   D(2,6,10,53)          141.4583         estimate D2E/DX2                !
 ! D59   D(15,6,10,49)        -141.4612         estimate D2E/DX2                !
 ! D60   D(15,6,10,53)           0.2136         estimate D2E/DX2                !
 ! D61   D(2,6,15,13)            1.3387         estimate D2E/DX2                !
 ! D62   D(2,6,15,17)         -143.4606         estimate D2E/DX2                !
 ! D63   D(10,6,15,13)         146.0845         estimate D2E/DX2                !
 ! D64   D(10,6,15,17)           1.2852         estimate D2E/DX2                !
 ! D65   D(3,7,12,14)           -8.204          estimate D2E/DX2                !
 ! D66   D(3,7,12,36)          144.9847         estimate D2E/DX2                !
 ! D67   D(30,7,12,14)        -148.049          estimate D2E/DX2                !
 ! D68   D(30,7,12,36)           5.1397         estimate D2E/DX2                !
 ! D69   D(3,7,30,28)           -8.0996         estimate D2E/DX2                !
 ! D70   D(3,7,30,32)         -153.3201         estimate D2E/DX2                !
 ! D71   D(12,7,30,28)         137.2016         estimate D2E/DX2                !
 ! D72   D(12,7,30,32)          -8.019          estimate D2E/DX2                !
 ! D73   D(4,8,11,50)            0.4032         estimate D2E/DX2                !
 ! D74   D(4,8,11,54)         -140.8337         estimate D2E/DX2                !
 ! D75   D(16,8,11,50)         141.4073         estimate D2E/DX2                !
 ! D76   D(16,8,11,54)           0.1703         estimate D2E/DX2                !
 ! D77   D(4,8,16,14)           -2.9522         estimate D2E/DX2                !
 ! D78   D(4,8,16,18)          142.9279         estimate D2E/DX2                !
 ! D79   D(11,8,16,14)        -147.4297         estimate D2E/DX2                !
 ! D80   D(11,8,16,18)          -1.5496         estimate D2E/DX2                !
 ! D81   D(5,9,13,15)           -4.4769         estimate D2E/DX2                !
 ! D82   D(5,9,13,43)         -150.0868         estimate D2E/DX2                !
 ! D83   D(35,9,13,15)         149.7189         estimate D2E/DX2                !
 ! D84   D(35,9,13,43)           4.1089         estimate D2E/DX2                !
 ! D85   D(5,9,35,33)           -6.127          estimate D2E/DX2                !
 ! D86   D(5,9,35,37)          150.0251         estimate D2E/DX2                !
 ! D87   D(13,9,35,33)        -158.7095         estimate D2E/DX2                !
 ! D88   D(13,9,35,37)          -2.5574         estimate D2E/DX2                !
 ! D89   D(6,10,49,47)           6.1417         estimate D2E/DX2                !
 ! D90   D(6,10,49,51)         151.8765         estimate D2E/DX2                !
 ! D91   D(53,10,49,47)       -139.2694         estimate D2E/DX2                !
 ! D92   D(53,10,49,51)          6.4654         estimate D2E/DX2                !
 ! D93   D(6,10,53,19)          -2.2265         estimate D2E/DX2                !
 ! D94   D(6,10,53,55)        -149.0695         estimate D2E/DX2                !
 ! D95   D(49,10,53,19)        143.1703         estimate D2E/DX2                !
 ! D96   D(49,10,53,55)         -3.6726         estimate D2E/DX2                !
 ! D97   D(8,11,50,48)          -5.8321         estimate D2E/DX2                !
 ! D98   D(8,11,50,52)        -151.1152         estimate D2E/DX2                !
 ! D99   D(54,11,50,48)        139.0804         estimate D2E/DX2                !
 ! D100  D(54,11,50,52)         -6.2027         estimate D2E/DX2                !
 ! D101  D(8,11,54,20)           2.0267         estimate D2E/DX2                !
 ! D102  D(8,11,54,56)         148.5648         estimate D2E/DX2                !
 ! D103  D(50,11,54,20)       -142.9492         estimate D2E/DX2                !
 ! D104  D(50,11,54,56)          3.5889         estimate D2E/DX2                !
 ! D105  D(7,12,14,16)           4.7692         estimate D2E/DX2                !
 ! D106  D(7,12,14,46)         148.9505         estimate D2E/DX2                !
 ! D107  D(36,12,14,16)       -148.6446         estimate D2E/DX2                !
 ! D108  D(36,12,14,46)         -4.4633         estimate D2E/DX2                !
 ! D109  D(7,12,36,34)           5.2837         estimate D2E/DX2                !
 ! D110  D(7,12,36,38)        -148.398          estimate D2E/DX2                !
 ! D111  D(14,12,36,34)        157.2105         estimate D2E/DX2                !
 ! D112  D(14,12,36,38)          3.5288         estimate D2E/DX2                !
 ! D113  D(9,13,15,6)         -149.6628         estimate D2E/DX2                !
 ! D114  D(9,13,15,17)          -5.2167         estimate D2E/DX2                !
 ! D115  D(43,13,15,6)          -0.6544         estimate D2E/DX2                !
 ! D116  D(43,13,15,17)        143.7917         estimate D2E/DX2                !
 ! D117  D(9,13,43,2)          149.6651         estimate D2E/DX2                !
 ! D118  D(9,13,43,39)          -1.7974         estimate D2E/DX2                !
 ! D119  D(15,13,43,2)          -0.2649         estimate D2E/DX2                !
 ! D120  D(15,13,43,39)       -151.7275         estimate D2E/DX2                !
 ! D121  D(12,14,16,8)         149.1772         estimate D2E/DX2                !
 ! D122  D(12,14,16,18)          4.0817         estimate D2E/DX2                !
 ! D123  D(46,14,16,8)           1.2668         estimate D2E/DX2                !
 ! D124  D(46,14,16,18)       -143.8287         estimate D2E/DX2                !
 ! D125  D(12,14,46,4)        -147.8276         estimate D2E/DX2                !
 ! D126  D(12,14,46,42)          0.9769         estimate D2E/DX2                !
 ! D127  D(16,14,46,4)           0.8699         estimate D2E/DX2                !
 ! D128  D(16,14,46,42)        149.6745         estimate D2E/DX2                !
 ! D129  D(6,15,17,1)          149.483          estimate D2E/DX2                !
 ! D130  D(6,15,17,19)          -0.78           estimate D2E/DX2                !
 ! D131  D(13,15,17,1)          10.2068         estimate D2E/DX2                !
 ! D132  D(13,15,17,19)       -140.0562         estimate D2E/DX2                !
 ! D133  D(8,16,18,3)         -149.7067         estimate D2E/DX2                !
 ! D134  D(8,16,18,20)           0.7372         estimate D2E/DX2                !
 ! D135  D(14,16,18,3)          -9.1841         estimate D2E/DX2                !
 ! D136  D(14,16,18,20)        141.2598         estimate D2E/DX2                !
 ! D137  D(1,17,19,21)          -1.0787         estimate D2E/DX2                !
 ! D138  D(1,17,19,53)        -150.1701         estimate D2E/DX2                !
 ! D139  D(15,17,19,21)        147.903          estimate D2E/DX2                !
 ! D140  D(15,17,19,53)         -1.1884         estimate D2E/DX2                !
 ! D141  D(3,18,20,22)           1.1528         estimate D2E/DX2                !
 ! D142  D(3,18,20,54)         150.4794         estimate D2E/DX2                !
 ! D143  D(16,18,20,22)       -147.917          estimate D2E/DX2                !
 ! D144  D(16,18,20,54)          1.4096         estimate D2E/DX2                !
 ! D145  D(17,19,21,23)         -3.0446         estimate D2E/DX2                !
 ! D146  D(17,19,21,57)       -143.774          estimate D2E/DX2                !
 ! D147  D(53,19,21,23)        147.2276         estimate D2E/DX2                !
 ! D148  D(53,19,21,57)          6.4982         estimate D2E/DX2                !
 ! D149  D(17,19,53,10)          2.686          estimate D2E/DX2                !
 ! D150  D(17,19,53,55)        144.5575         estimate D2E/DX2                !
 ! D151  D(21,19,53,10)       -147.6136         estimate D2E/DX2                !
 ! D152  D(21,19,53,55)         -5.7421         estimate D2E/DX2                !
 ! D153  D(18,20,22,24)          2.9578         estimate D2E/DX2                !
 ! D154  D(18,20,22,58)        143.7923         estimate D2E/DX2                !
 ! D155  D(54,20,22,24)       -147.6338         estimate D2E/DX2                !
 ! D156  D(54,20,22,58)         -6.7992         estimate D2E/DX2                !
 ! D157  D(18,20,54,11)         -2.7957         estimate D2E/DX2                !
 ! D158  D(18,20,54,56)       -144.2785         estimate D2E/DX2                !
 ! D159  D(22,20,54,11)        147.7112         estimate D2E/DX2                !
 ! D160  D(22,20,54,56)          6.2285         estimate D2E/DX2                !
 ! D161  D(19,21,23,25)          4.0983         estimate D2E/DX2                !
 ! D162  D(19,21,23,61)       -140.2618         estimate D2E/DX2                !
 ! D163  D(57,21,23,25)        150.0681         estimate D2E/DX2                !
 ! D164  D(57,21,23,61)          5.7079         estimate D2E/DX2                !
 ! D165  D(19,21,57,59)        145.0046         estimate D2E/DX2                !
 ! D166  D(19,21,57,83)         -0.7181         estimate D2E/DX2                !
 ! D167  D(23,21,57,59)         -0.1734         estimate D2E/DX2                !
 ! D168  D(23,21,57,83)       -145.8961         estimate D2E/DX2                !
 ! D169  D(20,22,24,26)         -4.172          estimate D2E/DX2                !
 ! D170  D(20,22,24,62)        140.3399         estimate D2E/DX2                !
 ! D171  D(58,22,24,26)       -150.2376         estimate D2E/DX2                !
 ! D172  D(58,22,24,62)         -5.7257         estimate D2E/DX2                !
 ! D173  D(20,22,58,60)       -144.949          estimate D2E/DX2                !
 ! D174  D(20,22,58,84)          0.5884         estimate D2E/DX2                !
 ! D175  D(24,22,58,60)          0.2926         estimate D2E/DX2                !
 ! D176  D(24,22,58,84)        145.8299         estimate D2E/DX2                !
 ! D177  D(21,23,25,1)          -0.9198         estimate D2E/DX2                !
 ! D178  D(21,23,25,27)       -142.0043         estimate D2E/DX2                !
 ! D179  D(61,23,25,1)         140.2119         estimate D2E/DX2                !
 ! D180  D(61,23,25,27)         -0.8726         estimate D2E/DX2                !
 ! D181  D(21,23,61,59)         -8.8188         estimate D2E/DX2                !
 ! D182  D(21,23,61,63)        136.6717         estimate D2E/DX2                !
 ! D183  D(25,23,61,59)       -153.6855         estimate D2E/DX2                !
 ! D184  D(25,23,61,63)         -8.195          estimate D2E/DX2                !
 ! D185  D(22,24,26,3)           1.1614         estimate D2E/DX2                !
 ! D186  D(22,24,26,28)        142.2978         estimate D2E/DX2                !
 ! D187  D(62,24,26,3)        -140.1542         estimate D2E/DX2                !
 ! D188  D(62,24,26,28)          0.9822         estimate D2E/DX2                !
 ! D189  D(22,24,62,60)          8.723          estimate D2E/DX2                !
 ! D190  D(22,24,62,64)       -136.7334         estimate D2E/DX2                !
 ! D191  D(26,24,62,60)        153.7752         estimate D2E/DX2                !
 ! D192  D(26,24,62,64)          8.3188         estimate D2E/DX2                !
 ! D193  D(1,25,27,29)           9.037          estimate D2E/DX2                !
 ! D194  D(1,25,27,65)        -135.5525         estimate D2E/DX2                !
 ! D195  D(23,25,27,29)        153.8244         estimate D2E/DX2                !
 ! D196  D(23,25,27,65)          9.2349         estimate D2E/DX2                !
 ! D197  D(3,26,28,30)          -9.0671         estimate D2E/DX2                !
 ! D198  D(3,26,28,66)         135.3491         estimate D2E/DX2                !
 ! D199  D(24,26,28,30)       -153.8981         estimate D2E/DX2                !
 ! D200  D(24,26,28,66)         -9.482          estimate D2E/DX2                !
 ! D201  D(25,27,29,5)         -10.5119         estimate D2E/DX2                !
 ! D202  D(25,27,29,31)       -155.2891         estimate D2E/DX2                !
 ! D203  D(65,27,29,5)         134.4591         estimate D2E/DX2                !
 ! D204  D(65,27,29,31)        -10.3182         estimate D2E/DX2                !
 ! D205  D(25,27,65,63)         -8.3357         estimate D2E/DX2                !
 ! D206  D(25,27,65,67)        148.8803         estimate D2E/DX2                !
 ! D207  D(29,27,65,63)       -147.2073         estimate D2E/DX2                !
 ! D208  D(29,27,65,67)         10.0087         estimate D2E/DX2                !
 ! D209  D(26,28,30,7)          10.5123         estimate D2E/DX2                !
 ! D210  D(26,28,30,32)        155.7837         estimate D2E/DX2                !
 ! D211  D(66,28,30,7)        -134.3163         estimate D2E/DX2                !
 ! D212  D(66,28,30,32)         10.9551         estimate D2E/DX2                !
 ! D213  D(26,28,66,64)          8.4739         estimate D2E/DX2                !
 ! D214  D(26,28,66,68)       -148.8417         estimate D2E/DX2                !
 ! D215  D(30,28,66,64)        147.1757         estimate D2E/DX2                !
 ! D216  D(30,28,66,68)        -10.14           estimate D2E/DX2                !
 ! D217  D(5,29,31,33)           0.7191         estimate D2E/DX2                !
 ! D218  D(5,29,31,69)        -141.8934         estimate D2E/DX2                !
 ! D219  D(27,29,31,33)        142.1631         estimate D2E/DX2                !
 ! D220  D(27,29,31,69)         -0.4494         estimate D2E/DX2                !
 ! D221  D(7,30,32,34)           0.3143         estimate D2E/DX2                !
 ! D222  D(7,30,32,70)         141.8446         estimate D2E/DX2                !
 ! D223  D(28,30,32,34)       -141.5308         estimate D2E/DX2                !
 ! D224  D(28,30,32,70)         -0.0005         estimate D2E/DX2                !
 ! D225  D(29,31,33,35)        -13.1705         estimate D2E/DX2                !
 ! D226  D(29,31,33,73)       -155.8018         estimate D2E/DX2                !
 ! D227  D(69,31,33,35)        132.3111         estimate D2E/DX2                !
 ! D228  D(69,31,33,73)        -10.3202         estimate D2E/DX2                !
 ! D229  D(29,31,69,67)         11.3804         estimate D2E/DX2                !
 ! D230  D(29,31,69,71)        157.5644         estimate D2E/DX2                !
 ! D231  D(33,31,69,67)       -134.9237         estimate D2E/DX2                !
 ! D232  D(33,31,69,71)         11.2603         estimate D2E/DX2                !
 ! D233  D(30,32,34,36)         10.5858         estimate D2E/DX2                !
 ! D234  D(30,32,34,74)        155.5276         estimate D2E/DX2                !
 ! D235  D(70,32,34,36)       -134.1681         estimate D2E/DX2                !
 ! D236  D(70,32,34,74)         10.7737         estimate D2E/DX2                !
 ! D237  D(30,32,70,68)        -11.5975         estimate D2E/DX2                !
 ! D238  D(30,32,70,72)       -156.9169         estimate D2E/DX2                !
 ! D239  D(34,32,70,68)        133.6339         estimate D2E/DX2                !
 ! D240  D(34,32,70,72)        -11.6856         estimate D2E/DX2                !
 ! D241  D(31,33,35,9)          15.4443         estimate D2E/DX2                !
 ! D242  D(31,33,35,37)       -140.7615         estimate D2E/DX2                !
 ! D243  D(73,33,35,9)         152.1875         estimate D2E/DX2                !
 ! D244  D(73,33,35,37)         -4.0183         estimate D2E/DX2                !
 ! D245  D(31,33,73,71)          5.2533         estimate D2E/DX2                !
 ! D246  D(31,33,73,75)        149.3832         estimate D2E/DX2                !
 ! D247  D(35,33,73,71)       -136.7868         estimate D2E/DX2                !
 ! D248  D(35,33,73,75)          7.3431         estimate D2E/DX2                !
 ! D249  D(32,34,36,12)        -13.0899         estimate D2E/DX2                !
 ! D250  D(32,34,36,38)        141.0798         estimate D2E/DX2                !
 ! D251  D(74,34,36,12)       -152.1897         estimate D2E/DX2                !
 ! D252  D(74,34,36,38)          1.9801         estimate D2E/DX2                !
 ! D253  D(32,34,74,72)         -5.5186         estimate D2E/DX2                !
 ! D254  D(32,34,74,76)       -147.5118         estimate D2E/DX2                !
 ! D255  D(36,34,74,72)        138.7229         estimate D2E/DX2                !
 ! D256  D(36,34,74,76)         -3.2703         estimate D2E/DX2                !
 ! D257  D(9,35,37,39)          -1.3988         estimate D2E/DX2                !
 ! D258  D(9,35,37,77)        -168.279          estimate D2E/DX2                !
 ! D259  D(33,35,37,39)        154.2792         estimate D2E/DX2                !
 ! D260  D(33,35,37,77)        -12.601          estimate D2E/DX2                !
 ! D261  D(12,36,38,42)          0.8441         estimate D2E/DX2                !
 ! D262  D(12,36,38,78)        154.3692         estimate D2E/DX2                !
 ! D263  D(34,36,38,42)       -152.7372         estimate D2E/DX2                !
 ! D264  D(34,36,38,78)          0.7879         estimate D2E/DX2                !
 ! D265  D(35,37,39,43)          3.79           estimate D2E/DX2                !
 ! D266  D(35,37,39,79)       -161.0371         estimate D2E/DX2                !
 ! D267  D(77,37,39,43)        170.6936         estimate D2E/DX2                !
 ! D268  D(77,37,39,79)          5.8665         estimate D2E/DX2                !
 ! D269  D(35,37,77,75)         24.4266         estimate D2E/DX2                !
 ! D270  D(35,37,77,81)        136.7265         estimate D2E/DX2                !
 ! D271  D(35,37,77,86)        -99.7704         estimate D2E/DX2                !
 ! D272  D(39,37,77,75)       -142.6048         estimate D2E/DX2                !
 ! D273  D(39,37,77,81)        -30.3049         estimate D2E/DX2                !
 ! D274  D(39,37,77,86)         93.1983         estimate D2E/DX2                !
 ! D275  D(36,38,42,46)         -4.3334         estimate D2E/DX2                !
 ! D276  D(36,38,42,80)        148.5929         estimate D2E/DX2                !
 ! D277  D(78,38,42,46)       -158.5126         estimate D2E/DX2                !
 ! D278  D(78,38,42,80)         -5.5864         estimate D2E/DX2                !
 ! D279  D(36,38,78,76)         -2.3439         estimate D2E/DX2                !
 ! D280  D(36,38,78,81)       -147.4442         estimate D2E/DX2                !
 ! D281  D(42,38,78,76)        151.9968         estimate D2E/DX2                !
 ! D282  D(42,38,78,81)          6.8965         estimate D2E/DX2                !
 ! D283  D(37,39,43,2)        -149.2566         estimate D2E/DX2                !
 ! D284  D(37,39,43,13)         -2.2496         estimate D2E/DX2                !
 ! D285  D(79,39,43,2)          16.909          estimate D2E/DX2                !
 ! D286  D(79,39,43,13)        163.916          estimate D2E/DX2                !
 ! D287  D(37,39,79,40)        133.8957         estimate D2E/DX2                !
 ! D288  D(37,39,79,82)         21.621          estimate D2E/DX2                !
 ! D289  D(37,39,79,85)       -102.7385         estimate D2E/DX2                !
 ! D290  D(43,39,79,40)        -31.7792         estimate D2E/DX2                !
 ! D291  D(43,39,79,82)       -144.0538         estimate D2E/DX2                !
 ! D292  D(43,39,79,85)         91.5866         estimate D2E/DX2                !
 ! D293  D(44,40,41,45)          4.7322         estimate D2E/DX2                !
 ! D294  D(44,40,41,80)       -146.4417         estimate D2E/DX2                !
 ! D295  D(79,40,41,45)        159.3806         estimate D2E/DX2                !
 ! D296  D(79,40,41,80)          8.2067         estimate D2E/DX2                !
 ! D297  D(41,40,44,2)         147.2615         estimate D2E/DX2                !
 ! D298  D(41,40,44,47)         -5.9971         estimate D2E/DX2                !
 ! D299  D(79,40,44,2)          -3.6945         estimate D2E/DX2                !
 ! D300  D(79,40,44,47)       -156.9531         estimate D2E/DX2                !
 ! D301  D(41,40,79,39)       -126.6756         estimate D2E/DX2                !
 ! D302  D(41,40,79,82)         -9.0385         estimate D2E/DX2                !
 ! D303  D(41,40,79,85)        110.8944         estimate D2E/DX2                !
 ! D304  D(44,40,79,39)         27.0038         estimate D2E/DX2                !
 ! D305  D(44,40,79,82)        144.6409         estimate D2E/DX2                !
 ! D306  D(44,40,79,85)        -95.4262         estimate D2E/DX2                !
 ! D307  D(40,41,45,4)        -153.1418         estimate D2E/DX2                !
 ! D308  D(40,41,45,48)         -0.2077         estimate D2E/DX2                !
 ! D309  D(80,41,45,4)          -5.6779         estimate D2E/DX2                !
 ! D310  D(80,41,45,48)        147.2562         estimate D2E/DX2                !
 ! D311  D(40,41,80,42)        145.2225         estimate D2E/DX2                !
 ! D312  D(40,41,80,82)         -3.6139         estimate D2E/DX2                !
 ! D313  D(45,41,80,42)         -5.9434         estimate D2E/DX2                !
 ! D314  D(45,41,80,82)       -154.7798         estimate D2E/DX2                !
 ! D315  D(38,42,46,4)         148.0097         estimate D2E/DX2                !
 ! D316  D(38,42,46,14)          3.4847         estimate D2E/DX2                !
 ! D317  D(80,42,46,4)          -6.0088         estimate D2E/DX2                !
 ! D318  D(80,42,46,14)       -150.5338         estimate D2E/DX2                !
 ! D319  D(38,42,80,41)       -142.5347         estimate D2E/DX2                !
 ! D320  D(38,42,80,82)          2.1661         estimate D2E/DX2                !
 ! D321  D(46,42,80,41)         11.61           estimate D2E/DX2                !
 ! D322  D(46,42,80,82)        156.3109         estimate D2E/DX2                !
 ! D323  D(2,44,47,48)        -149.2338         estimate D2E/DX2                !
 ! D324  D(2,44,47,49)           5.4787         estimate D2E/DX2                !
 ! D325  D(40,44,47,48)          2.957          estimate D2E/DX2                !
 ! D326  D(40,44,47,49)        157.6694         estimate D2E/DX2                !
 ! D327  D(4,45,48,47)         148.7167         estimate D2E/DX2                !
 ! D328  D(4,45,48,50)          -4.4864         estimate D2E/DX2                !
 ! D329  D(41,45,48,47)         -2.7576         estimate D2E/DX2                !
 ! D330  D(41,45,48,50)       -155.9608         estimate D2E/DX2                !
 ! D331  D(44,47,48,45)          1.4273         estimate D2E/DX2                !
 ! D332  D(44,47,48,50)        154.2266         estimate D2E/DX2                !
 ! D333  D(49,47,48,45)       -153.1079         estimate D2E/DX2                !
 ! D334  D(49,47,48,50)         -0.3086         estimate D2E/DX2                !
 ! D335  D(44,47,49,10)         -8.6042         estimate D2E/DX2                !
 ! D336  D(44,47,49,51)       -148.802          estimate D2E/DX2                !
 ! D337  D(48,47,49,10)        146.5684         estimate D2E/DX2                !
 ! D338  D(48,47,49,51)          6.3705         estimate D2E/DX2                !
 ! D339  D(45,48,50,11)          7.7071         estimate D2E/DX2                !
 ! D340  D(45,48,50,52)        147.4991         estimate D2E/DX2                !
 ! D341  D(47,48,50,11)       -145.718          estimate D2E/DX2                !
 ! D342  D(47,48,50,52)         -5.9259         estimate D2E/DX2                !
 ! D343  D(10,49,51,52)       -151.9674         estimate D2E/DX2                !
 ! D344  D(10,49,51,55)         -6.8489         estimate D2E/DX2                !
 ! D345  D(47,49,51,52)         -6.2708         estimate D2E/DX2                !
 ! D346  D(47,49,51,55)        138.8477         estimate D2E/DX2                !
 ! D347  D(11,50,52,51)        151.5184         estimate D2E/DX2                !
 ! D348  D(11,50,52,56)          6.5189         estimate D2E/DX2                !
[...]
 Alpha virt. eigenvalues --    1.12850   1.13053   1.13642   1.14041   1.14118
 Alpha virt. eigenvalues --    1.14316   1.14490   1.14821   1.15083   1.15474
 Alpha virt. eigenvalues --    1.15717   1.15795   1.16035   1.16407   1.16606
 Alpha virt. eigenvalues --    1.17136   1.17514   1.17679   1.17835   1.18014
 Alpha virt. eigenvalues --    1.18387   1.18721   1.19125   1.19287   1.19548
 Alpha virt. eigenvalues --    1.19926   1.20031   1.20316   1.20460   1.21130
 Alpha virt. eigenvalues --    1.21354   1.21489   1.21811   1.22326   1.22561
 Alpha virt. eigenvalues --    1.23095   1.23457   1.23731   1.23889   1.24346
 Alpha virt. eigenvalues --    1.24381   1.24777   1.24938   1.25189   1.25621
 Alpha virt. eigenvalues --    1.25721   1.25986   1.26437   1.26830   1.26964
 Alpha virt. eigenvalues --    1.27300   1.27430   1.27858   1.28255   1.28522
 Alpha virt. eigenvalues --    1.29008   1.29282   1.29730   1.29862   1.30351
 Alpha virt. eigenvalues --    1.30477   1.30816   1.30925   1.31378   1.31808
 Alpha virt. eigenvalues --    1.32185   1.32417   1.32852   1.33118   1.33132
 Alpha virt. eigenvalues --    1.33766   1.34217   1.34332   1.34741   1.34861
 Alpha virt. eigenvalues --    1.35040   1.35262   1.36249   1.36559   1.36868
 Alpha virt. eigenvalues --    1.37052   1.38281   1.38777   1.39360   1.39505
 Alpha virt. eigenvalues --    1.40288   1.40463   1.41038   1.41553   1.42195
 Alpha virt. eigenvalues --    1.42860   1.43633   1.44389   1.45038   1.45468
 Alpha virt. eigenvalues --    1.45951   1.46199   1.47058   1.47190   1.47738
 Alpha virt. eigenvalues --    1.48068   1.48719   1.49141   1.49887   1.50023
 Alpha virt. eigenvalues --    1.50292   1.51267   1.51930   1.52672   1.52996
 Alpha virt. eigenvalues --    1.53580   1.54301   1.54809   1.55437   1.55691
 Alpha virt. eigenvalues --    1.55755   1.56127   1.56432   1.56815   1.56931
 Alpha virt. eigenvalues --    1.57218   1.57686   1.58036   1.58349   1.58830
 Alpha virt. eigenvalues --    1.58938   1.59464   1.59819   1.62091   1.62360
 Alpha virt. eigenvalues --    1.63203   1.63509   1.64344   1.64612   1.64838
 Alpha virt. eigenvalues --    1.65057   1.65135   1.65340   1.65685   1.65914
 Alpha virt. eigenvalues --    1.66219   1.66413   1.66670   1.67082   1.67149
 Alpha virt. eigenvalues --    1.67272   1.67401   1.67760   1.68271   1.68601
 Alpha virt. eigenvalues --    1.68796   1.69154   1.69485   1.69650   1.70065
 Alpha virt. eigenvalues --    1.70147   1.70414   1.70891   1.71062   1.71409
 Alpha virt. eigenvalues --    1.71697   1.71814   1.72083   1.72138   1.72530
 Alpha virt. eigenvalues --    1.72636   1.73136   1.73234   1.73475   1.73498
 Alpha virt. eigenvalues --    1.73726   1.74160   1.74252   1.74539   1.74629
 Alpha virt. eigenvalues --    1.74638   1.75246   1.75441   1.75825   1.75977
 Alpha virt. eigenvalues --    1.76228   1.76505   1.76601   1.76899   1.77073
 Alpha virt. eigenvalues --    1.77248   1.77651   1.77814   1.77906   1.78283
 Alpha virt. eigenvalues --    1.78585   1.78856   1.79169   1.79528   1.79581
 Alpha virt. eigenvalues --    1.80142   1.80459   1.81024   1.81741   1.82047
 Alpha virt. eigenvalues --    1.82410   1.82835   1.83175   1.83593   1.84035
 Alpha virt. eigenvalues --    1.84854   1.85287   1.85578   1.86104   1.86843
 Alpha virt. eigenvalues --    1.87306   1.88002   1.88545   1.89100   1.90466
 Alpha virt. eigenvalues --    1.90822   1.90870   1.91068   1.91587   1.91950
 Alpha virt. eigenvalues --    1.92383   1.93125   1.93184   1.93555   1.93736
 Alpha virt. eigenvalues --    1.94263   1.94622   1.94848   1.95503   1.95559
 Alpha virt. eigenvalues --    1.95852   1.96127   1.96338   1.96783   1.96980
 Alpha virt. eigenvalues --    1.97366   1.97556   1.97966   1.98137   1.98234
 Alpha virt. eigenvalues --    1.98620   1.98760   1.99106   1.99381   1.99402
 Alpha virt. eigenvalues --    1.99559   1.99977   2.00137   2.00326   2.00532
 Alpha virt. eigenvalues --    2.00687   2.01117   2.01197   2.01300   2.01504
 Alpha virt. eigenvalues --    2.01572   2.01861   2.01906   2.02328   2.02520
 Alpha virt. eigenvalues --    2.02933   2.03073   2.03105   2.03311   2.03469
 Alpha virt. eigenvalues --    2.03810   2.04003   2.04263   2.04499   2.05340
 Alpha virt. eigenvalues --    2.05662   2.06048   2.06354   2.06468   2.06652
 Alpha virt. eigenvalues --    2.06972   2.07334   2.07561   2.07880   2.08442
 Alpha virt. eigenvalues --    2.08932   2.10189   2.10570   2.10915   2.11482
 Alpha virt. eigenvalues --    2.11743   2.12124   2.12956   2.13479   2.13504
 Alpha virt. eigenvalues --    2.13943   2.14133   2.14326   2.15063   2.15332
 Alpha virt. eigenvalues --    2.15700   2.16213   2.17178   2.17745   2.18592
 Alpha virt. eigenvalues --    2.18786   2.19850   2.20036   2.20723   2.20917
 Alpha virt. eigenvalues --    2.21139   2.21388   2.21544   2.22118   2.22352
 Alpha virt. eigenvalues --    2.22702   2.23286   2.23504   2.23981   2.24352
 Alpha virt. eigenvalues --    2.25023   2.25490   2.25793   2.25990   2.26455
 Alpha virt. eigenvalues --    2.26784   2.27223   2.27897   2.28093   2.28357
 Alpha virt. eigenvalues --    2.28479   2.28704   2.29205   2.29483   2.29787
 Alpha virt. eigenvalues --    2.30058   2.30665   2.30777   2.31744   2.32315
 Alpha virt. eigenvalues --    2.32563   2.32832   2.33362   2.33952   2.34667
 Alpha virt. eigenvalues --    2.34754   2.34929   2.35379   2.35770   2.36270
 Alpha virt. eigenvalues --    2.38510   2.39197   2.39411   2.40266   2.40793
 Alpha virt. eigenvalues --    2.41016   2.41665   2.42266   2.42566   2.42880
 Alpha virt. eigenvalues --    2.43236   2.43628   2.44015   2.44659   2.45013
 Alpha virt. eigenvalues --    2.45361   2.46099   2.46484   2.47137   2.48167
 Alpha virt. eigenvalues --    2.48567   2.49179   2.50129   2.50735   2.51079
 Alpha virt. eigenvalues --    2.51152   2.51554   2.52271   2.52830   2.52952
 Alpha virt. eigenvalues --    2.53090   2.53515   2.53965   2.54324   2.54741
 Alpha virt. eigenvalues --    2.55224   2.55753   2.55883   2.56351   2.56690
 Alpha virt. eigenvalues --    2.56961   2.57600   2.57808   2.58066   2.58261
 Alpha virt. eigenvalues --    2.58566   2.58838   2.59185   2.59272   2.59415
 Alpha virt. eigenvalues --    2.59581   2.59859   2.60036   2.60755   2.60836
 Alpha virt. eigenvalues --    2.61147   2.61892   2.62144   2.62556   2.63231
 Alpha virt. eigenvalues --    2.63495   2.63629   2.64046   2.64186   2.64561
 Alpha virt. eigenvalues --    2.65191   2.65326   2.65723   2.66060   2.66192
 Alpha virt. eigenvalues --    2.66496   2.66748   2.67078   2.67233   2.67328
 Alpha virt. eigenvalues --    2.67725   2.68189   2.68390   2.68738   2.69101
 Alpha virt. eigenvalues --    2.69468   2.69710   2.70284   2.70772   2.71223
 Alpha virt. eigenvalues --    2.71500   2.71804   2.72671   2.72918   2.73540
 Alpha virt. eigenvalues --    2.74192   2.74709   2.75813   2.75959   2.76730
 Alpha virt. eigenvalues --    2.77888   2.78293   2.78612   2.78965   2.79565
 Alpha virt. eigenvalues --    2.79861   2.80554   2.80840   2.81390   2.81755
 Alpha virt. eigenvalues --    2.81982   2.82220   2.82640   2.82985   2.83142
 Alpha virt. eigenvalues --    2.83482   2.83737   2.83893   2.84152   2.84701
 Alpha virt. eigenvalues --    2.84911   2.85441   2.86388   2.86873   2.87808
 Alpha virt. eigenvalues --    2.88316   2.88518   2.89257   2.89577   2.90029
 Alpha virt. eigenvalues --    2.90481   2.90711   2.90874   2.91216   2.91711
 Alpha virt. eigenvalues --    2.91990   2.92234   2.92508   2.93193   2.93407
 Alpha virt. eigenvalues --    2.94418   2.94904   2.95350   2.95647   2.96093
 Alpha virt. eigenvalues --    2.96306   2.97256   2.98266   2.98835   2.99310
 Alpha virt. eigenvalues --    3.00140   3.00799   3.01344   3.01694   3.03093
 Alpha virt. eigenvalues --    3.04349   3.05038   3.05387   3.07317   3.09617
 Alpha virt. eigenvalues --    3.10125   3.11682   3.14606   3.16019   3.16174
 Alpha virt. eigenvalues --    3.17376   3.17936   3.19898   3.22582   3.24264
 Alpha virt. eigenvalues --    3.25648   3.26732   3.28168   3.29677   3.30369
 Alpha virt. eigenvalues --    3.33727   3.34726   3.35429   3.36472   3.38000
 Alpha virt. eigenvalues --    3.38736   3.39248   3.41249   3.43652   3.46807
 Alpha virt. eigenvalues --    3.47580   3.49228   3.51743   3.53307   3.54350
 Alpha virt. eigenvalues --    3.57217   3.61395   3.61918   4.00470   4.01790
 Alpha virt. eigenvalues --    4.02056   4.02647   4.02999   4.03621   4.04242
 Alpha virt. eigenvalues --    4.04720   4.05208   4.06637   4.06697   4.06949
 Alpha virt. eigenvalues --    4.07126   4.07493   4.08100   4.08597   4.09681
 Alpha virt. eigenvalues --    4.10452   4.11431   4.11865   4.12084   4.12706
 Alpha virt. eigenvalues --    4.13711   4.14952   4.15920   4.17128   4.17307
 Alpha virt. eigenvalues --    4.19284   4.20774   4.21118   4.21325   4.21419
 Alpha virt. eigenvalues --    4.22133   4.22961   4.23037   4.24435   4.26607
 Alpha virt. eigenvalues --    4.27338   4.28600   4.29602   4.29988   4.30064
 Alpha virt. eigenvalues --    4.31016   4.32581   4.34006   4.34512   4.37769
 Alpha virt. eigenvalues --    4.38643   4.40553   4.41607   4.42999   4.45007
 Alpha virt. eigenvalues --    4.46273   4.48950   4.49111   4.49827   4.51298
 Alpha virt. eigenvalues --    4.53278   4.55111   4.55914   4.58000   4.59207
 Alpha virt. eigenvalues --    4.60764   4.61633   4.65900   4.66984   4.67937
 Alpha virt. eigenvalues --    4.68421   4.69728   4.76042   4.76696   4.81725
 Alpha virt. eigenvalues --    4.84054   4.85210   4.88096   4.89290   4.93630
 Alpha virt. eigenvalues --    4.94409   5.01136   5.03535   5.07651   5.12714
 Alpha virt. eigenvalues --    5.15713   5.18501   5.25465   5.29652
          Condensed to atoms (all electrons):
 Mulliken charges:
               1
     1  C   -0.022720
     2  C   -0.040814
     3  C   -0.022847
     4  C   -0.019285
     5  C   -0.020812
     6  C   -0.014508
     7  C   -0.019849
     8  C   -0.016512
     9  C    0.053251
    10  C    0.001978
    11  C   -0.001737
    12  C    0.054538
    13  C   -0.032091
    14  C   -0.027982
    15  C   -0.027266
    16  C   -0.023985
    17  C    0.058485
    18  C    0.056857
    19  C    0.055384
    20  C    0.056483
    21  C   -0.020464
    22  C   -0.020979
    23  C   -0.015714
    24  C   -0.015287
    25  C   -0.012131
    26  C   -0.012832
    27  C   -0.018322
    28  C   -0.019838
    29  C   -0.017704
    30  C   -0.016163
    31  C   -0.008356
    32  C   -0.014680
    33  C   -0.046836
    34  C   -0.023924
    35  C    0.073928
    36  C    0.046905
    37  C    0.099027
    38  C    0.036985
    39  C    0.131952
    40  C    0.042018
    41  C    0.008977
    42  C    0.048750
    43  C    0.008402
    44  C    0.067671
    45  C    0.042123
    46  C   -0.032836
    47  C    0.043985
    48  C    0.045807
    49  C   -0.023170
    50  C   -0.021879
    51  C   -0.010440
    52  C   -0.013191
    53  C   -0.019766
    54  C   -0.023888
    55  C   -0.019121
    56  C   -0.021028
    57  C   -0.016796
    58  C   -0.019775
    59  C   -0.013503
    60  C   -0.013788
    61  C   -0.018878
    62  C   -0.019822
    63  C    0.038112
    64  C    0.039756
    65  C    0.036637
    66  C    0.036312
    67  C    0.038090
    68  C    0.039957
    69  C   -0.020058
    70  C   -0.022730
    71  C   -0.005798
    72  C   -0.009583
    73  C    0.015881
    74  C   -0.015686
    75  C    0.072456
    76  C    0.025781
    77  C   -0.348957
    78  C   -0.000586
    79  C   -0.359670
    80  C    0.005295
    81  C    0.092519
    82  C    0.089585
    83  C    0.055214
    84  C    0.056000
    85  Cl  -0.016304
    86  Cl  -0.034214
 Sum of Mulliken charges =  -0.00000
 Mulliken charges with hydrogens summed into heavy atoms:
               1
     1  C   -0.022720
     2  C   -0.040814
     3  C   -0.022847
     4  C   -0.019285
     5  C   -0.020812
     6  C   -0.014508
     7  C   -0.019849
     8  C   -0.016512
     9  C    0.053251
    10  C    0.001978
    11  C   -0.001737
    12  C    0.054538
    13  C   -0.032091
    14  C   -0.027982
    15  C   -0.027266
    16  C   -0.023985
    17  C    0.058485
    18  C    0.056857
    19  C    0.055384
    20  C    0.056483
    21  C   -0.020464
    22  C   -0.020979
    23  C   -0.015714
    24  C   -0.015287
    25  C   -0.012131
    26  C   -0.012832
    27  C   -0.018322
    28  C   -0.019838
    29  C   -0.017704
    30  C   -0.016163
    31  C   -0.008356
    32  C   -0.014680
    33  C   -0.046836
    34  C   -0.023924
    35  C    0.073928
    36  C    0.046905
    37  C    0.099027
    38  C    0.036985
    39  C    0.131952
    40  C    0.042018
    41  C    0.008977
    42  C    0.048750
    43  C    0.008402
    44  C    0.067671
    45  C    0.042123
    46  C   -0.032836
    47  C    0.043985
    48  C    0.045807
    49  C   -0.023170
    50  C   -0.021879
    51  C   -0.010440
    52  C   -0.013191
    53  C   -0.019766
    54  C   -0.023888
    55  C   -0.019121
    56  C   -0.021028
    57  C   -0.016796
    58  C   -0.019775
    59  C   -0.013503
    60  C   -0.013788
    61  C   -0.018878
    62  C   -0.019822
    63  C    0.038112
    64  C    0.039756
    65  C    0.036637
    66  C    0.036312
    67  C    0.038090
    68  C    0.039957
    69  C   -0.020058
    70  C   -0.022730
    71  C   -0.005798
    72  C   -0.009583
    73  C    0.015881
    74  C   -0.015686
    75  C    0.072456
    76  C    0.025781
    77  C   -0.348957
    78  C   -0.000586
    79  C   -0.359670
    80  C    0.005295
    81  C    0.092519
    82  C    0.089585
    83  C    0.055214
    84  C    0.056000
    85  Cl  -0.016304
    86  Cl  -0.034214
 Electronic spatial extent (au):  <R**2>=          37539.1329
 Charge=              0.0000 electrons
 Dipole moment (field-independent basis, Debye):
    X=              4.0153    Y=              0.6298    Z=             -0.0480  Tot=              4.0647
 Quadrupole moment (field-independent basis, Debye-Ang):
   XX=           -500.8418   YY=           -478.2350   ZZ=           -476.4447
   XY=             -7.4126   XZ=             -1.1822   YZ=             -1.4303
 Traceless Quadrupole moment (field-independent basis, Debye-Ang):
   XX=            -15.6680   YY=              6.9388   ZZ=              8.7292
   XY=             -7.4126   XZ=             -1.1822   YZ=             -1.4303
 Octapole moment (field-independent basis, Debye-Ang**2):
  XXX=             78.1206  YYY=            -14.7621  ZZZ=            -12.5328  XYY=             -7.3128
  XXY=             12.4786  XXZ=              5.0063  XZZ=            -24.0823  YZZ=             -1.6205
  YYZ=              0.0081  XYZ=              9.7150
 Hexadecapole moment (field-independent basis, Debye-Ang**3):
 XXXX=         -22927.2691 YYYY=         -17130.4829 ZZZZ=         -16146.7240 XXXY=            -15.5595
 XXXZ=              4.9453 YYYX=             -1.3769 YYYZ=             23.6650 ZZZX=             37.1310
 ZZZY=             37.4559 XXYY=          -6608.8521 XXZZ=          -6394.3533 YYZZ=          -5544.6839
 XXYZ=            -40.7267 YYXZ=              0.7649 ZZXY=             -0.2667
 N-N= 1.559720420245D+04 E-N=-4.078777134164D+04  KE= 4.088604992613D+03
 No NMR shielding tensors so no spin-rotation constants.
 Leave Link  601 at Tue Jun 28 22:49:20 2022, MaxMem=  1342177280 cpu:              22.5 elap:               1.1
 (Enter /home/mkliu/g16/l9999.exe)
 1\1\GINC-NODE01\FOpt\RB3LYP\6-31G(d,p)\C84Cl2\MKLIU\28-Jun-2022\0\\#P 
 opt b3lyp/6-31G(d, p) empiricaldispersion=GD3\\force\\0,1\C,8.26445237
 1,18.8303154914,10.5611429479\C,12.2910347999,20.1422249499,8.94412741
 44\C,8.2629755719,26.9232260368,10.5631866303\C,12.2903409276,25.60943
 75436,8.9677151503\C,7.948351451,18.8840938179,9.1702157233\C,11.86620
 07754,19.5666767757,10.1989913694\C,7.9458336192,26.8784273863,9.17340
 75164\C,11.8645422786,26.192127817,10.212970497\C,8.9500977054,19.0727
 358118,8.1749712156\C,12.1252153676,20.2258038134,11.371697984\C,12.13
 55084275,25.5466331832,11.3923714366\C,8.9458790826,26.7049552573,8.17
 33722961\C,10.2810524685,19.0119354094,8.6370146424\C,10.2798649714,26
 .7650239935,8.6358909328\C,10.6058264102,18.8781425646,10.016134192\C,
 10.6005133614,26.8771000629,10.0171347773\C,9.6012081667,18.9010161881
 ,11.0242814862\C,9.5989468997,26.8543053699,11.0290918353\C,9.88052294
 08,19.6103312181,12.2819137314\C,9.8811634238,26.148525176,12.28889359
 65\C,8.8047618076,20.221427979,12.9810301643\C,8.8040951122,25.5350158
 848,12.9858513012\C,7.4593978085,20.2105669513,12.4226150338\C,7.46024
 04937,25.5445873123,12.4250047852\C,7.1988759345,19.5359354339,11.2620
 467438\C,7.1962110521,26.2216013527,11.2666319212\C,6.2818844293,20.09
 63691339,10.3061114144\C,6.2767785698,25.6654329169,10.3134709569\C,6.
 6808579807,19.5623936284,9.0370822312\C,6.6710838118,26.2019609842,9.0
 433256236\C,6.3889430003,20.2377835762,7.8821110657\C,6.3640568512,25.
 5352882504,7.8929004492\C,7.3290683774,20.2801955552,6.7861048305\C,7.
 3076551974,25.4880571273,6.7892471384\C,8.653802517,19.847047575,6.968
 3534249\C,8.6382454312,25.9346277726,6.9591490275\C,9.7373380748,20.59
 53575595,6.3138650804\C,9.7045379441,25.1770061498,6.3002253596\C,11.0
 209791008,20.5818211014,6.8498183519\C,12.8001246369,22.1615777102,7.7
 423968726\C,12.7463954585,23.586977996,7.7533585496\C,11.0447138118,25
 .1829479646,6.8671278328\C,11.3246255358,19.7799883776,7.9824391627\C,
 12.9472536245,21.4354996066,8.9106856335\C,12.9303150759,24.3368618186
 ,8.9391294612\C,11.3301458514,25.9896936774,7.9833814562\C,13.17521471
 04,22.1592241043,10.171863293\C,13.1836587663,23.6193646349,10.1802364
 958\C,12.8461443463,21.491849159,11.3741248621\C,12.8518342563,24.2872
 921859,11.3911959148\C,12.397334973,22.1971302532,12.5304341075\C,12.4
 006263675,23.5744130153,12.5428305835\C,11.1514575672,20.2287694632,12
 .4505872108\C,11.1539307003,25.5383309152,12.4669299082\C,11.307616938
 3,21.455628165,13.1580126779\C,11.3104183785,24.3099503413,13.17259355
 05\C,8.9622754533,21.4550208314,13.6740898748\C,8.9614723543,24.303061
 9845,13.6811700696\C,7.7163171942,22.19453652,13.5395219705\C,7.716132
 0548,23.5623444902,13.5415540236\C,6.8298910972,21.4814683339,12.66021
 93538\C,6.8288931582,24.2748953047,12.6634245204\C,6.0669207891,22.147
 1973533,11.6600647664\C,6.0666544845,23.6104749984,11.6620168568\C,5.7
 738076873,21.4203838519,10.4296958125\C,5.7690314426,24.3400887362,10.
 4337615304\C,5.4614928282,22.1509561602,9.2008348691\C,5.4518426316,23
 .6152222004,9.2039303332\C,5.6717420648,21.48963926,7.957390486\C,5.64
 29380685,24.2864803315,7.9623669144\C,5.9792024652,22.2026641852,6.750
 8976775\C,5.9564617689,23.582953939,6.7496698876\C,7.010931393,21.4831
 703654,6.0279004296\C,6.9887682988,24.3092677415,6.0424307512\C,7.9837
 439611,22.1656692764,5.3505704685\C,8.0002634439,23.6010013242,5.40041
 26605\C,9.3899182384,21.6225678305,5.2300067951\C,9.353965084,24.04779
 19381,5.5173847709\C,12.0710204683,21.6309237399,6.5051234221\C,11.867
 9781313,24.0255141734,6.7124754134\C,10.2084334786,22.8904250778,5.395
 2359516\C,11.4329727798,22.887772228,5.9726558088\C,10.2064459625,22.1
 440289625,13.7296853403\C,10.2059640012,23.6173357606,13.7354885353\Cl
 ,13.2961311113,20.9046673571,5.3078547825\Cl,9.6469210717,20.833224260
 8,3.551597746\\Version=ES64L-G16RevA.03\State=1-A\HF=-4121.3999009\RMS
 D=7.534e-09\RMSF=8.793e-05\Dipole=-0.412138,0.6562731,1.3988688\Quadru
 pole=2.8781563,3.5893818,-6.4675381,3.0738986,6.3415883,-7.302439\PG=C
 01 [X(C84Cl2)]\\@


 LOGIC IS A SYSTEMATIC METHOD OF COMING TO THE
 WRONG CONCLUSION WITH CONFIDENCE.
 Job cpu time:       1 days  1 hours  6 minutes 60.0 seconds.
 Elapsed time:       0 days  1 hours  2 minutes 53.6 seconds.
 File lengths (MBytes):  RWF=   1037 Int=      0 D2E=      0 Chk=    130 Scr=      1
 Normal termination of Gaussian 16 at Tue Jun 28 22:49:20 2022.
