 Entering Gaussian System, Link 0=g16
 Input=4_addons_C84_14_Cl22_rank_9.gjf
 Output=4_addons_C84_14_Cl22_rank_9.log
 Initial command:
 /home/mkliu/g16/l1.exe "/data/scratch/Gau-183431.inp" -scrdir="/data/scratch/"
 Entering Link 1 = /home/mkliu/g16/l1.exe PID=    183432.
  
 Copyright (c) 1988,1990,1992,1993,1995,1998,2003,2009,2016,
            Gaussian, Inc.  All Rights Reserved.
  
 This is part of the Gaussian(R) 16 program.  It is based on
 the Gaussian(R) 09 system (copyright 2009, Gaussian, Inc.),
 the Gaussian(R) 03 system (copyright 2003, Gaussian, Inc.),
 the Gaussian(R) 98 system (copyright 1998, Gaussian, Inc.),
 the Gaussian(R) 94 system (copyright 1995, Gaussian, Inc.),
 the Gaussian 92(TM) system (copyright 1992, Gaussian, Inc.),
 the Gaussian 90(TM) system (copyright 1990, Gaussian, Inc.),
 the Gaussian 88(TM) system (copyright 1988, Gaussian, Inc.),
 the Gaussian 86(TM) system (copyright 1986, Carnegie Mellon
 University), and the Gaussian 82(TM) system (copyright 1983,
 Carnegie Mellon University). Gaussian is a federally registered
 trademark of Gaussian, Inc.
  
 This software contains proprietary and confidential information,
 including trade secrets, belonging to Gaussian, Inc.
  
 This software is provided under written license and may be
 used, copied, transmitted, or stored only in accord with that
 written license.
  
 The following legend is applicable only to US Government
 contracts under FAR:
  
                    RESTRICTED RIGHTS LEGEND
  
 Use, reproduction and disclosure by the US Government is
 subject to restrictions as set forth in subparagraphs (a)
 and (c) of the Commercial Computer Software - Restricted
 Rights clause in FAR 52.227-19.
  
 Gaussian, Inc.
 340 Quinnipiac St., Bldg. 40, Wallingford CT 06492
  
  
 ---------------------------------------------------------------
 Warning -- This program may not be used in any manner that
 competes with the business of Gaussian, Inc. or will provide
 assistance to any competitor of Gaussian, Inc.  The licensee
 of this program is prohibited from giving any competitor of
 Gaussian, Inc. access to this program.  By using this program,
 the user acknowledges that Gaussian, Inc. is engaged in the
 business of creating and licensing software in the field of
 computational chemistry and represents and warrants to the
 licensee that it is not a competitor of Gaussian, Inc. and that
 it will not use this program in any manner prohibited above.
 ---------------------------------------------------------------
  

 Cite this work as:
 Gaussian 16, Revision A.03,
 M. J. Frisch, G. W. Trucks, H. B. Schlegel, G. E. Scuseria, 
 M. A. Robb, J. R. Cheeseman, G. Scalmani, V. Barone, 
 G. A. Petersson, H. Nakatsuji, X. Li, M. Caricato, A. V. Marenich, 
 J. Bloino, B. G. Janesko, R. Gomperts, B. Mennucci, H. P. Hratchian, 
 J. V. Ortiz, A. F. Izmaylov, J. L. Sonnenberg, D. Williams-Young, 
 F. Ding, F. Lipparini, F. Egidi, J. Goings, B. Peng, A. Petrone, 
 T. Henderson, D. Ranasinghe, V. G. Zakrzewski, J. Gao, N. Rega, 
 G. Zheng, W. Liang, M. Hada, M. Ehara, K. Toyota, R. Fukuda, 
 J. Hasegawa, M. Ishida, T. Nakajima, Y. Honda, O. Kitao, H. Nakai, 
 T. Vreven, K. Throssell, J. A. Montgomery, Jr., J. E. Peralta, 
 F. Ogliaro, M. J. Bearpark, J. J. Heyd, E. N. Brothers, K. N. Kudin, 
 V. N. Staroverov, T. A. Keith, R. Kobayashi, J. Normand, 
 K. Raghavachari, A. P. Rendell, J. C. Burant, S. S. Iyengar, 
 J. Tomasi, M. Cossi, J. M. Millam, M. Klene, C. Adamo, R. Cammi, 
 J. W. Ochterski, R. L. Martin, K. Morokuma, O. Farkas, 
 J. B. Foresman, and D. J. Fox, Gaussian, Inc., Wallingford CT, 2016.
 
 ******************************************
 Gaussian 16:  ES64L-G16RevA.03 25-Dec-2016
                30-Jun-2022 
 ******************************************
 %mem=10GB
 %chk=4_addons_C84_14_Cl22_rank_9.chk
 %nprocshared=24
 Will use up to   24 processors via shared memory.
 ------------------------------------------------
 #P opt b3lyp/6-31G(d, p) empiricaldispersion=GD3
 ------------------------------------------------
 1/18=20,19=15,26=3,38=1/1,3;
 2/9=110,12=2,17=6,18=5,40=1/2;
 3/5=1,6=6,7=101,11=2,25=1,30=1,71=1,74=-5,124=31/1,2,3;
 4//1;
 5/5=2,38=5/2;
 6/7=2,8=2,9=2,10=2,28=1/1;
 7//1,2,3,16;
 1/18=20,19=15,26=3/3(2);
 2/9=110/2;
 99//99;
 2/9=110/2;
 3/5=1,6=6,7=101,11=2,25=1,30=1,71=1,74=-5,124=31/1,2,3;
 4/5=5,16=3,69=1/1;
 5/5=2,38=5/2;
 7//1,2,3,16;
 1/18=20,19=15,26=3/3(-5);
 2/9=110/2;
 6/7=2,8=2,9=2,10=2,19=2,28=1/1;
 99/9=1/99;
 Leave Link    1 at Thu Jun 30 06:17:19 2022, MaxMem=  1342177280 cpu:               0.6 elap:               0.0
 (Enter /home/mkliu/g16/l101.exe)
 -----
 force
 -----
 Symbolic Z-matrix:
 Charge =  0 Multiplicity = 1
 C                     8.28601   18.86349   10.52113 
 C                     12.27096   20.16729   8.93524 
 C                     8.28547   26.85485   10.53143 
 C                     12.2873   25.57519   8.94375 
 C                     7.97724   18.90628   9.14391 
 C                     11.83657   19.59344   10.17301 
 C                     7.97238   26.8117   9.14572 
 C                     11.86417   26.15511   10.1839 
 C                     8.96218   19.07831   8.13294 
 C                     12.08564   20.24493   11.35332 
 C                     12.12862   25.50858   11.35763 
 C                     8.96575   26.65271   8.14696 
 C                     10.28291   19.02083   8.5932 
 C                     10.29135   26.71733   8.61438 
 C                     10.59456   18.92378   9.97972 
 C                     10.60608   26.83116   9.98558 
 C                     9.61111   18.95734   10.99128 
 C                     9.61685   26.80822   10.99489 
 C                     9.89995   19.64359   12.23101 
 C                     9.88837   26.1248   12.23195 
 C                     8.78247   20.08945   13.14145 
 C                     8.81221   25.52003   12.90407 
 C                     7.48083   20.23633   12.39679 
 C                     7.4757    25.57798   12.40138 
 C                     7.23136   19.569    11.22816 
 C                     7.21628   26.24039   11.25257 
 C                     6.33169   20.12737   10.28758 
 C                     6.10975   25.81255   10.336 
 C                     6.71527   19.58288   9.0191 
 C                     6.69553   26.20619   9.01379 
 C                     6.40657   20.24907   7.87518 
 C                     6.40787   25.519    7.88467 
 C                     7.33865   20.29264   6.77373 
 C                     7.3465    25.45582   6.79865 
 C                     8.66137   19.84049   6.93326 
 C                     8.67152   25.90692   6.94707 
 C                     9.71579   20.58095   6.2662 
 C                     9.72322   25.16908   6.27488 
 C                     11.05461   20.57067   6.82299 
 C                     12.74724   22.1499   7.72396 
 C                     12.75201   23.59151   7.72574 
 C                     11.06005   25.17327   6.83551 
 C                     11.32529   19.77892   7.94963 
 C                     12.9095   21.42802   8.91554 
 C                     12.9283   24.31338   8.91527 
 C                     11.33462   25.95945   7.96509 
 C                     13.14172   22.14898   10.1515 
 C                     13.15989   23.59079   10.14977 
 C                     12.79266   21.49595   11.35377 
 C                     12.82602   24.24752   11.34879 
 C                     12.39317   22.18379   12.52023 
 C                     12.38282   23.5488   12.50444 
 C                     11.12612   20.22674   12.41022 
 C                     11.15317   25.50286   12.42211 
 C                     11.4323   21.37295   13.35136 
 C                     11.30503   24.29865   13.12955 
 C                     8.99283   21.50425   13.63097 
 C                     8.96662   24.28526   13.5972 
 C                     7.77531   22.22409   13.47525 
 C                     7.74464   23.58253   13.51403 
 C                     6.89128   21.49602   12.59467 
 C                     6.68514   24.36501   12.7972 
 C                     6.16122   22.17387   11.5927 
 C                     6.15722   23.62059   11.57256 
 C                     5.84748   21.45156   10.39633 
 C                     5.86915   24.30505   10.41474 
 C                     5.52223   22.16278   9.18799 
 C                     5.53527   23.60225   9.19165 
 C                     5.688     21.49248   7.9518 
 C                     5.67715   24.26611   7.95739 
 C                     5.98162   22.18738   6.75174 
 C                     5.98009   23.57089   6.75858 
 C                     7.00899   21.46395   6.03543 
 C                     7.01274   24.29112   6.0502 
 C                     8.01016   22.15673   5.38465 
 C                     8.01135   23.60183   5.39251 
 C                     9.35445   21.69704   5.48552 
 C                     9.35844   24.05786   5.49098 
 C                     11.89103   21.7026   6.68234 
 C                     11.89511   24.04181   6.68825 
 C                     10.18379   22.87716   5.42795 
 C                     11.41992   22.87317   6.0095 
 C                     10.19456   22.16077   13.68988 
 C                     10.20164   23.59748   13.66594 
 Cl                    8.63958   18.938    14.53656 
 Cl                    12.2121   20.76784   14.87489 
 Cl                    5.27517   24.75392   13.8657 
 Cl                    4.54425   26.65503   10.67369 
 
 ITRead=  0  0  0  0  0  0  0  0  0  0  0  0  0  0  0  0  0  0  0  0
 ITRead=  0  0  0  0  0  0  0  0  0  0  0  0  0  0  0  0  0  0  0  0
 ITRead=  0  0  0  0  0  0  0  0  0  0  0  0  0  0  0  0  0  0  0  0
 ITRead=  0  0  0  0  0  0  0  0  0  0  0  0  0  0  0  0  0  0  0  0
 ITRead=  0  0  0  0  0  0  0  0
 MicOpt= -1 -1 -1 -1 -1 -1 -1 -1 -1 -1 -1 -1 -1 -1 -1 -1 -1 -1 -1 -1
 MicOpt= -1 -1 -1 -1 -1 -1 -1 -1 -1 -1 -1 -1 -1 -1 -1 -1 -1 -1 -1 -1
 MicOpt= -1 -1 -1 -1 -1 -1 -1 -1 -1 -1 -1 -1 -1 -1 -1 -1 -1 -1 -1 -1
 MicOpt= -1 -1 -1 -1 -1 -1 -1 -1 -1 -1 -1 -1 -1 -1 -1 -1 -1 -1 -1 -1
 MicOpt= -1 -1 -1 -1 -1 -1 -1 -1
 NAtoms=     88 NQM=       88 NQMF=       0 NMMI=      0 NMMIF=      0
                NMic=       0 NMicF=      0.
                    Isotopes and Nuclear Properties:
 (Nuclear quadrupole moments (NQMom) in fm**2, nuclear magnetic moments (NMagM)
  in nuclear magnetons)

  Atom         1           2           3           4           5           6           7           8           9          10
 IAtWgt=          12          12          12          12          12          12          12          12          12          12
 AtmWgt=  12.0000000  12.0000000  12.0000000  12.0000000  12.0000000  12.0000000  12.0000000  12.0000000  12.0000000  12.0000000
 NucSpn=           0           0           0           0           0           0           0           0           0           0
 AtZEff=  -0.0000000  -0.0000000  -0.0000000  -0.0000000  -0.0000000  -0.0000000  -0.0000000  -0.0000000  -0.0000000  -0.0000000
 NQMom=    0.0000000   0.0000000   0.0000000   0.0000000   0.0000000   0.0000000   0.0000000   0.0000000   0.0000000   0.0000000
 NMagM=    0.0000000   0.0000000   0.0000000   0.0000000   0.0000000   0.0000000   0.0000000   0.0000000   0.0000000   0.0000000
 AtZNuc=   6.0000000   6.0000000   6.0000000   6.0000000   6.0000000   6.0000000   6.0000000   6.0000000   6.0000000   6.0000000

  Atom        11          12          13          14          15          16          17          18          19          20
 IAtWgt=          12          12          12          12          12          12          12          12          12          12
 AtmWgt=  12.0000000  12.0000000  12.0000000  12.0000000  12.0000000  12.0000000  12.0000000  12.0000000  12.0000000  12.0000000
 NucSpn=           0           0           0           0           0           0           0           0           0           0
 AtZEff=  -0.0000000  -0.0000000  -0.0000000  -0.0000000  -0.0000000  -0.0000000  -0.0000000  -0.0000000  -0.0000000  -0.0000000
 NQMom=    0.0000000   0.0000000   0.0000000   0.0000000   0.0000000   0.0000000   0.0000000   0.0000000   0.0000000   0.0000000
 NMagM=    0.0000000   0.0000000   0.0000000   0.0000000   0.0000000   0.0000000   0.0000000   0.0000000   0.0000000   0.0000000
 AtZNuc=   6.0000000   6.0000000   6.0000000   6.0000000   6.0000000   6.0000000   6.0000000   6.0000000   6.0000000   6.0000000

  Atom        21          22          23          24          25          26          27          28          29          30
 IAtWgt=          12          12          12          12          12          12          12          12          12          12
 AtmWgt=  12.0000000  12.0000000  12.0000000  12.0000000  12.0000000  12.0000000  12.0000000  12.0000000  12.0000000  12.0000000
 NucSpn=           0           0           0           0           0           0           0           0           0           0
 AtZEff=  -0.0000000  -0.0000000  -0.0000000  -0.0000000  -0.0000000  -0.0000000  -0.0000000  -0.0000000  -0.0000000  -0.0000000
 NQMom=    0.0000000   0.0000000   0.0000000   0.0000000   0.0000000   0.0000000   0.0000000   0.0000000   0.0000000   0.0000000
 NMagM=    0.0000000   0.0000000   0.0000000   0.0000000   0.0000000   0.0000000   0.0000000   0.0000000   0.0000000   0.0000000
 AtZNuc=   6.0000000   6.0000000   6.0000000   6.0000000   6.0000000   6.0000000   6.0000000   6.0000000   6.0000000   6.0000000

  Atom        31          32          33          34          35          36          37          38          39          40
 IAtWgt=          12          12          12          12          12          12          12          12          12          12
 AtmWgt=  12.0000000  12.0000000  12.0000000  12.0000000  12.0000000  12.0000000  12.0000000  12.0000000  12.0000000  12.0000000
 NucSpn=           0           0           0           0           0           0           0           0           0           0
 AtZEff=  -0.0000000  -0.0000000  -0.0000000  -0.0000000  -0.0000000  -0.0000000  -0.0000000  -0.0000000  -0.0000000  -0.0000000
 NQMom=    0.0000000   0.0000000   0.0000000   0.0000000   0.0000000   0.0000000   0.0000000   0.0000000   0.0000000   0.0000000
 NMagM=    0.0000000   0.0000000   0.0000000   0.0000000   0.0000000   0.0000000   0.0000000   0.0000000   0.0000000   0.0000000
 AtZNuc=   6.0000000   6.0000000   6.0000000   6.0000000   6.0000000   6.0000000   6.0000000   6.0000000   6.0000000   6.0000000

  Atom        41          42          43          44          45          46          47          48          49          50
 IAtWgt=          12          12          12          12          12          12          12          12          12          12
 AtmWgt=  12.0000000  12.0000000  12.0000000  12.0000000  12.0000000  12.0000000  12.0000000  12.0000000  12.0000000  12.0000000
 NucSpn=           0           0           0           0           0           0           0           0           0           0
 AtZEff=  -0.0000000  -0.0000000  -0.0000000  -0.0000000  -0.0000000  -0.0000000  -0.0000000  -0.0000000  -0.0000000  -0.0000000
 NQMom=    0.0000000   0.0000000   0.0000000   0.0000000   0.0000000   0.0000000   0.0000000   0.0000000   0.0000000   0.0000000
 NMagM=    0.0000000   0.0000000   0.0000000   0.0000000   0.0000000   0.0000000   0.0000000   0.0000000   0.0000000   0.0000000
 AtZNuc=   6.0000000   6.0000000   6.0000000   6.0000000   6.0000000   6.0000000   6.0000000   6.0000000   6.0000000   6.0000000

  Atom        51          52          53          54          55          56          57          58          59          60
 IAtWgt=          12          12          12          12          12          12          12          12          12          12
 AtmWgt=  12.0000000  12.0000000  12.0000000  12.0000000  12.0000000  12.0000000  12.0000000  12.0000000  12.0000000  12.0000000
 NucSpn=           0           0           0           0           0           0           0           0           0           0
 AtZEff=  -0.0000000  -0.0000000  -0.0000000  -0.0000000  -0.0000000  -0.0000000  -0.0000000  -0.0000000  -0.0000000  -0.0000000
 NQMom=    0.0000000   0.0000000   0.0000000   0.0000000   0.0000000   0.0000000   0.0000000   0.0000000   0.0000000   0.0000000
 NMagM=    0.0000000   0.0000000   0.0000000   0.0000000   0.0000000   0.0000000   0.0000000   0.0000000   0.0000000   0.0000000
 AtZNuc=   6.0000000   6.0000000   6.0000000   6.0000000   6.0000000   6.0000000   6.0000000   6.0000000   6.0000000   6.0000000

  Atom        61          62          63          64          65          66          67          68          69          70
 IAtWgt=          12          12          12          12          12          12          12          12          12          12
 AtmWgt=  12.0000000  12.0000000  12.0000000  12.0000000  12.0000000  12.0000000  12.0000000  12.0000000  12.0000000  12.0000000
 NucSpn=           0           0           0           0           0           0           0           0           0           0
 AtZEff=  -0.0000000  -0.0000000  -0.0000000  -0.0000000  -0.0000000  -0.0000000  -0.0000000  -0.0000000  -0.0000000  -0.0000000
 NQMom=    0.0000000   0.0000000   0.0000000   0.0000000   0.0000000   0.0000000   0.0000000   0.0000000   0.0000000   0.0000000
 NMagM=    0.0000000   0.0000000   0.0000000   0.0000000   0.0000000   0.0000000   0.0000000   0.0000000   0.0000000   0.0000000
 AtZNuc=   6.0000000   6.0000000   6.0000000   6.0000000   6.0000000   6.0000000   6.0000000   6.0000000   6.0000000   6.0000000

  Atom        71          72          73          74          75          76          77          78          79          80
 IAtWgt=          12          12          12          12          12          12          12          12          12          12
 AtmWgt=  12.0000000  12.0000000  12.0000000  12.0000000  12.0000000  12.0000000  12.0000000  12.0000000  12.0000000  12.0000000
 NucSpn=           0           0           0           0           0           0           0           0           0           0
 AtZEff=  -0.0000000  -0.0000000  -0.0000000  -0.0000000  -0.0000000  -0.0000000  -0.0000000  -0.0000000  -0.0000000  -0.0000000
 NQMom=    0.0000000   0.0000000   0.0000000   0.0000000   0.0000000   0.0000000   0.0000000   0.0000000   0.0000000   0.0000000
 NMagM=    0.0000000   0.0000000   0.0000000   0.0000000   0.0000000   0.0000000   0.0000000   0.0000000   0.0000000   0.0000000
 AtZNuc=   6.0000000   6.0000000   6.0000000   6.0000000   6.0000000   6.0000000   6.0000000   6.0000000   6.0000000   6.0000000

  Atom        81          82          83          84          85          86          87          88
 IAtWgt=          12          12          12          12          35          35          35          35
 AtmWgt=  12.0000000  12.0000000  12.0000000  12.0000000  34.9688527  34.9688527  34.9688527  34.9688527
 NucSpn=           0           0           0           0           3           3           3           3
 AtZEff=  -0.0000000  -0.0000000  -0.0000000  -0.0000000  -0.0000000  -0.0000000  -0.0000000  -0.0000000
 NQMom=    0.0000000   0.0000000   0.0000000   0.0000000  -8.1650000  -8.1650000  -8.1650000  -8.1650000
 NMagM=    0.0000000   0.0000000   0.0000000   0.0000000   0.8218740   0.8218740   0.8218740   0.8218740
 AtZNuc=   6.0000000   6.0000000   6.0000000   6.0000000  17.0000000  17.0000000  17.0000000  17.0000000
 Leave Link  101 at Thu Jun 30 06:17:19 2022, MaxMem=  1342177280 cpu:               6.5 elap:               0.3
 (Enter /home/mkliu/g16/l103.exe)

 GradGradGradGradGradGradGradGradGradGradGradGradGradGradGradGradGradGrad
 Berny optimization.
 Initialization pass.
                           ----------------------------
                           !    Initial Parameters    !
                           ! (Angstroms and Degrees)  !
 --------------------------                            --------------------------
 ! Name  Definition              Value          Derivative Info.                !
 --------------------------------------------------------------------------------
 ! R1    R(1,5)                  1.4121         estimate D2E/DX2                !
 ! R2    R(1,17)                 1.4092         estimate D2E/DX2                !
 ! R3    R(1,25)                 1.4526         estimate D2E/DX2                !
 ! R4    R(2,6)                  1.4318         estimate D2E/DX2                !
 ! R5    R(2,43)                 1.4201         estimate D2E/DX2                !
 ! R6    R(2,44)                 1.4134         estimate D2E/DX2                !
 ! R7    R(3,7)                  1.4213         estimate D2E/DX2                !
 ! R8    R(3,18)                 1.4105         estimate D2E/DX2                !
 ! R9    R(3,26)                 1.4286         estimate D2E/DX2                !
 ! R10   R(4,8)                  1.4329         estimate D2E/DX2                !
 ! R11   R(4,45)                 1.4156         estimate D2E/DX2                !
 ! R12   R(4,46)                 1.4188         estimate D2E/DX2                !
 ! R13   R(5,9)                  1.4219         estimate D2E/DX2                !
 ! R14   R(5,29)                 1.4373         estimate D2E/DX2                !
 ! R15   R(6,10)                 1.371          estimate D2E/DX2                !
 ! R16   R(6,15)                 1.4242         estimate D2E/DX2                !
 ! R17   R(7,12)                 1.4176         estimate D2E/DX2                !
 ! R18   R(7,30)                 1.4193         estimate D2E/DX2                !
 ! R19   R(8,11)                 1.3659         estimate D2E/DX2                !
 ! R20   R(8,16)                 1.4419         estimate D2E/DX2                !
 ! R21   R(9,13)                 1.3998         estimate D2E/DX2                !
 ! R22   R(9,35)                 1.4528         estimate D2E/DX2                !
 ! R23   R(10,49)                1.437          estimate D2E/DX2                !
 ! R24   R(10,53)                1.4276         estimate D2E/DX2                !
 ! R25   R(11,50)                1.4411         estimate D2E/DX2                !
 ! R26   R(11,54)                1.4438         estimate D2E/DX2                !
 ! R27   R(12,14)                1.4071         estimate D2E/DX2                !
 ! R28   R(12,36)                1.4431         estimate D2E/DX2                !
 ! R29   R(13,15)                1.4244         estimate D2E/DX2                !
 ! R30   R(13,43)                1.4406         estimate D2E/DX2                !
 ! R31   R(14,16)                1.4115         estimate D2E/DX2                !
 ! R32   R(14,46)                1.4437         estimate D2E/DX2                !
 ! R33   R(15,17)                1.4112         estimate D2E/DX2                !
 ! R34   R(16,18)                1.4134         estimate D2E/DX2                !
 ! R35   R(17,19)                1.4461         estimate D2E/DX2                !
 ! R36   R(18,20)                1.4391         estimate D2E/DX2                !
 ! R37   R(19,21)                1.5088         estimate D2E/DX2                !
 ! R38   R(19,53)                1.3696         estimate D2E/DX2                !
 ! R39   R(20,22)                1.4056         estimate D2E/DX2                !
 ! R40   R(20,54)                1.4222         estimate D2E/DX2                !
 ! R41   R(21,23)                1.5068         estimate D2E/DX2                !
 ! R42   R(21,57)                1.5118         estimate D2E/DX2                !
 ! R43   R(21,85)                1.8145         estimate D2E/DX2                !
 ! R44   R(22,24)                1.4291         estimate D2E/DX2                !
 ! R45   R(22,58)                1.4244         estimate D2E/DX2                !
 ! R46   R(23,25)                1.3687         estimate D2E/DX2                !
 ! R47   R(23,61)                1.4048         estimate D2E/DX2                !
 ! R48   R(24,26)                1.3512         estimate D2E/DX2                !
 ! R49   R(24,62)                1.501          estimate D2E/DX2                !
 ! R50   R(25,27)                1.4163         estimate D2E/DX2                !
 ! R51   R(26,28)                1.4992         estimate D2E/DX2                !
 ! R52   R(27,29)                1.4327         estimate D2E/DX2                !
 ! R53   R(27,65)                1.4141         estimate D2E/DX2                !
 ! R54   R(28,30)                1.4988         estimate D2E/DX2                !
 ! R55   R(28,66)                1.5286         estimate D2E/DX2                !
 ! R56   R(28,88)                1.8096         estimate D2E/DX2                !
 ! R57   R(29,31)                1.3593         estimate D2E/DX2                !
 ! R58   R(30,32)                1.3527         estimate D2E/DX2                !
 ! R59   R(31,33)                1.4436         estimate D2E/DX2                !
 ! R60   R(31,69)                1.4382         estimate D2E/DX2                !
 ! R61   R(32,34)                1.4368         estimate D2E/DX2                !
 ! R62   R(32,70)                1.4522         estimate D2E/DX2                !
 ! R63   R(33,35)                1.4069         estimate D2E/DX2                !
 ! R64   R(33,73)                1.4233         estimate D2E/DX2                !
 ! R65   R(34,36)                1.4075         estimate D2E/DX2                !
 ! R66   R(34,74)                1.4241         estimate D2E/DX2                !
 ! R67   R(35,37)                1.4509         estimate D2E/DX2                !
 ! R68   R(36,38)                1.4499         estimate D2E/DX2                !
 ! R69   R(37,39)                1.45           estimate D2E/DX2                !
 ! R70   R(37,77)                1.4092         estimate D2E/DX2                !
 ! R71   R(38,42)                1.4496         estimate D2E/DX2                !
 ! R72   R(38,78)                1.408          estimate D2E/DX2                !
 ! R73   R(39,43)                1.4034         estimate D2E/DX2                !
 ! R74   R(39,79)                1.4144         estimate D2E/DX2                !
 ! R75   R(40,41)                1.4416         estimate D2E/DX2                !
 ! R76   R(40,44)                1.4026         estimate D2E/DX2                !
 ! R77   R(40,79)                1.4206         estimate D2E/DX2                !
 ! R78   R(41,45)                1.4026         estimate D2E/DX2                !
 ! R79   R(41,80)                1.4189         estimate D2E/DX2                !
 ! R80   R(42,46)                1.4034         estimate D2E/DX2                !
 ! R81   R(42,80)                1.4139         estimate D2E/DX2                !
 ! R82   R(44,47)                1.4496         estimate D2E/DX2                !
 ! R83   R(45,48)                1.4491         estimate D2E/DX2                !
 ! R84   R(47,48)                1.4419         estimate D2E/DX2                !
 ! R85   R(47,49)                1.412          estimate D2E/DX2                !
 ! R86   R(48,50)                1.4073         estimate D2E/DX2                !
 ! R87   R(49,51)                1.4119         estimate D2E/DX2                !
 ! R88   R(50,52)                1.4213         estimate D2E/DX2                !
 ! R89   R(51,52)                1.3651         estimate D2E/DX2                !
 ! R90   R(51,55)                1.5072         estimate D2E/DX2                !
 ! R91   R(52,56)                1.4542         estimate D2E/DX2                !
 ! R92   R(53,55)                1.5144         estimate D2E/DX2                !
 ! R93   R(54,56)                1.4049         estimate D2E/DX2                !
 ! R94   R(55,83)                1.5057         estimate D2E/DX2                !
 ! R95   R(55,86)                1.8153         estimate D2E/DX2                !
 ! R96   R(56,84)                1.4131         estimate D2E/DX2                !
 ! R97   R(57,59)                1.423          estimate D2E/DX2                !
 ! R98   R(57,83)                1.3706         estimate D2E/DX2                !
 ! R99   R(58,60)                1.4121         estimate D2E/DX2                !
 ! R100  R(58,84)                1.4153         estimate D2E/DX2                !
 ! R101  R(59,60)                1.3593         estimate D2E/DX2                !
 ! R102  R(59,61)                1.4446         estimate D2E/DX2                !
 ! R103  R(60,62)                1.4996         estimate D2E/DX2                !
 ! R104  R(61,63)                1.4129         estimate D2E/DX2                !
 ! R105  R(62,64)                1.5273         estimate D2E/DX2                !
 ! R106  R(62,87)                1.8113         estimate D2E/DX2                !
 ! R107  R(63,64)                1.4469         estimate D2E/DX2                !
 ! R108  R(63,65)                1.4323         estimate D2E/DX2                !
 ! R109  R(64,66)                1.3755         estimate D2E/DX2                !
 ! R110  R(65,67)                1.4393         estimate D2E/DX2                !
 ! R111  R(66,68)                1.4496         estimate D2E/DX2                !
 ! R112  R(67,68)                1.4395         estimate D2E/DX2                !
 ! R113  R(67,69)                1.416          estimate D2E/DX2                !
 ! R114  R(68,70)                1.4086         estimate D2E/DX2                !
 ! R115  R(69,71)                1.4175         estimate D2E/DX2                !
 ! R116  R(70,72)                1.4185         estimate D2E/DX2                !
 ! R117  R(71,72)                1.3835         estimate D2E/DX2                !
 ! R118  R(71,73)                1.4463         estimate D2E/DX2                !
 ! R119  R(72,74)                1.4446         estimate D2E/DX2                !
 ! R120  R(73,75)                1.3805         estimate D2E/DX2                !
 ! R121  R(74,76)                1.3802         estimate D2E/DX2                !
 ! R122  R(75,76)                1.4451         estimate D2E/DX2                !
 ! R123  R(75,77)                1.4243         estimate D2E/DX2                !
 ! R124  R(76,78)                1.4256         estimate D2E/DX2                !
 ! R125  R(77,81)                1.4435         estimate D2E/DX2                !
 ! R126  R(78,81)                1.4419         estimate D2E/DX2                !
 ! R127  R(79,82)                1.43           estimate D2E/DX2                !
 ! R128  R(80,82)                1.4326         estimate D2E/DX2                !
 ! R129  R(81,82)                1.3661         estimate D2E/DX2                !
 ! R130  R(83,84)                1.4369         estimate D2E/DX2                !
 ! A1    A(5,1,17)             121.9385         estimate D2E/DX2                !
 ! A2    A(5,1,25)             107.5327         estimate D2E/DX2                !
 ! A3    A(17,1,25)            119.2096         estimate D2E/DX2                !
 ! A4    A(6,2,43)             106.7595         estimate D2E/DX2                !
 ! A5    A(6,2,44)             120.439          estimate D2E/DX2                !
 ! A6    A(43,2,44)            122.354          estimate D2E/DX2                !
 ! A7    A(7,3,18)             121.8215         estimate D2E/DX2                !
 ! A8    A(7,3,26)             108.315          estimate D2E/DX2                !
 ! A9    A(18,3,26)            121.7599         estimate D2E/DX2                !
 ! A10   A(8,4,45)             120.7886         estimate D2E/DX2                !
 ! A11   A(8,4,46)             106.8035         estimate D2E/DX2                !
 ! A12   A(45,4,46)            122.1121         estimate D2E/DX2                !
 ! A13   A(1,5,9)              123.0698         estimate D2E/DX2                !
 ! A14   A(1,5,29)             106.9147         estimate D2E/DX2                !
 ! A15   A(9,5,29)             119.3068         estimate D2E/DX2                !
 ! A16   A(2,6,10)             119.9124         estimate D2E/DX2                !
 ! A17   A(2,6,15)             109.6148         estimate D2E/DX2                !
 ! A18   A(10,6,15)            119.9147         estimate D2E/DX2                !
 ! A19   A(3,7,12)             122.408          estimate D2E/DX2                !
 ! A20   A(3,7,30)             107.5631         estimate D2E/DX2                !
 ! A21   A(12,7,30)            121.1363         estimate D2E/DX2                !
 ! A22   A(4,8,11)             119.6677         estimate D2E/DX2                !
 ! A23   A(4,8,16)             109.1687         estimate D2E/DX2                !
 ! A24   A(11,8,16)            120.6009         estimate D2E/DX2                !
 ! A25   A(5,9,13)             114.5079         estimate D2E/DX2                !
 ! A26   A(5,9,35)             120.4759         estimate D2E/DX2                !
 ! A27   A(13,9,35)            119.2363         estimate D2E/DX2                !
 ! A28   A(6,10,49)            120.2224         estimate D2E/DX2                !
 ! A29   A(6,10,53)            120.6108         estimate D2E/DX2                !
 ! A30   A(49,10,53)           109.9717         estimate D2E/DX2                !
 ! A31   A(8,11,50)            120.1753         estimate D2E/DX2                !
 ! A32   A(8,11,54)            120.306          estimate D2E/DX2                !
 ! A33   A(50,11,54)           109.1482         estimate D2E/DX2                !
 ! A34   A(7,12,14)            114.896          estimate D2E/DX2                !
 ! A35   A(7,12,36)            120.0592         estimate D2E/DX2                !
 ! A36   A(14,12,36)           119.4736         estimate D2E/DX2                !
 ! A37   A(9,13,15)            121.9568         estimate D2E/DX2                !
 ! A38   A(9,13,43)            120.943          estimate D2E/DX2                !
 ! A39   A(15,13,43)           108.2028         estimate D2E/DX2                !
 ! A40   A(12,14,16)           122.4451         estimate D2E/DX2                !
 ! A41   A(12,14,46)           120.4821         estimate D2E/DX2                !
 ! A42   A(16,14,46)           108.5484         estimate D2E/DX2                !
 ! A43   A(6,15,13)            106.9103         estimate D2E/DX2                !
 ! A44   A(6,15,17)            119.9513         estimate D2E/DX2                !
 ! A45   A(13,15,17)           122.9309         estimate D2E/DX2                !
 ! A46   A(8,16,14)            106.8798         estimate D2E/DX2                !
 ! A47   A(8,16,18)            120.3192         estimate D2E/DX2                !
 ! A48   A(14,16,18)           122.4353         estimate D2E/DX2                !
 ! A49   A(1,17,15)            114.4928         estimate D2E/DX2                !
 ! A50   A(1,17,19)            120.3608         estimate D2E/DX2                !
 ! A51   A(15,17,19)           119.1161         estimate D2E/DX2                !
 ! A52   A(3,18,16)            115.1787         estimate D2E/DX2                !
 ! A53   A(3,18,20)            118.4394         estimate D2E/DX2                !
 ! A54   A(16,18,20)           119.3061         estimate D2E/DX2                !
 ! A55   A(17,19,21)           120.6368         estimate D2E/DX2                !
 ! A56   A(17,19,53)           119.5418         estimate D2E/DX2                !
 ! A57   A(21,19,53)           117.2788         estimate D2E/DX2                !
 ! A58   A(18,20,22)           118.0936         estimate D2E/DX2                !
 ! A59   A(18,20,54)           119.3661         estimate D2E/DX2                !
 ! A60   A(22,20,54)           115.3918         estimate D2E/DX2                !
 ! A61   A(19,21,23)           111.7407         estimate D2E/DX2                !
 ! A62   A(19,21,57)           111.6463         estimate D2E/DX2                !
 ! A63   A(19,21,85)           109.5571         estimate D2E/DX2                !
 ! A64   A(23,21,57)           100.8943         estimate D2E/DX2                !
 ! A65   A(23,21,85)           111.9507         estimate D2E/DX2                !
 ! A66   A(57,21,85)           110.8455         estimate D2E/DX2                !
 ! A67   A(20,22,24)           122.0317         estimate D2E/DX2                !
 ! A68   A(20,22,58)           121.5121         estimate D2E/DX2                !
 ! A69   A(24,22,58)           107.9207         estimate D2E/DX2                !
 ! A70   A(21,23,25)           122.1342         estimate D2E/DX2                !
 ! A71   A(21,23,61)           112.3537         estimate D2E/DX2                !
 ! A72   A(25,23,61)           118.7495         estimate D2E/DX2                !
 ! A73   A(22,24,26)           119.8997         estimate D2E/DX2                !
 ! A74   A(22,24,62)           111.5333         estimate D2E/DX2                !
 ! A75   A(26,24,62)           121.2813         estimate D2E/DX2                !
 ! A76   A(1,25,23)            121.3377         estimate D2E/DX2                !
 ! A77   A(1,25,27)            109.2357         estimate D2E/DX2                !
 ! A78   A(23,25,27)           119.3809         estimate D2E/DX2                !
 ! A79   A(3,26,24)            119.7589         estimate D2E/DX2                !
 ! A80   A(3,26,28)            111.5018         estimate D2E/DX2                !
 ! A81   A(24,26,28)           121.4391         estimate D2E/DX2                !
 ! A82   A(25,27,29)           105.5506         estimate D2E/DX2                !
 ! A83   A(25,27,65)           122.3852         estimate D2E/DX2                !
 ! A84   A(29,27,65)           121.0392         estimate D2E/DX2                !
 ! A85   A(26,28,30)           100.1329         estimate D2E/DX2                !
 ! A86   A(26,28,66)           111.4765         estimate D2E/DX2                !
 ! A87   A(26,28,88)           113.0527         estimate D2E/DX2                !
 ! A88   A(30,28,66)           111.4674         estimate D2E/DX2                !
 ! A89   A(30,28,88)           112.3632         estimate D2E/DX2                !
 ! A90   A(66,28,88)           108.2612         estimate D2E/DX2                !
 ! A91   A(5,29,27)            109.6992         estimate D2E/DX2                !
 ! A92   A(5,29,31)            120.2107         estimate D2E/DX2                !
 ! A93   A(27,29,31)           119.8704         estimate D2E/DX2                !
 ! A94   A(7,30,28)            112.4364         estimate D2E/DX2                !
 ! A95   A(7,30,32)            119.0536         estimate D2E/DX2                !
 ! A96   A(28,30,32)           121.3209         estimate D2E/DX2                !
 ! A97   A(29,31,33)           120.6824         estimate D2E/DX2                !
 ! A98   A(29,31,69)           119.4961         estimate D2E/DX2                !
 ! A99   A(33,31,69)           109.7043         estimate D2E/DX2                !
 ! A100  A(30,32,34)           120.9523         estimate D2E/DX2                !
 ! A101  A(30,32,70)           120.2301         estimate D2E/DX2                !
 ! A102  A(34,32,70)           109.1845         estimate D2E/DX2                !
 ! A103  A(31,33,35)           120.7176         estimate D2E/DX2                !
 ! A104  A(31,33,73)           105.7288         estimate D2E/DX2                !
 ! A105  A(35,33,73)           122.7555         estimate D2E/DX2                !
 ! A106  A(32,34,36)           121.4108         estimate D2E/DX2                !
 ! A107  A(32,34,74)           106.2666         estimate D2E/DX2                !
 ! A108  A(36,34,74)           122.5576         estimate D2E/DX2                !
 ! A109  A(9,35,33)            117.1871         estimate D2E/DX2                !
 ! A110  A(9,35,37)            119.7969         estimate D2E/DX2                !
 ! A111  A(33,35,37)           117.846          estimate D2E/DX2                !
 ! A112  A(12,36,34)           116.4384         estimate D2E/DX2                !
 ! A113  A(12,36,38)           120.0375         estimate D2E/DX2                !
 ! A114  A(34,36,38)           118.0889         estimate D2E/DX2                !
 ! A115  A(35,37,39)           119.3964         estimate D2E/DX2                !
 ! A116  A(35,37,77)           118.2013         estimate D2E/DX2                !
 ! A117  A(39,37,77)           117.072          estimate D2E/DX2                !
 ! A118  A(36,38,42)           119.2182         estimate D2E/DX2                !
 ! A119  A(36,38,78)           118.152          estimate D2E/DX2                !
 ! A120  A(42,38,78)           117.1631         estimate D2E/DX2                !
 ! A121  A(37,39,43)           119.3639         estimate D2E/DX2                !
 ! A122  A(37,39,79)           120.1413         estimate D2E/DX2                !
 ! A123  A(43,39,79)           114.6621         estimate D2E/DX2                !
 ! A124  A(41,40,44)           120.8797         estimate D2E/DX2                !
 ! A125  A(41,40,79)           108.5277         estimate D2E/DX2                !
 ! A126  A(44,40,79)           122.0442         estimate D2E/DX2                !
 ! A127  A(40,41,45)           121.0737         estimate D2E/DX2                !
 ! A128  A(40,41,80)           108.3274         estimate D2E/DX2                !
 ! A129  A(45,41,80)           122.1869         estimate D2E/DX2                !
 ! A130  A(38,42,46)           119.5606         estimate D2E/DX2                !
 ! A131  A(38,42,80)           120.1355         estimate D2E/DX2                !
 ! A132  A(46,42,80)           114.6179         estimate D2E/DX2                !
 ! A133  A(2,43,13)            108.4034         estimate D2E/DX2                !
 ! A134  A(2,43,39)            122.0969         estimate D2E/DX2                !
 ! A135  A(13,43,39)           121.0616         estimate D2E/DX2                !
 ! A136  A(2,44,40)            114.7506         estimate D2E/DX2                !
 ! A137  A(2,44,47)            120.2742         estimate D2E/DX2                !
 ! A138  A(40,44,47)           119.1376         estimate D2E/DX2                !
 ! A139  A(4,45,41)            114.7667         estimate D2E/DX2                !
 ! A140  A(4,45,48)            119.982          estimate D2E/DX2                !
 ! A141  A(41,45,48)           119.0763         estimate D2E/DX2                !
 ! A142  A(4,46,14)            108.4915         estimate D2E/DX2                !
 ! A143  A(4,46,42)            122.3348         estimate D2E/DX2                !
 ! A144  A(14,46,42)           120.9766         estimate D2E/DX2                !
 ! A145  A(44,47,48)           119.8881         estimate D2E/DX2                !
 ! A146  A(44,47,49)           117.1526         estimate D2E/DX2                !
 ! A147  A(48,47,49)           117.813          estimate D2E/DX2                !
 ! A148  A(45,48,47)           119.8436         estimate D2E/DX2                !
 ! A149  A(45,48,50)           117.0799         estimate D2E/DX2                !
 ! A150  A(47,48,50)           117.5564         estimate D2E/DX2                !
 ! A151  A(10,49,47)           121.6011         estimate D2E/DX2                !
 ! A152  A(10,49,51)           106.5696         estimate D2E/DX2                !
 ! A153  A(47,49,51)           123.2366         estimate D2E/DX2                !
 ! A154  A(11,50,48)           121.8985         estimate D2E/DX2                !
 ! A155  A(11,50,52)           105.9199         estimate D2E/DX2                !
 ! A156  A(48,50,52)           122.5016         estimate D2E/DX2                !
 ! A157  A(49,51,52)           118.6679         estimate D2E/DX2                !
 ! A158  A(49,51,55)           111.9559         estimate D2E/DX2                !
 ! A159  A(52,51,55)           122.6491         estimate D2E/DX2                !
 ! A160  A(50,52,51)           119.9067         estimate D2E/DX2                !
 ! A161  A(50,52,56)           109.0947         estimate D2E/DX2                !
 ! A162  A(51,52,56)           121.0808         estimate D2E/DX2                !
 ! A163  A(10,53,19)           120.6841         estimate D2E/DX2                !
 ! A164  A(10,53,55)           108.3346         estimate D2E/DX2                !
 ! A165  A(19,53,55)           125.7762         estimate D2E/DX2                !
 ! A166  A(11,54,20)           120.0341         estimate D2E/DX2                !
 ! A167  A(11,54,56)           107.5551         estimate D2E/DX2                !
 ! A168  A(20,54,56)           122.568          estimate D2E/DX2                !
 ! A169  A(51,55,53)           101.1505         estimate D2E/DX2                !
 ! A170  A(51,55,83)           111.5034         estimate D2E/DX2                !
 ! A171  A(51,55,86)           111.6099         estimate D2E/DX2                !
 ! A172  A(53,55,83)           111.6874         estimate D2E/DX2                !
 ! A173  A(53,55,86)           110.8631         estimate D2E/DX2                !
 ! A174  A(83,55,86)           109.8054         estimate D2E/DX2                !
 ! A175  A(52,56,54)           107.7972         estimate D2E/DX2                !
 ! A176  A(52,56,84)           119.0802         estimate D2E/DX2                !
 ! A177  A(54,56,84)           122.1454         estimate D2E/DX2                !
 ! A178  A(21,57,59)           108.5982         estimate D2E/DX2                !
 ! A179  A(21,57,83)           125.7445         estimate D2E/DX2                !
 ! A180  A(59,57,83)           120.8361         estimate D2E/DX2                !
 ! A181  A(22,58,60)           107.9946         estimate D2E/DX2                !
 ! A182  A(22,58,84)           122.6493         estimate D2E/DX2                !
 ! A183  A(60,58,84)           121.0757         estimate D2E/DX2                !
 ! A184  A(57,59,60)           121.448          estimate D2E/DX2                !
 ! A185  A(57,59,61)           109.5932         estimate D2E/DX2                !
 ! A186  A(60,59,61)           120.48           estimate D2E/DX2                !
 ! A187  A(58,60,59)           118.6517         estimate D2E/DX2                !
 ! A188  A(58,60,62)           112.3278         estimate D2E/DX2                !
 ! A189  A(59,60,62)           121.5846         estimate D2E/DX2                !
 ! A190  A(23,61,59)           106.3182         estimate D2E/DX2                !
 ! A191  A(23,61,63)           123.1697         estimate D2E/DX2                !
 ! A192  A(59,61,63)           120.441          estimate D2E/DX2                !
 ! A193  A(24,62,60)           100.114          estimate D2E/DX2                !
 ! A194  A(24,62,64)           111.3762         estimate D2E/DX2                !
 ! A195  A(24,62,87)           113.081          estimate D2E/DX2                !
 ! A196  A(60,62,64)           111.9127         estimate D2E/DX2                !
 ! A197  A(60,62,87)           112.3361         estimate D2E/DX2                !
 ! A198  A(64,62,87)           107.974          estimate D2E/DX2                !
 ! A199  A(61,63,64)           119.4058         estimate D2E/DX2                !
 ! A200  A(61,63,65)           117.6184         estimate D2E/DX2                !
 ! A201  A(64,63,65)           119.4732         estimate D2E/DX2                !
 ! A202  A(62,64,63)           118.3753         estimate D2E/DX2                !
 ! A203  A(62,64,66)           120.3179         estimate D2E/DX2                !
 ! A204  A(63,64,66)           120.6539         estimate D2E/DX2                !
 ! A205  A(27,65,63)           117.4809         estimate D2E/DX2                !
 ! A206  A(27,65,67)           118.3932         estimate D2E/DX2                !
 ! A207  A(63,65,67)           120.1017         estimate D2E/DX2                !
 ! A208  A(28,66,64)           120.0748         estimate D2E/DX2                !
 ! A209  A(28,66,68)           118.0938         estimate D2E/DX2                !
 ! A210  A(64,66,68)           121.1445         estimate D2E/DX2                !
 ! A211  A(65,67,68)           119.3359         estimate D2E/DX2                !
 ! A212  A(65,67,69)           118.2002         estimate D2E/DX2                !
 ! A213  A(68,67,69)           118.3284         estimate D2E/DX2                !
 ! A214  A(66,68,67)           119.2768         estimate D2E/DX2                !
 ! A215  A(66,68,70)           119.1838         estimate D2E/DX2                !
 ! A216  A(67,68,70)           118.0309         estimate D2E/DX2                !
 ! A217  A(31,69,67)           120.9505         estimate D2E/DX2                !
 ! A218  A(31,69,71)           105.9764         estimate D2E/DX2                !
 ! A219  A(67,69,71)           122.0942         estimate D2E/DX2                !
 ! A220  A(32,70,68)           120.0757         estimate D2E/DX2                !
 ! A221  A(32,70,72)           105.8457         estimate D2E/DX2                !
 ! A222  A(68,70,72)           122.075          estimate D2E/DX2                !
 ! A223  A(69,71,72)           119.0657         estimate D2E/DX2                !
 ! A224  A(69,71,73)           108.7371         estimate D2E/DX2                !
 ! A225  A(72,71,73)           120.2253         estimate D2E/DX2                !
 ! A226  A(70,72,71)           119.6367         estimate D2E/DX2                !
 ! A227  A(70,72,74)           108.8276         estimate D2E/DX2                !
 ! A228  A(71,72,74)           119.6923         estimate D2E/DX2                !
 ! A229  A(33,73,71)           108.6176         estimate D2E/DX2                !
 ! A230  A(33,73,75)           119.3107         estimate D2E/DX2                !
 ! A231  A(71,73,75)           119.8413         estimate D2E/DX2                !
 ! A232  A(34,74,72)           108.5156         estimate D2E/DX2                !
 ! A233  A(34,74,76)           119.2957         estimate D2E/DX2                !
 ! A234  A(72,74,76)           120.1245         estimate D2E/DX2                !
 ! A235  A(73,75,76)           119.9904         estimate D2E/DX2                !
 ! A236  A(73,75,77)           119.2837         estimate D2E/DX2                !
 ! A237  A(76,75,77)           108.7583         estimate D2E/DX2                !
 ! A238  A(74,76,75)           120.0933         estimate D2E/DX2                !
 ! A239  A(74,76,78)           119.4076         estimate D2E/DX2                !
 ! A240  A(75,76,78)           108.726          estimate D2E/DX2                !
 ! A241  A(37,77,75)           122.4719         estimate D2E/DX2                !
 ! A242  A(37,77,81)           121.4851         estimate D2E/DX2                !
 ! A243  A(75,77,81)           105.9961         estimate D2E/DX2                !
 ! A244  A(38,78,76)           122.3942         estimate D2E/DX2                !
 ! A245  A(38,78,81)           121.4859         estimate D2E/DX2                !
 ! A246  A(76,78,81)           106.0161         estimate D2E/DX2                !
 ! A247  A(39,79,40)           122.3757         estimate D2E/DX2                !
 ! A248  A(39,79,82)           120.4677         estimate D2E/DX2                !
 ! A249  A(40,79,82)           106.6071         estimate D2E/DX2                !
 ! A250  A(41,80,42)           122.3072         estimate D2E/DX2                !
 ! A251  A(41,80,82)           106.7301         estimate D2E/DX2                !
 ! A252  A(42,80,82)           120.4132         estimate D2E/DX2                !
 ! A253  A(77,81,78)           109.805          estimate D2E/DX2                !
 ! A254  A(77,81,82)           120.0325         estimate D2E/DX2                !
 ! A255  A(78,81,82)           120.1132         estimate D2E/DX2                !
 ! A256  A(79,82,80)           109.6065         estimate D2E/DX2                !
 ! A257  A(79,82,81)           120.0529         estimate D2E/DX2                !
 ! A258  A(80,82,81)           119.9644         estimate D2E/DX2                !
 ! A259  A(55,83,57)           117.4153         estimate D2E/DX2                !
 ! A260  A(55,83,84)           121.0203         estimate D2E/DX2                !
 ! A261  A(57,83,84)           118.8498         estimate D2E/DX2                !
 ! A262  A(56,84,58)           114.9489         estimate D2E/DX2                !
 ! A263  A(56,84,83)           120.4169         estimate D2E/DX2                !
 ! A264  A(58,84,83)           118.8426         estimate D2E/DX2                !
 ! D1    D(17,1,5,9)            -1.573          estimate D2E/DX2                !
 ! D2    D(17,1,5,29)         -145.5259         estimate D2E/DX2                !
 ! D3    D(25,1,5,9)           141.5589         estimate D2E/DX2                !
 ! D4    D(25,1,5,29)           -2.3941         estimate D2E/DX2                !
 ! D5    D(5,1,17,15)           -7.6838         estimate D2E/DX2                !
 ! D6    D(5,1,17,19)          144.7581         estimate D2E/DX2                !
 ! D7    D(25,1,17,15)        -146.73           estimate D2E/DX2                !
 ! D8    D(25,1,17,19)           5.712          estimate D2E/DX2                !
 ! D9    D(5,1,25,23)         -149.4227         estimate D2E/DX2                !
 ! D10   D(5,1,25,27)           -4.2531         estimate D2E/DX2                !
 ! D11   D(17,1,25,23)          -5.1074         estimate D2E/DX2                !
 ! D12   D(17,1,25,27)         140.0622         estimate D2E/DX2                !
 ! D13   D(43,2,6,10)         -148.1077         estimate D2E/DX2                !
 ! D14   D(43,2,6,15)           -3.4387         estimate D2E/DX2                !
 ! D15   D(44,2,6,10)           -2.4997         estimate D2E/DX2                !
 ! D16   D(44,2,6,15)          142.1692         estimate D2E/DX2                !
 ! D17   D(6,2,43,13)            2.5708         estimate D2E/DX2                !
 ! D18   D(6,2,43,39)          150.8447         estimate D2E/DX2                !
 ! D19   D(44,2,43,13)        -142.2249         estimate D2E/DX2                !
 ! D20   D(44,2,43,39)           6.0491         estimate D2E/DX2                !
 ! D21   D(6,2,44,40)         -152.3395         estimate D2E/DX2                !
 ! D22   D(6,2,44,47)            0.5273         estimate D2E/DX2                !
 ! D23   D(43,2,44,40)         -12.1503         estimate D2E/DX2                !
 ! D24   D(43,2,44,47)         140.7165         estimate D2E/DX2                !
 ! D25   D(18,3,7,12)            3.2121         estimate D2E/DX2                !
 ! D26   D(18,3,7,30)          150.7063         estimate D2E/DX2                !
 ! D27   D(26,3,7,12)         -145.8731         estimate D2E/DX2                !
 ! D28   D(26,3,7,30)            1.6211         estimate D2E/DX2                !
 ! D29   D(7,3,18,16)            5.1455         estimate D2E/DX2                !
 ! D30   D(7,3,18,20)         -145.2784         estimate D2E/DX2                !
 ! D31   D(26,3,18,16)         150.1416         estimate D2E/DX2                !
 ! D32   D(26,3,18,20)          -0.2823         estimate D2E/DX2                !
 ! D33   D(7,3,26,24)          148.1873         estimate D2E/DX2                !
 ! D34   D(7,3,26,28)           -2.389          estimate D2E/DX2                !
 ! D35   D(18,3,26,24)          -0.9208         estimate D2E/DX2                !
 ! D36   D(18,3,26,28)        -151.4971         estimate D2E/DX2                !
 ! D37   D(45,4,8,11)            2.5957         estimate D2E/DX2                !
 ! D38   D(45,4,8,16)         -142.316          estimate D2E/DX2                !
 ! D39   D(46,4,8,11)          148.3189         estimate D2E/DX2                !
 ! D40   D(46,4,8,16)            3.4073         estimate D2E/DX2                !
 ! D41   D(8,4,45,41)          152.3168         estimate D2E/DX2                !
 ! D42   D(8,4,45,48)            0.181          estimate D2E/DX2                !
 ! D43   D(46,4,45,41)          11.85           estimate D2E/DX2                !
 ! D44   D(46,4,45,48)        -140.2858         estimate D2E/DX2                !
 ! D45   D(8,4,46,14)           -2.864          estimate D2E/DX2                !
 ! D46   D(8,4,46,42)         -151.5144         estimate D2E/DX2                !
 ! D47   D(45,4,46,14)         142.3018         estimate D2E/DX2                !
 ! D48   D(45,4,46,42)          -6.3486         estimate D2E/DX2                !
 ! D49   D(1,5,9,13)             8.2592         estimate D2E/DX2                !
 ! D50   D(1,5,9,35)          -144.7531         estimate D2E/DX2                !
 ! D51   D(29,5,9,13)          148.0467         estimate D2E/DX2                !
 ! D52   D(29,5,9,35)           -4.9656         estimate D2E/DX2                !
 ! D53   D(1,5,29,27)            8.1968         estimate D2E/DX2                !
 ! D54   D(1,5,29,31)          153.3429         estimate D2E/DX2                !
 ! D55   D(9,5,29,27)         -137.3661         estimate D2E/DX2                !
 ! D56   D(9,5,29,31)            7.7801         estimate D2E/DX2                !
 ! D57   D(2,6,10,49)           -0.596          estimate D2E/DX2                !
 ! D58   D(2,6,10,53)          142.9127         estimate D2E/DX2                !
 ! D59   D(15,6,10,49)        -141.6584         estimate D2E/DX2                !
 ! D60   D(15,6,10,53)           1.8503         estimate D2E/DX2                !
 ! D61   D(2,6,15,13)            2.9482         estimate D2E/DX2                !
 ! D62   D(2,6,15,17)         -143.2486         estimate D2E/DX2                !
 ! D63   D(10,6,15,13)         147.6162         estimate D2E/DX2                !
 ! D64   D(10,6,15,17)           1.4194         estimate D2E/DX2                !
 ! D65   D(3,7,12,14)           -7.9631         estimate D2E/DX2                !
 ! D66   D(3,7,12,36)          145.5845         estimate D2E/DX2                !
 ! D67   D(30,7,12,14)        -151.196          estimate D2E/DX2                !
 ! D68   D(30,7,12,36)           2.3517         estimate D2E/DX2                !
 ! D69   D(3,7,30,28)           -0.3057         estimate D2E/DX2                !
 ! D70   D(3,7,30,32)         -151.0851         estimate D2E/DX2                !
 ! D71   D(12,7,30,28)         147.6855         estimate D2E/DX2                !
 ! D72   D(12,7,30,32)          -3.0939         estimate D2E/DX2                !
 ! D73   D(4,8,11,50)           -0.1909         estimate D2E/DX2                !
 ! D74   D(4,8,11,54)         -141.3905         estimate D2E/DX2                !
 ! D75   D(16,8,11,50)         140.6985         estimate D2E/DX2                !
 ! D76   D(16,8,11,54)          -0.5011         estimate D2E/DX2                !
 ! D77   D(4,8,16,14)           -2.6303         estimate D2E/DX2                !
 ! D78   D(4,8,16,18)          143.1365         estimate D2E/DX2                !
 ! D79   D(11,8,16,14)        -147.1587         estimate D2E/DX2                !
 ! D80   D(11,8,16,18)          -1.3919         estimate D2E/DX2                !
 ! D81   D(5,9,13,15)           -5.5949         estimate D2E/DX2                !
 ! D82   D(5,9,13,43)         -149.0377         estimate D2E/DX2                !
 ! D83   D(35,9,13,15)         147.7769         estimate D2E/DX2                !
 ! D84   D(35,9,13,43)           4.3342         estimate D2E/DX2                !
 ! D85   D(5,9,35,33)           -5.2137         estimate D2E/DX2                !
 ! D86   D(5,9,35,37)          148.8448         estimate D2E/DX2                !
 ! D87   D(13,9,35,33)        -156.972          estimate D2E/DX2                !
 ! D88   D(13,9,35,37)          -2.9135         estimate D2E/DX2                !
 ! D89   D(6,10,49,47)           5.8519         estimate D2E/DX2                !
 ! D90   D(6,10,49,51)         154.5515         estimate D2E/DX2                !
 ! D91   D(53,10,49,47)       -141.1523         estimate D2E/DX2                !
 ! D92   D(53,10,49,51)          7.5473         estimate D2E/DX2                !
 ! D93   D(6,10,53,19)          -4.8543         estimate D2E/DX2                !
 ! D94   D(6,10,53,55)        -160.7483         estimate D2E/DX2                !
 ! D95   D(49,10,53,19)        142.0015         estimate D2E/DX2                !
 ! D96   D(49,10,53,55)        -13.8925         estimate D2E/DX2                !
 ! D97   D(8,11,50,48)          -5.1871         estimate D2E/DX2                !
 ! D98   D(8,11,50,52)        -151.8734         estimate D2E/DX2                !
 ! D99   D(54,11,50,48)        139.8768         estimate D2E/DX2                !
 ! D100  D(54,11,50,52)         -6.8094         estimate D2E/DX2                !
 ! D101  D(8,11,54,20)           2.5992         estimate D2E/DX2                !
 ! D102  D(8,11,54,56)         149.2214         estimate D2E/DX2                !
 ! D103  D(50,11,54,20)       -142.4114         estimate D2E/DX2                !
 ! D104  D(50,11,54,56)          4.2108         estimate D2E/DX2                !
 ! D105  D(7,12,14,16)           4.5343         estimate D2E/DX2                !
 ! D106  D(7,12,14,46)         148.7868         estimate D2E/DX2                !
 ! D107  D(36,12,14,16)       -149.1794         estimate D2E/DX2                !
 ! D108  D(36,12,14,46)         -4.9269         estimate D2E/DX2                !
 ! D109  D(7,12,36,34)           4.6482         estimate D2E/DX2                !
 ! D110  D(7,12,36,38)        -148.851          estimate D2E/DX2                !
 ! D111  D(14,12,36,34)        156.9946         estimate D2E/DX2                !
 ! D112  D(14,12,36,38)          3.4954         estimate D2E/DX2                !
 ! D113  D(9,13,15,6)         -148.7743         estimate D2E/DX2                !
 ! D114  D(9,13,15,17)          -3.8263         estimate D2E/DX2                !
 ! D115  D(43,13,15,6)          -1.3061         estimate D2E/DX2                !
 ! D116  D(43,13,15,17)        143.6419         estimate D2E/DX2                !
 ! D117  D(9,13,43,2)          147.0579         estimate D2E/DX2                !
 ! D118  D(9,13,43,39)          -1.6065         estimate D2E/DX2                !
 ! D119  D(15,13,43,2)          -0.8029         estimate D2E/DX2                !
 ! D120  D(15,13,43,39)       -149.4673         estimate D2E/DX2                !
 ! D121  D(12,14,16,8)         148.7473         estimate D2E/DX2                !
 ! D122  D(12,14,16,18)          3.8735         estimate D2E/DX2                !
 ! D123  D(46,14,16,8)           0.824          estimate D2E/DX2                !
 ! D124  D(46,14,16,18)       -144.0498         estimate D2E/DX2                !
 ! D125  D(12,14,46,4)        -147.3818         estimate D2E/DX2                !
 ! D126  D(12,14,46,42)          1.7737         estimate D2E/DX2                !
 ! D127  D(16,14,46,4)           1.2837         estimate D2E/DX2                !
 ! D128  D(16,14,46,42)        150.4392         estimate D2E/DX2                !
 ! D129  D(6,15,17,1)          151.0055         estimate D2E/DX2                !
 ! D130  D(6,15,17,19)          -1.8047         estimate D2E/DX2                !
 ! D131  D(13,15,17,1)          10.3647         estimate D2E/DX2                !
 ! D132  D(13,15,17,19)       -142.4454         estimate D2E/DX2                !
 ! D133  D(8,16,18,3)         -148.9791         estimate D2E/DX2                !
 ! D134  D(8,16,18,20)           1.172          estimate D2E/DX2                !
 ! D135  D(14,16,18,3)          -8.6091         estimate D2E/DX2                !
 ! D136  D(14,16,18,20)        141.542          estimate D2E/DX2                !
 ! D137  D(1,17,19,21)           9.1207         estimate D2E/DX2                !
 ! D138  D(1,17,19,53)        -152.3083         estimate D2E/DX2                !
 ! D139  D(15,17,19,21)        160.3104         estimate D2E/DX2                !
 ! D140  D(15,17,19,53)         -1.1186         estimate D2E/DX2                !
 ! D141  D(3,18,20,22)           0.9872         estimate D2E/DX2                !
 ! D142  D(3,18,20,54)         150.0923         estimate D2E/DX2                !
 ! D143  D(16,18,20,22)       -148.1997         estimate D2E/DX2                !
 ! D144  D(16,18,20,54)          0.9055         estimate D2E/DX2                !
 ! D145  D(17,19,21,23)        -22.4371         estimate D2E/DX2                !
 ! D146  D(17,19,21,57)       -134.5954         estimate D2E/DX2                !
 ! D147  D(17,19,21,85)        102.2248         estimate D2E/DX2                !
 ! D148  D(53,19,21,23)        139.3984         estimate D2E/DX2                !
 ! D149  D(53,19,21,57)         27.2401         estimate D2E/DX2                !
 ! D150  D(53,19,21,85)        -95.9397         estimate D2E/DX2                !
 ! D151  D(17,19,53,10)          4.401          estimate D2E/DX2                !
 ! D152  D(17,19,53,55)        155.8551         estimate D2E/DX2                !
 ! D153  D(21,19,53,10)       -157.6414         estimate D2E/DX2                !
 ! D154  D(21,19,53,55)         -6.1873         estimate D2E/DX2                !
 ! D155  D(18,20,22,24)         -0.5688         estimate D2E/DX2                !
 ! D156  D(18,20,22,58)        143.4604         estimate D2E/DX2                !
 ! D157  D(54,20,22,24)       -150.8768         estimate D2E/DX2                !
 ! D158  D(54,20,22,58)         -6.8476         estimate D2E/DX2                !
 ! D159  D(18,20,54,11)         -2.7763         estimate D2E/DX2                !
 ! D160  D(18,20,54,56)       -144.2843         estimate D2E/DX2                !
 ! D161  D(22,20,54,11)        147.1307         estimate D2E/DX2                !
 ! D162  D(22,20,54,56)          5.6228         estimate D2E/DX2                !
 ! D163  D(19,21,23,25)         23.5004         estimate D2E/DX2                !
 ! D164  D(19,21,23,61)       -127.2441         estimate D2E/DX2                !
 ! D165  D(57,21,23,25)        142.2618         estimate D2E/DX2                !
 ! D166  D(57,21,23,61)         -8.4828         estimate D2E/DX2                !
 ! D167  D(85,21,23,25)        -99.816          estimate D2E/DX2                !
 ! D168  D(85,21,23,61)        109.4395         estimate D2E/DX2                !
 ! D169  D(19,21,57,59)        132.8873         estimate D2E/DX2                !
 ! D170  D(19,21,57,83)        -22.4177         estimate D2E/DX2                !
 ! D171  D(23,21,57,59)         14.0577         estimate D2E/DX2                !
 ! D172  D(23,21,57,83)       -141.2473         estimate D2E/DX2                !
 ! D173  D(85,21,57,59)       -104.6681         estimate D2E/DX2                !
 ! D174  D(85,21,57,83)        100.0269         estimate D2E/DX2                !
 ! D175  D(20,22,24,26)         -0.63           estimate D2E/DX2                !
 ! D176  D(20,22,24,62)        149.9212         estimate D2E/DX2                !
 ! D177  D(58,22,24,26)       -148.8751         estimate D2E/DX2                !
 ! D178  D(58,22,24,62)          1.6761         estimate D2E/DX2                !
 ! D179  D(20,22,58,60)       -147.9247         estimate D2E/DX2                !
 ! D180  D(20,22,58,84)          0.5806         estimate D2E/DX2                !
 ! D181  D(24,22,58,60)          0.5188         estimate D2E/DX2                !
 ! D182  D(24,22,58,84)        149.0241         estimate D2E/DX2                !
 ! D183  D(21,23,25,1)         -10.7208         estimate D2E/DX2                !
 ! D184  D(21,23,25,27)       -152.4876         estimate D2E/DX2                !
 ! D185  D(61,23,25,1)         138.2464         estimate D2E/DX2                !
 ! D186  D(61,23,25,27)         -3.5204         estimate D2E/DX2                !
 ! D187  D(21,23,61,59)         -0.1156         estimate D2E/DX2                !
 ! D188  D(21,23,61,63)        145.1745         estimate D2E/DX2                !
 ! D189  D(25,23,61,59)       -151.9499         estimate D2E/DX2                !
 ! D190  D(25,23,61,63)         -6.6598         estimate D2E/DX2                !
 ! D191  D(22,24,26,3)           1.3561         estimate D2E/DX2                !
 ! D192  D(22,24,26,28)        148.9633         estimate D2E/DX2                !
 ! D193  D(62,24,26,3)        -146.2916         estimate D2E/DX2                !
 ! D194  D(62,24,26,28)          1.3155         estimate D2E/DX2                !
 ! D195  D(22,24,62,60)         -2.9519         estimate D2E/DX2                !
 ! D196  D(22,24,62,64)       -121.4356         estimate D2E/DX2                !
 ! D197  D(22,24,62,87)        116.7602         estimate D2E/DX2                !
 ! D198  D(26,24,62,60)        147.1337         estimate D2E/DX2                !
 ! D199  D(26,24,62,64)         28.65           estimate D2E/DX2                !
 ! D200  D(26,24,62,87)        -93.1541         estimate D2E/DX2                !
 ! D201  D(1,25,27,29)           9.0627         estimate D2E/DX2                !
 ! D202  D(1,25,27,65)        -135.0616         estimate D2E/DX2                !
 ! D203  D(23,25,27,29)        155.0182         estimate D2E/DX2                !
 ! D204  D(23,25,27,65)         10.8939         estimate D2E/DX2                !
 ! D205  D(3,26,28,30)           2.0456         estimate D2E/DX2                !
 ! D206  D(3,26,28,66)         120.0685         estimate D2E/DX2                !
 ! D207  D(3,26,28,88)        -117.6971         estimate D2E/DX2                !
 ! D208  D(24,26,28,30)       -147.9638         estimate D2E/DX2                !
 ! D209  D(24,26,28,66)        -29.9408         estimate D2E/DX2                !
 ! D210  D(24,26,28,88)         92.2936         estimate D2E/DX2                !
 ! D211  D(25,27,29,5)         -10.6618         estimate D2E/DX2                !
 ! D212  D(25,27,29,31)       -155.9447         estimate D2E/DX2                !
 ! D213  D(65,27,29,5)         134.0575         estimate D2E/DX2                !
 ! D214  D(65,27,29,31)        -11.2254         estimate D2E/DX2                !
 ! D215  D(25,27,65,63)         -7.8193         estimate D2E/DX2                !
 ! D216  D(25,27,65,67)        149.6674         estimate D2E/DX2                !
 ! D217  D(29,27,65,63)       -146.6014         estimate D2E/DX2                !
 ! D218  D(29,27,65,67)         10.8853         estimate D2E/DX2                !
 ! D219  D(26,28,30,7)          -1.0354         estimate D2E/DX2                !
 ! D220  D(26,28,30,32)        148.9948         estimate D2E/DX2                !
 ! D221  D(66,28,30,7)        -119.065          estimate D2E/DX2                !
 ! D222  D(66,28,30,32)         30.9652         estimate D2E/DX2                !
 ! D223  D(88,28,30,7)         119.2072         estimate D2E/DX2                !
 ! D224  D(88,28,30,32)        -90.7626         estimate D2E/DX2                !
 ! D225  D(26,28,66,64)         28.0541         estimate D2E/DX2                !
 ! D226  D(26,28,66,68)       -142.5582         estimate D2E/DX2                !
 ! D227  D(30,28,66,64)        139.0238         estimate D2E/DX2                !
 ! D228  D(30,28,66,68)        -31.5885         estimate D2E/DX2                !
 ! D229  D(88,28,66,64)        -96.9009         estimate D2E/DX2                !
 ! D230  D(88,28,66,68)         92.4869         estimate D2E/DX2                !
 ! D231  D(5,29,31,33)          -0.2519         estimate D2E/DX2                !
 ! D232  D(5,29,31,69)        -142.072          estimate D2E/DX2                !
 ! D233  D(27,29,31,33)        141.398          estimate D2E/DX2                !
 ! D234  D(27,29,31,69)         -0.4221         estimate D2E/DX2                !
 ! D235  D(7,30,32,34)          -3.282          estimate D2E/DX2                !
 ! D236  D(7,30,32,70)         139.1808         estimate D2E/DX2                !
 ! D237  D(28,30,32,34)       -151.3984         estimate D2E/DX2                !
 ! D238  D(28,30,32,70)         -8.9356         estimate D2E/DX2                !
 ! D239  D(29,31,33,35)        -10.444          estimate D2E/DX2                !
 ! D240  D(29,31,33,73)       -155.6468         estimate D2E/DX2                !
 ! D241  D(69,31,33,35)        134.7027         estimate D2E/DX2                !
 ! D242  D(69,31,33,73)        -10.5002         estimate D2E/DX2                !
 ! D243  D(29,31,69,67)         12.291          estimate D2E/DX2                !
 ! D244  D(29,31,69,71)        156.9879         estimate D2E/DX2                !
 ! D245  D(33,31,69,67)       -133.3301         estimate D2E/DX2                !
 ! D246  D(33,31,69,71)         11.3668         estimate D2E/DX2                !
 ! D247  D(30,32,34,36)         10.757          estimate D2E/DX2                !
 ! D248  D(30,32,34,74)        157.376          estimate D2E/DX2                !
 ! D249  D(70,32,34,36)       -135.3686         estimate D2E/DX2                !
 ! D250  D(70,32,34,74)         11.2504         estimate D2E/DX2                !
 ! D251  D(30,32,70,68)        -14.8067         estimate D2E/DX2                !
 ! D252  D(30,32,70,72)       -158.153          estimate D2E/DX2                !
 ! D253  D(34,32,70,68)        131.604          estimate D2E/DX2                !
 ! D254  D(34,32,70,72)        -11.7424         estimate D2E/DX2                !
 ! D255  D(31,33,35,9)          12.8364         estimate D2E/DX2                !
 ! D256  D(31,33,35,37)       -141.7384         estimate D2E/DX2                !
 ! D257  D(73,33,35,9)         152.0556         estimate D2E/DX2                !
 ! D258  D(73,33,35,37)         -2.5192         estimate D2E/DX2                !
 ! D259  D(31,33,73,71)          5.5132         estimate D2E/DX2                !
 ! D260  D(31,33,73,75)        147.8202         estimate D2E/DX2                !
 ! D261  D(35,33,73,71)       -138.799          estimate D2E/DX2                !
 ! D262  D(35,33,73,75)          3.508          estimate D2E/DX2                !
 ! D263  D(32,34,36,12)        -11.0423         estimate D2E/DX2                !
 ! D264  D(32,34,36,38)        142.9906         estimate D2E/DX2                !
 ! D265  D(74,34,36,12)       -152.2384         estimate D2E/DX2                !
 ! D266  D(74,34,36,38)          1.7945         estimate D2E/DX2                !
 ! D267  D(32,34,74,72)         -6.3808         estimate D2E/DX2                !
 ! D268  D(32,34,74,76)       -149.0171         estimate D2E/DX2                !
 ! D269  D(36,34,74,72)        139.7619         estimate D2E/DX2                !
 ! D270  D(36,34,74,76)         -2.8743         estimate D2E/DX2                !
 ! D271  D(9,35,37,39)          -1.1859         estimate D2E/DX2                !
 ! D272  D(9,35,37,77)        -154.6726         estimate D2E/DX2                !
 ! D273  D(33,35,37,39)        152.7051         estimate D2E/DX2                !
 ! D274  D(33,35,37,77)         -0.7817         estimate D2E/DX2                !
 ! D275  D(12,36,38,42)          1.0493         estimate D2E/DX2                !
 ! D276  D(12,36,38,78)        154.2448         estimate D2E/DX2                !
 ! D277  D(34,36,38,42)       -152.0219         estimate D2E/DX2                !
 ! D278  D(34,36,38,78)          1.1737         estimate D2E/DX2                !
 ! D279  D(35,37,39,43)          3.9022         estimate D2E/DX2                !
 ! D280  D(35,37,39,79)       -147.78           estimate D2E/DX2                !
 ! D281  D(77,37,39,43)        157.6821         estimate D2E/DX2                !
 ! D282  D(77,37,39,79)          5.9999         estimate D2E/DX2                !
 ! D283  D(35,37,77,75)          3.1705         estimate D2E/DX2                !
 ! D284  D(35,37,77,81)        143.7746         estimate D2E/DX2                !
 ! D285  D(39,37,77,75)       -150.9306         estimate D2E/DX2                !
 ! D286  D(39,37,77,81)        -10.3265         estimate D2E/DX2                !
 ! D287  D(36,38,42,46)         -4.1912         estimate D2E/DX2                !
 ! D288  D(36,38,42,80)        147.8144         estimate D2E/DX2                !
 ! D289  D(78,38,42,46)       -157.6471         estimate D2E/DX2                !
 ! D290  D(78,38,42,80)         -5.6415         estimate D2E/DX2                !
 ! D291  D(36,38,78,76)         -3.1524         estimate D2E/DX2                !
 ! D292  D(36,38,78,81)       -143.6649         estimate D2E/DX2                !
 ! D293  D(42,38,78,76)        150.5931         estimate D2E/DX2                !
 ! D294  D(42,38,78,81)         10.0805         estimate D2E/DX2                !
 ! D295  D(37,39,43,2)        -146.9568         estimate D2E/DX2                !
 ! D296  D(37,39,43,13)         -2.5823         estimate D2E/DX2                !
 ! D297  D(79,39,43,2)           6.2098         estimate D2E/DX2                !
 ! D298  D(79,39,43,13)        150.5843         estimate D2E/DX2                !
 ! D299  D(37,39,79,40)        140.9155         estimate D2E/DX2                !
 ! D300  D(37,39,79,82)          0.9536         estimate D2E/DX2                !
 ! D301  D(43,39,79,40)        -12.0252         estimate D2E/DX2                !
 ! D302  D(43,39,79,82)       -151.9871         estimate D2E/DX2                !
 ! D303  D(44,40,41,45)          0.4622         estimate D2E/DX2                !
 ! D304  D(44,40,41,80)       -148.2728         estimate D2E/DX2                !
 ! D305  D(79,40,41,45)        148.937          estimate D2E/DX2                !
 ! D306  D(79,40,41,80)          0.202          estimate D2E/DX2                !
 ! D307  D(41,40,44,2)         150.5372         estimate D2E/DX2                !
 ! D308  D(41,40,44,47)         -2.6595         estimate D2E/DX2                !
 ! D309  D(79,40,44,2)           6.3322         estimate D2E/DX2                !
 ! D310  D(79,40,44,47)       -146.8645         estimate D2E/DX2                !
 ! D311  D(41,40,79,39)       -142.1066         estimate D2E/DX2                !
 ! D312  D(41,40,79,82)          2.5411         estimate D2E/DX2                !
 ! D313  D(44,40,79,39)          5.9273         estimate D2E/DX2                !
 ! D314  D(44,40,79,82)        150.575          estimate D2E/DX2                !
 ! D315  D(40,41,45,4)        -150.0216         estimate D2E/DX2                !
 ! D316  D(40,41,45,48)          2.3839         estimate D2E/DX2                !
 ! D317  D(80,41,45,4)          -5.6226         estimate D2E/DX2                !
 ! D318  D(80,41,45,48)        146.7829         estimate D2E/DX2                !
 ! D319  D(40,41,80,42)        141.7792         estimate D2E/DX2                !
 ! D320  D(40,41,80,82)         -2.8579         estimate D2E/DX2                !
 ! D321  D(45,41,80,42)         -6.536          estimate D2E/DX2                !
 ! D322  D(45,41,80,82)       -151.1732         estimate D2E/DX2                !
 ! D323  D(38,42,46,4)         147.7133         estimate D2E/DX2                !
 ! D324  D(38,42,46,14)          2.8461         estimate D2E/DX2                !
 ! D325  D(80,42,46,4)          -5.7655         estimate D2E/DX2                !
 ! D326  D(80,42,46,14)       -150.6327         estimate D2E/DX2                !
 ! D327  D(38,42,80,41)       -141.2965         estimate D2E/DX2                !
 ! D328  D(38,42,80,82)         -1.2893         estimate D2E/DX2                !
 ! D329  D(46,42,80,41)         12.0171         estimate D2E/DX2                !
 ! D330  D(46,42,80,82)        152.0243         estimate D2E/DX2                !
 ! D331  D(2,44,47,48)        -149.694          estimate D2E/DX2                !
 ! D332  D(2,44,47,49)           4.4113         estimate D2E/DX2                !
 ! D333  D(40,44,47,48)          2.0005         estimate D2E/DX2                !
 ! D334  D(40,44,47,49)        156.1057         estimate D2E/DX2                !
 ! D335  D(4,45,48,47)         147.9631         estimate D2E/DX2                !
 ! D336  D(4,45,48,50)          -5.2071         estimate D2E/DX2                !
[...]
 Alpha virt. eigenvalues --    1.22303   1.22816   1.23053   1.23440   1.23597
 Alpha virt. eigenvalues --    1.23894   1.24153   1.24441   1.24792   1.24817
 Alpha virt. eigenvalues --    1.25132   1.25661   1.26063   1.26230   1.26529
 Alpha virt. eigenvalues --    1.26863   1.26946   1.27312   1.27814   1.28079
 Alpha virt. eigenvalues --    1.28332   1.28631   1.28736   1.28811   1.29135
 Alpha virt. eigenvalues --    1.29499   1.29597   1.30195   1.30633   1.31196
 Alpha virt. eigenvalues --    1.31510   1.31561   1.31851   1.32028   1.32325
 Alpha virt. eigenvalues --    1.32987   1.33131   1.33610   1.33767   1.34211
 Alpha virt. eigenvalues --    1.34299   1.35151   1.35558   1.35813   1.36224
 Alpha virt. eigenvalues --    1.36654   1.36894   1.37624   1.38392   1.38560
 Alpha virt. eigenvalues --    1.39172   1.39252   1.39779   1.40542   1.41090
 Alpha virt. eigenvalues --    1.41710   1.42237   1.42601   1.43539   1.43913
 Alpha virt. eigenvalues --    1.44169   1.44909   1.45534   1.46124   1.46555
 Alpha virt. eigenvalues --    1.46989   1.47348   1.48459   1.48781   1.49124
 Alpha virt. eigenvalues --    1.49472   1.49870   1.50554   1.51757   1.52373
 Alpha virt. eigenvalues --    1.52779   1.53003   1.53736   1.54026   1.54349
 Alpha virt. eigenvalues --    1.54532   1.54945   1.55434   1.56289   1.56443
 Alpha virt. eigenvalues --    1.56876   1.56906   1.57352   1.58280   1.58666
 Alpha virt. eigenvalues --    1.58914   1.59898   1.60245   1.60804   1.61056
 Alpha virt. eigenvalues --    1.61920   1.62418   1.62833   1.63208   1.63459
 Alpha virt. eigenvalues --    1.63838   1.64078   1.64244   1.65009   1.65075
 Alpha virt. eigenvalues --    1.65310   1.65810   1.65878   1.66085   1.66340
 Alpha virt. eigenvalues --    1.66788   1.67120   1.67473   1.67767   1.67828
 Alpha virt. eigenvalues --    1.68198   1.68460   1.68795   1.68912   1.69387
 Alpha virt. eigenvalues --    1.69429   1.69727   1.69991   1.70037   1.70369
 Alpha virt. eigenvalues --    1.70482   1.70850   1.71153   1.71431   1.71843
 Alpha virt. eigenvalues --    1.71997   1.72080   1.72318   1.72632   1.72710
 Alpha virt. eigenvalues --    1.72973   1.73316   1.73346   1.73573   1.73757
 Alpha virt. eigenvalues --    1.74187   1.74247   1.74379   1.74756   1.75067
 Alpha virt. eigenvalues --    1.75467   1.75518   1.75786   1.75940   1.76341
 Alpha virt. eigenvalues --    1.76460   1.76759   1.77000   1.77287   1.77401
 Alpha virt. eigenvalues --    1.77752   1.78049   1.78106   1.78514   1.78603
 Alpha virt. eigenvalues --    1.78982   1.79092   1.79711   1.79876   1.80203
 Alpha virt. eigenvalues --    1.80538   1.81183   1.81599   1.81928   1.82287
 Alpha virt. eigenvalues --    1.82777   1.83359   1.83596   1.83886   1.84242
 Alpha virt. eigenvalues --    1.84590   1.85292   1.85651   1.86097   1.86567
 Alpha virt. eigenvalues --    1.87242   1.87788   1.88166   1.88815   1.89119
 Alpha virt. eigenvalues --    1.89485   1.89876   1.90146   1.90633   1.91292
 Alpha virt. eigenvalues --    1.91933   1.92384   1.92799   1.93413   1.93750
 Alpha virt. eigenvalues --    1.93832   1.94018   1.94686   1.94777   1.95065
 Alpha virt. eigenvalues --    1.95269   1.95678   1.96228   1.96551   1.96712
 Alpha virt. eigenvalues --    1.96794   1.97115   1.97251   1.97707   1.97842
 Alpha virt. eigenvalues --    1.98127   1.98328   1.98405   1.98840   1.98915
 Alpha virt. eigenvalues --    1.99085   1.99370   1.99823   1.99882   2.00074
 Alpha virt. eigenvalues --    2.00270   2.00881   2.00915   2.00954   2.01252
 Alpha virt. eigenvalues --    2.01644   2.01960   2.02122   2.02356   2.02699
 Alpha virt. eigenvalues --    2.02781   2.03220   2.03300   2.03583   2.03681
 Alpha virt. eigenvalues --    2.04025   2.04353   2.04795   2.04875   2.05294
 Alpha virt. eigenvalues --    2.05742   2.05964   2.06224   2.06431   2.06903
 Alpha virt. eigenvalues --    2.07321   2.07779   2.08062   2.08668   2.09273
 Alpha virt. eigenvalues --    2.09720   2.10295   2.10713   2.10786   2.11024
 Alpha virt. eigenvalues --    2.11829   2.12390   2.12740   2.12876   2.13296
 Alpha virt. eigenvalues --    2.13667   2.14426   2.14983   2.15077   2.15296
 Alpha virt. eigenvalues --    2.15724   2.16122   2.17541   2.17768   2.18545
 Alpha virt. eigenvalues --    2.18833   2.19298   2.19698   2.19998   2.20161
 Alpha virt. eigenvalues --    2.20620   2.20778   2.21805   2.22048   2.22202
 Alpha virt. eigenvalues --    2.22816   2.23138   2.23299   2.23840   2.24232
 Alpha virt. eigenvalues --    2.24514   2.24937   2.25214   2.25436   2.26192
 Alpha virt. eigenvalues --    2.26790   2.27232   2.27599   2.27714   2.28046
 Alpha virt. eigenvalues --    2.28575   2.29222   2.29373   2.29453   2.29770
 Alpha virt. eigenvalues --    2.30262   2.30546   2.30768   2.31320   2.31441
 Alpha virt. eigenvalues --    2.31853   2.32113   2.32744   2.33428   2.34193
 Alpha virt. eigenvalues --    2.34616   2.35109   2.35960   2.36336   2.37226
 Alpha virt. eigenvalues --    2.37992   2.38509   2.39024   2.39468   2.40034
 Alpha virt. eigenvalues --    2.40626   2.40890   2.41586   2.42334   2.43169
 Alpha virt. eigenvalues --    2.43219   2.43848   2.44093   2.44439   2.44648
 Alpha virt. eigenvalues --    2.45254   2.46282   2.46529   2.47064   2.47525
 Alpha virt. eigenvalues --    2.48058   2.48491   2.49528   2.49726   2.50222
 Alpha virt. eigenvalues --    2.50803   2.51668   2.51796   2.52424   2.52738
 Alpha virt. eigenvalues --    2.53152   2.53532   2.53713   2.54291   2.54628
 Alpha virt. eigenvalues --    2.54764   2.55173   2.55712   2.56096   2.56462
 Alpha virt. eigenvalues --    2.56723   2.56838   2.57365   2.57400   2.57845
 Alpha virt. eigenvalues --    2.58306   2.58839   2.58973   2.59064   2.59496
 Alpha virt. eigenvalues --    2.59683   2.59745   2.60253   2.60591   2.61093
 Alpha virt. eigenvalues --    2.61347   2.61676   2.61857   2.62008   2.62527
 Alpha virt. eigenvalues --    2.62698   2.63514   2.63793   2.64384   2.64623
 Alpha virt. eigenvalues --    2.64838   2.65028   2.65355   2.65591   2.65876
 Alpha virt. eigenvalues --    2.66072   2.66769   2.66836   2.67371   2.67671
 Alpha virt. eigenvalues --    2.67819   2.67953   2.68203   2.68841   2.69299
 Alpha virt. eigenvalues --    2.69418   2.69768   2.69979   2.70508   2.71380
 Alpha virt. eigenvalues --    2.72054   2.72268   2.72863   2.73176   2.73437
 Alpha virt. eigenvalues --    2.73900   2.74489   2.75122   2.75815   2.76391
 Alpha virt. eigenvalues --    2.77081   2.77417   2.77451   2.77900   2.78861
 Alpha virt. eigenvalues --    2.79080   2.79349   2.79840   2.79990   2.80470
 Alpha virt. eigenvalues --    2.80973   2.81672   2.82104   2.82369   2.82830
 Alpha virt. eigenvalues --    2.83194   2.83492   2.83742   2.84161   2.84704
 Alpha virt. eigenvalues --    2.85090   2.85487   2.86048   2.86618   2.86771
 Alpha virt. eigenvalues --    2.87077   2.87882   2.88963   2.89280   2.89544
 Alpha virt. eigenvalues --    2.89783   2.90087   2.90439   2.91393   2.91776
 Alpha virt. eigenvalues --    2.92116   2.92484   2.92805   2.93411   2.93532
 Alpha virt. eigenvalues --    2.93590   2.94398   2.95122   2.95476   2.95631
 Alpha virt. eigenvalues --    2.96253   2.96714   2.97553   2.97749   2.98430
 Alpha virt. eigenvalues --    3.00532   3.00604   3.01175   3.02822   3.04110
 Alpha virt. eigenvalues --    3.05602   3.05909   3.07591   3.08045   3.08831
 Alpha virt. eigenvalues --    3.10056   3.12829   3.14651   3.15298   3.16965
 Alpha virt. eigenvalues --    3.18603   3.19066   3.19791   3.22828   3.23879
 Alpha virt. eigenvalues --    3.25295   3.27706   3.28877   3.29146   3.33101
 Alpha virt. eigenvalues --    3.33399   3.33930   3.35563   3.35671   3.36093
 Alpha virt. eigenvalues --    3.38340   3.41384   3.42762   3.45100   3.45659
 Alpha virt. eigenvalues --    3.48641   3.49844   3.51955   3.52529   3.55037
 Alpha virt. eigenvalues --    3.58575   3.60506   4.01181   4.01517   4.01853
 Alpha virt. eigenvalues --    4.01959   4.02767   4.04097   4.04734   4.04912
 Alpha virt. eigenvalues --    4.04970   4.06241   4.06493   4.06650   4.07454
 Alpha virt. eigenvalues --    4.07530   4.08391   4.08828   4.09426   4.09705
 Alpha virt. eigenvalues --    4.11286   4.11720   4.12882   4.13683   4.14426
 Alpha virt. eigenvalues --    4.14933   4.15836   4.16587   4.17735   4.19448
 Alpha virt. eigenvalues --    4.20379   4.20955   4.21311   4.21497   4.21925
 Alpha virt. eigenvalues --    4.22999   4.23820   4.24269   4.26235   4.27121
 Alpha virt. eigenvalues --    4.28045   4.28353   4.28955   4.29532   4.30369
 Alpha virt. eigenvalues --    4.31061   4.32010   4.34448   4.35060   4.37068
 Alpha virt. eigenvalues --    4.38620   4.40415   4.40941   4.41458   4.43257
 Alpha virt. eigenvalues --    4.44815   4.46144   4.48250   4.49220   4.49936
 Alpha virt. eigenvalues --    4.51349   4.52322   4.54833   4.56192   4.57661
 Alpha virt. eigenvalues --    4.58899   4.60681   4.61679   4.63416   4.66634
 Alpha virt. eigenvalues --    4.67213   4.67553   4.69367   4.74163   4.76872
 Alpha virt. eigenvalues --    4.80095   4.83511   4.84503   4.84818   4.89971
 Alpha virt. eigenvalues --    4.91428   4.93889   4.98388   5.00418   5.06759
 Alpha virt. eigenvalues --    5.12715   5.13484   5.17793   5.19786   5.26764
          Condensed to atoms (all electrons):
 Mulliken charges:
               1
     1  C   -0.039553
     2  C   -0.022398
     3  C    0.001222
     4  C   -0.020911
     5  C   -0.012546
     6  C   -0.025735
     7  C    0.008774
     8  C   -0.015244
     9  C    0.052899
    10  C    0.028674
    11  C   -0.000808
    12  C    0.044367
    13  C   -0.029726
    14  C   -0.026677
    15  C   -0.026632
    16  C   -0.021051
    17  C    0.083813
    18  C    0.049267
    19  C    0.127331
    20  C    0.046090
    21  C   -0.362831
    22  C    0.002758
    23  C    0.075807
    24  C    0.087442
    25  C    0.003586
    26  C    0.089207
    27  C   -0.016426
    28  C   -0.353776
    29  C   -0.016513
    30  C    0.071224
    31  C   -0.010763
    32  C    0.001735
    33  C   -0.021027
    34  C   -0.018922
    35  C    0.044727
    36  C    0.043318
    37  C    0.044754
    38  C    0.044401
    39  C    0.054056
    40  C   -0.032102
    41  C   -0.030093
    42  C    0.056621
    43  C   -0.031699
    44  C    0.058187
    45  C    0.051956
    46  C   -0.031573
    47  C    0.036529
    48  C    0.046115
    49  C    0.011792
    50  C   -0.021440
    51  C    0.073975
    52  C    0.001575
    53  C    0.075494
    54  C   -0.013607
    55  C   -0.362160
    56  C   -0.037916
    57  C    0.076813
    58  C    0.006442
    59  C    0.038376
    60  C    0.062459
    61  C   -0.009006
    62  C   -0.352481
    63  C    0.066183
    64  C    0.098770
    65  C    0.035710
    66  C    0.098098
    67  C    0.032999
    68  C    0.075971
    69  C   -0.017201
    70  C   -0.038111
    71  C   -0.004776
    72  C   -0.000577
    73  C   -0.003977
    74  C   -0.004304
    75  C   -0.005100
    76  C   -0.004788
    77  C   -0.022307
    78  C   -0.024493
    79  C   -0.021303
    80  C   -0.021900
    81  C   -0.001982
    82  C   -0.020874
    83  C    0.127047
    84  C    0.076322
    85  Cl  -0.014381
    86  Cl  -0.017102
    87  Cl  -0.013342
    88  Cl  -0.012751
 Sum of Mulliken charges =  -0.00000
 Mulliken charges with hydrogens summed into heavy atoms:
               1
     1  C   -0.039553
     2  C   -0.022398
     3  C    0.001222
     4  C   -0.020911
     5  C   -0.012546
     6  C   -0.025735
     7  C    0.008774
     8  C   -0.015244
     9  C    0.052899
    10  C    0.028674
    11  C   -0.000808
    12  C    0.044367
    13  C   -0.029726
    14  C   -0.026677
    15  C   -0.026632
    16  C   -0.021051
    17  C    0.083813
    18  C    0.049267
    19  C    0.127331
    20  C    0.046090
    21  C   -0.362831
    22  C    0.002758
    23  C    0.075807
    24  C    0.087442
    25  C    0.003586
    26  C    0.089207
    27  C   -0.016426
    28  C   -0.353776
    29  C   -0.016513
    30  C    0.071224
    31  C   -0.010763
    32  C    0.001735
    33  C   -0.021027
    34  C   -0.018922
    35  C    0.044727
    36  C    0.043318
    37  C    0.044754
    38  C    0.044401
    39  C    0.054056
    40  C   -0.032102
    41  C   -0.030093
    42  C    0.056621
    43  C   -0.031699
    44  C    0.058187
    45  C    0.051956
    46  C   -0.031573
    47  C    0.036529
    48  C    0.046115
    49  C    0.011792
    50  C   -0.021440
    51  C    0.073975
    52  C    0.001575
    53  C    0.075494
    54  C   -0.013607
    55  C   -0.362160
    56  C   -0.037916
    57  C    0.076813
    58  C    0.006442
    59  C    0.038376
    60  C    0.062459
    61  C   -0.009006
    62  C   -0.352481
    63  C    0.066183
    64  C    0.098770
    65  C    0.035710
    66  C    0.098098
    67  C    0.032999
    68  C    0.075971
    69  C   -0.017201
    70  C   -0.038111
    71  C   -0.004776
    72  C   -0.000577
    73  C   -0.003977
    74  C   -0.004304
    75  C   -0.005100
    76  C   -0.004788
    77  C   -0.022307
    78  C   -0.024493
    79  C   -0.021303
    80  C   -0.021900
    81  C   -0.001982
    82  C   -0.020874
    83  C    0.127047
    84  C    0.076322
    85  Cl  -0.014381
    86  Cl  -0.017102
    87  Cl  -0.013342
    88  Cl  -0.012751
 Electronic spatial extent (au):  <R**2>=          42254.4288
 Charge=             -0.0000 electrons
 Dipole moment (field-independent basis, Debye):
    X=              3.1069    Y=             -3.3828    Z=              1.0841  Tot=              4.7193
 Quadrupole moment (field-independent basis, Debye-Ang):
   XX=           -524.6746   YY=           -523.2129   ZZ=           -500.0318
   XY=             -2.8252   XZ=             -3.4182   YZ=              5.3398
 Traceless Quadrupole moment (field-independent basis, Debye-Ang):
   XX=             -8.7015   YY=             -7.2398   ZZ=             15.9413
   XY=             -2.8252   XZ=             -3.4182   YZ=              5.3398
 Octapole moment (field-independent basis, Debye-Ang**2):
  XXX=             80.9843  YYY=            -36.8087  ZZZ=             -8.7956  XYY=            -44.1405
  XXY=             -2.2956  XXZ=              4.3608  XZZ=             -3.8537  YZZ=             28.2755
  YYZ=             11.1323  XYZ=             -0.2851
 Hexadecapole moment (field-independent basis, Debye-Ang**3):
 XXXX=         -24321.7686 YYYY=         -21505.4875 ZZZZ=         -16864.9914 XXXY=             21.1054
 XXXZ=             -3.1650 YYYX=            -50.1073 YYYZ=              2.0952 ZZZX=            -15.2150
 ZZZY=            -37.2114 XXYY=          -7500.3587 XXZZ=          -6819.1566 YYZZ=          -6277.1239
 XXYZ=             20.6215 YYXZ=             -8.9518 ZZXY=             30.6081
 N-N= 1.713763388683D+04 E-N=-4.605364496037D+04  KE= 5.006205348141D+03
 No NMR shielding tensors so no spin-rotation constants.
 Leave Link  601 at Thu Jun 30 07:19:00 2022, MaxMem=  1342177280 cpu:              22.9 elap:               1.2
 (Enter /home/mkliu/g16/l9999.exe)
 1\1\GINC-NODE01\FOpt\RB3LYP\6-31G(d,p)\C84Cl4\MKLIU\30-Jun-2022\0\\#P 
 opt b3lyp/6-31G(d, p) empiricaldispersion=GD3\\force\\0,1\C,8.27900943
 22,18.8340946938,10.5233549195\C,12.2972944724,20.1389955812,8.9248512
 996\C,8.2742950659,26.883644541,10.5405157867\C,12.3129895056,25.60080
 27376,8.9370349098\C,7.96770122,18.8719386839,9.1415230627\C,11.859892
 9367,19.5624070247,10.1720163655\C,7.9610873677,26.835762283,9.1463266
 387\C,11.8832992394,26.176885824,10.1875745578\C,8.9684004427,19.04342
 37618,8.1276587903\C,12.1031400332,20.2210903529,11.3525356582\C,12.14
 53760347,25.5274439254,11.3613986319\C,8.9672020557,26.6822290182,8.14
 57303177\C,10.2974971083,18.9841514555,8.5822319087\C,10.3024962164,26
 .7526833869,8.6103497407\C,10.6128440886,18.8846759262,9.9770483938\C,
 10.6170911069,26.8626815405,9.9878578559\C,9.614499618,18.9247712972,1
 0.9872395714\C,9.6158840641,26.834709912,11.0002450697\C,9.9051274535,
 19.6215343639,12.240516556\C,9.8889630721,26.1443981531,12.2513137404\
 C,8.7768587243,20.0785446095,13.1526317455\C,8.8027269004,25.542331553
 2,12.9267519776\C,7.4607099719,20.225625039,12.4052238276\C,7.45705537
 32,25.609229771,12.4236009088\C,7.2130684844,19.5516461012,11.23532069
 85\C,7.1988095324,26.2702567627,11.2722850005\C,6.3075668505,20.097832
 2478,10.2895186434\C,6.0901870723,25.8340432913,10.3408831702\C,6.6964
 053854,19.5565850178,9.0113036695\C,6.679377501,26.2271820539,9.005319
 5804\C,6.3881912033,20.2221632177,7.8679303814\C,6.3867419881,25.53958
 28952,7.8783664997\C,7.3283817177,20.2711203801,6.755588473\C,7.332941
 8151,25.4712719871,6.7845473951\C,8.6609614754,19.8149013135,6.9148364
 406\C,8.6663203171,25.9284186169,6.9343182581\C,9.7262814521,20.563919
 0393,6.2418388674\C,9.7308820195,25.1835940194,6.2546186593\C,11.08043
 17,20.5517910442,6.8043583056\C,12.7802417497,22.1426039645,7.70183272
 18\C,12.7858223737,23.598098256,7.7053749005\C,11.0828259775,25.190071
 3819,6.8216298562\C,11.350465525,19.7476758587,7.9308529925\C,12.93515
 22229,21.4121692588,8.8974746683\C,12.9540336434,24.3267845956,8.89947
 69537\C,11.3559308591,25.9874627477,7.9540175638\C,13.167246227,22.141
 7709354,10.1477023198\C,13.1868759056,23.5972266456,10.1488741699\C,12
 .8096217832,21.4858128938,11.3570350507\C,12.8509371107,24.2582027607,
 11.3564431454\C,12.4125905758,22.1837684907,12.5230572347\C,12.4050388
 284,23.5530801783,12.5135472881\C,11.1377646354,20.20483067,12.4159902
 832\C,11.1667002532,25.5225812617,12.4417874727\C,11.4408119549,21.368
 5702158,13.3611322238\C,11.3198657033,24.3117505422,13.1476472831\C,8.
 9860250986,21.5055853333,13.6549042668\C,8.9597372075,24.2985989105,13
 .6230177198\C,7.7613762878,22.2279387229,13.5015349222\C,7.7346932345,
 23.5874795614,13.5430294068\C,6.8774242975,21.491282932,12.6097733625\
 C,6.6689829921,24.377999565,12.817757073\C,6.1253757674,22.1631226891,
 11.6062443846\C,6.1219931039,23.6257116043,11.5860092252\C,5.811115625
 7,21.4315925773,10.4028507479\C,5.8312867939,24.3143205629,10.42269767
 99\C,5.4824656551,22.1503977765,9.1832699959\C,5.4937242397,23.6020475
 212,9.1878138055\C,5.6613644992,21.4746673338,7.9365873267\C,5.6535283
 434,24.2734390167,7.9468884142\C,5.963980513,22.1794367742,6.741838196
 7\C,5.9618478971,23.5692341228,6.7493913467\C,7.0044227329,21.44991400
 68,6.0184805253\C,7.0069523558,24.2971992517,6.0359056451\C,8.00958106
 45,22.1474868798,5.3669015637\C,8.0095471587,23.6072667104,5.375886971
 2\C,9.3600421697,21.6896148955,5.4574353644\C,9.3636825089,24.06552862
 53,5.4640513412\C,11.9192185667,21.695525357,6.6540015754\C,11.9215242
 675,24.0491953739,6.6636624928\C,10.2001941322,22.8781667069,5.4032204
 238\C,11.4392275978,22.8735855363,5.9822691107\C,10.195213615,22.16083
 25814,13.7123038723\C,10.2057325745,23.6124819098,13.6890534705\Cl,8.6
 024549,18.8999569261,14.5799370291\Cl,12.2644188063,20.7569925244,14.9
 135533056\Cl,5.2497183639,24.7682316851,13.9496001984\Cl,4.5023360076,
 26.7380262307,10.6594424583\\Version=ES64L-G16RevA.03\State=1-A\HF=-50
 41.8146352\RMSD=4.824e-09\RMSF=8.453e-05\Dipole=0.7204582,0.2411695,-1
 .6941514\Quadrupole=-0.3747046,2.8652753,-2.4905707,8.9994745,3.587985
 5,5.5800664\PG=C01 [X(C84Cl4)]\\@


 GOD GAVE US TWO ENDS... ONE TO SIT ON...    
 AND THE OTHER TO THINK WITH...              
 YOUR SUCCESS DEPENDS UPON WHICH END YOU     
 USE THE MOST...                             
                                             
 IT'S A CASE OF HEADS YOU WIN TAILS YOU LOSE.
          SOURCE UNKNOWN(IT'S JUST AS WELL.) 
 Job cpu time:       1 days  0 hours 38 minutes 27.2 seconds.
 Elapsed time:       0 days  1 hours  1 minutes 41.6 seconds.
 File lengths (MBytes):  RWF=   1098 Int=      0 D2E=      0 Chk=    138 Scr=      1
 Normal termination of Gaussian 16 at Thu Jun 30 07:19:01 2022.
