 Entering Gaussian System, Link 0=g16
 Input=4_addons_C84_14_Cl22_rank_6.gjf
 Output=4_addons_C84_14_Cl22_rank_6.log
 Initial command:
 /home/mkliu/g16/l1.exe "/data/scratch/Gau-165518.inp" -scrdir="/data/scratch/"
 Entering Link 1 = /home/mkliu/g16/l1.exe PID=    165519.
  
 Copyright (c) 1988,1990,1992,1993,1995,1998,2003,2009,2016,
            Gaussian, Inc.  All Rights Reserved.
  
 This is part of the Gaussian(R) 16 program.  It is based on
 the Gaussian(R) 09 system (copyright 2009, Gaussian, Inc.),
 the Gaussian(R) 03 system (copyright 2003, Gaussian, Inc.),
 the Gaussian(R) 98 system (copyright 1998, Gaussian, Inc.),
 the Gaussian(R) 94 system (copyright 1995, Gaussian, Inc.),
 the Gaussian 92(TM) system (copyright 1992, Gaussian, Inc.),
 the Gaussian 90(TM) system (copyright 1990, Gaussian, Inc.),
 the Gaussian 88(TM) system (copyright 1988, Gaussian, Inc.),
 the Gaussian 86(TM) system (copyright 1986, Carnegie Mellon
 University), and the Gaussian 82(TM) system (copyright 1983,
 Carnegie Mellon University). Gaussian is a federally registered
 trademark of Gaussian, Inc.
  
 This software contains proprietary and confidential information,
 including trade secrets, belonging to Gaussian, Inc.
  
 This software is provided under written license and may be
 used, copied, transmitted, or stored only in accord with that
 written license.
  
 The following legend is applicable only to US Government
 contracts under FAR:
  
                    RESTRICTED RIGHTS LEGEND
  
 Use, reproduction and disclosure by the US Government is
 subject to restrictions as set forth in subparagraphs (a)
 and (c) of the Commercial Computer Software - Restricted
 Rights clause in FAR 52.227-19.
  
 Gaussian, Inc.
 340 Quinnipiac St., Bldg. 40, Wallingford CT 06492
  
  
 ---------------------------------------------------------------
 Warning -- This program may not be used in any manner that
 competes with the business of Gaussian, Inc. or will provide
 assistance to any competitor of Gaussian, Inc.  The licensee
 of this program is prohibited from giving any competitor of
 Gaussian, Inc. access to this program.  By using this program,
 the user acknowledges that Gaussian, Inc. is engaged in the
 business of creating and licensing software in the field of
 computational chemistry and represents and warrants to the
 licensee that it is not a competitor of Gaussian, Inc. and that
 it will not use this program in any manner prohibited above.
 ---------------------------------------------------------------
  

 Cite this work as:
 Gaussian 16, Revision A.03,
 M. J. Frisch, G. W. Trucks, H. B. Schlegel, G. E. Scuseria, 
 M. A. Robb, J. R. Cheeseman, G. Scalmani, V. Barone, 
 G. A. Petersson, H. Nakatsuji, X. Li, M. Caricato, A. V. Marenich, 
 J. Bloino, B. G. Janesko, R. Gomperts, B. Mennucci, H. P. Hratchian, 
 J. V. Ortiz, A. F. Izmaylov, J. L. Sonnenberg, D. Williams-Young, 
 F. Ding, F. Lipparini, F. Egidi, J. Goings, B. Peng, A. Petrone, 
 T. Henderson, D. Ranasinghe, V. G. Zakrzewski, J. Gao, N. Rega, 
 G. Zheng, W. Liang, M. Hada, M. Ehara, K. Toyota, R. Fukuda, 
 J. Hasegawa, M. Ishida, T. Nakajima, Y. Honda, O. Kitao, H. Nakai, 
 T. Vreven, K. Throssell, J. A. Montgomery, Jr., J. E. Peralta, 
 F. Ogliaro, M. J. Bearpark, J. J. Heyd, E. N. Brothers, K. N. Kudin, 
 V. N. Staroverov, T. A. Keith, R. Kobayashi, J. Normand, 
 K. Raghavachari, A. P. Rendell, J. C. Burant, S. S. Iyengar, 
 J. Tomasi, M. Cossi, J. M. Millam, M. Klene, C. Adamo, R. Cammi, 
 J. W. Ochterski, R. L. Martin, K. Morokuma, O. Farkas, 
 J. B. Foresman, and D. J. Fox, Gaussian, Inc., Wallingford CT, 2016.
 
 ******************************************
 Gaussian 16:  ES64L-G16RevA.03 25-Dec-2016
                29-Jun-2022 
 ******************************************
 %mem=10GB
 %chk=4_addons_C84_14_Cl22_rank_6.chk
 %nprocshared=24
 Will use up to   24 processors via shared memory.
 ------------------------------------------------
 #P opt b3lyp/6-31G(d, p) empiricaldispersion=GD3
 ------------------------------------------------
 1/18=20,19=15,26=3,38=1/1,3;
 2/9=110,12=2,17=6,18=5,40=1/2;
 3/5=1,6=6,7=101,11=2,25=1,30=1,71=1,74=-5,124=31/1,2,3;
 4//1;
 5/5=2,38=5/2;
 6/7=2,8=2,9=2,10=2,28=1/1;
 7//1,2,3,16;
 1/18=20,19=15,26=3/3(2);
 2/9=110/2;
 99//99;
 2/9=110/2;
 3/5=1,6=6,7=101,11=2,25=1,30=1,71=1,74=-5,124=31/1,2,3;
 4/5=5,16=3,69=1/1;
 5/5=2,38=5/2;
 7//1,2,3,16;
 1/18=20,19=15,26=3/3(-5);
 2/9=110/2;
 6/7=2,8=2,9=2,10=2,19=2,28=1/1;
 99/9=1/99;
 Leave Link    1 at Wed Jun 29 17:04:28 2022, MaxMem=  1342177280 cpu:               0.7 elap:               0.1
 (Enter /home/mkliu/g16/l101.exe)
 -----
 force
 -----
 Symbolic Z-matrix:
 Charge =  0 Multiplicity = 1
 C                     8.26842   18.87684   10.53323 
 C                     12.44787   20.00432   8.92441 
 C                     8.26912   26.8758   10.53358 
 C                     12.44838   25.74772   8.92466 
 C                     7.95547   18.92229   9.13826 
 C                     11.85577   19.55776   10.22586 
 C                     7.95616   26.83052   9.1386 
 C                     11.85635   26.19426   10.22615 
 C                     8.93608   19.10242   8.14693 
 C                     12.12154   20.20489   11.39634 
 C                     12.122    25.54698   11.39657 
 C                     8.93674   26.6503   8.14726 
 C                     10.27427   19.07316   8.61614 
 C                     10.27493   26.67928   8.61647 
 C                     10.59441   18.9577   10.00935 
 C                     10.59509   26.79456   10.00969 
 C                     9.59053   18.95632   11.00674 
 C                     9.59122   26.79604   11.00708 
 C                     9.86242   19.64193   12.24591 
 C                     9.86299   26.11027   12.24619 
 C                     8.79232   20.23779   12.94839 
 C                     8.79278   25.51454   12.94861 
 C                     7.47197   20.22452   12.39688 
 C                     7.47244   25.52809   12.3971 
 C                     7.21404   19.55581   11.22802 
 C                     7.21462   26.19695   11.2283 
 C                     6.29935   20.12144   10.28548 
 C                     6.29983   25.63156   10.28571 
 C                     6.69251   19.5837   9.01924 
 C                     6.69308   26.16934   9.01953 
 C                     6.38129   20.25464   7.87154 
 C                     6.38175   25.49855   7.87177 
 C                     7.31014   20.2957   6.77806 
 C                     7.31059   25.45742   6.77829 
 C                     8.63792   19.84775   6.94393 
 C                     8.63846   25.90512   6.94419 
 C                     9.69271   20.5842   6.28448 
 C                     9.69311   25.16854   6.28468 
 C                     11.03078   20.56781   6.84678 
 C                     12.6389   22.16665   7.80614 
 C                     12.63902   23.58545   7.80619 
 C                     11.03118   25.18465   6.84697 
 C                     11.30003   19.76272   7.96048 
 C                     12.81781   21.46221   8.9939 
 C                     12.81806   24.28975   8.99402 
 C                     11.30056   25.98959   7.96074 
 C                     13.03043   22.16484   10.18095 
 C                     13.03055   23.58699   10.18101 
 C                     13.04026   21.39531   11.48777 
 C                     13.04055   24.35642   11.48789 
 C                     12.37304   22.19527   12.56929 
 C                     12.37323   23.5565   12.56941 
 C                     11.12312   20.26274   12.4045 
 C                     11.12358   25.48924   12.40473 
 C                     11.27553   21.48625   13.12121 
 C                     11.2758   24.26566   13.12136 
 C                     8.94304   21.46605   13.65473 
 C                     8.9433    24.28619   13.65483 
 C                     7.712     22.19049   13.51807 
 C                     7.71214   23.56197   13.51804 
 C                     6.83673   21.49093   12.62869 
 C                     6.83699   24.26176   12.62877 
 C                     6.09589   22.15222   11.6304 
 C                     6.09601   23.60069   11.63044 
 C                     5.80359   21.43275   10.40647 
 C                     5.80383   24.32032   10.40659 
 C                     5.48123   22.15354   9.1911 
 C                     5.48134   23.59969   9.19116 
 C                     5.66261   21.493    7.9559 
 C                     5.66285   24.26031   7.95603 
 C                     5.95631   22.18957   6.74321 
 C                     5.95647   23.56378   6.74331 
 C                     6.98291   21.46558   6.02997 
 C                     6.98317   24.28765   6.03012 
 C                     7.98746   22.15329   5.38282 
 C                     7.98759   23.59983   5.3829 
 C                     9.33504   21.69784   5.4943 
 C                     9.33525   24.05503   5.49441 
 C                     11.86037   21.70345   6.69937 
 C                     11.86057   24.04888   6.69946 
 C                     10.15807   22.87637   5.43881 
 C                     11.39853   22.87623   6.03362 
 C                     10.17147   22.15498   13.70224 
 C                     10.17162   23.59706   13.70233 
 Cl                    14.73782   20.93776   11.90113 
 Cl                    14.7382   24.81372   11.90118 
 Cl                    13.90204   19.03095   8.45824 
 Cl                    13.90267   26.72088   8.45855 
 
 ITRead=  0  0  0  0  0  0  0  0  0  0  0  0  0  0  0  0  0  0  0  0
 ITRead=  0  0  0  0  0  0  0  0  0  0  0  0  0  0  0  0  0  0  0  0
 ITRead=  0  0  0  0  0  0  0  0  0  0  0  0  0  0  0  0  0  0  0  0
 ITRead=  0  0  0  0  0  0  0  0  0  0  0  0  0  0  0  0  0  0  0  0
 ITRead=  0  0  0  0  0  0  0  0
 MicOpt= -1 -1 -1 -1 -1 -1 -1 -1 -1 -1 -1 -1 -1 -1 -1 -1 -1 -1 -1 -1
 MicOpt= -1 -1 -1 -1 -1 -1 -1 -1 -1 -1 -1 -1 -1 -1 -1 -1 -1 -1 -1 -1
 MicOpt= -1 -1 -1 -1 -1 -1 -1 -1 -1 -1 -1 -1 -1 -1 -1 -1 -1 -1 -1 -1
 MicOpt= -1 -1 -1 -1 -1 -1 -1 -1 -1 -1 -1 -1 -1 -1 -1 -1 -1 -1 -1 -1
 MicOpt= -1 -1 -1 -1 -1 -1 -1 -1
 NAtoms=     88 NQM=       88 NQMF=       0 NMMI=      0 NMMIF=      0
                NMic=       0 NMicF=      0.
                    Isotopes and Nuclear Properties:
 (Nuclear quadrupole moments (NQMom) in fm**2, nuclear magnetic moments (NMagM)
  in nuclear magnetons)

  Atom         1           2           3           4           5           6           7           8           9          10
 IAtWgt=          12          12          12          12          12          12          12          12          12          12
 AtmWgt=  12.0000000  12.0000000  12.0000000  12.0000000  12.0000000  12.0000000  12.0000000  12.0000000  12.0000000  12.0000000
 NucSpn=           0           0           0           0           0           0           0           0           0           0
 AtZEff=  -0.0000000  -0.0000000  -0.0000000  -0.0000000  -0.0000000  -0.0000000  -0.0000000  -0.0000000  -0.0000000  -0.0000000
 NQMom=    0.0000000   0.0000000   0.0000000   0.0000000   0.0000000   0.0000000   0.0000000   0.0000000   0.0000000   0.0000000
 NMagM=    0.0000000   0.0000000   0.0000000   0.0000000   0.0000000   0.0000000   0.0000000   0.0000000   0.0000000   0.0000000
 AtZNuc=   6.0000000   6.0000000   6.0000000   6.0000000   6.0000000   6.0000000   6.0000000   6.0000000   6.0000000   6.0000000

  Atom        11          12          13          14          15          16          17          18          19          20
 IAtWgt=          12          12          12          12          12          12          12          12          12          12
 AtmWgt=  12.0000000  12.0000000  12.0000000  12.0000000  12.0000000  12.0000000  12.0000000  12.0000000  12.0000000  12.0000000
 NucSpn=           0           0           0           0           0           0           0           0           0           0
 AtZEff=  -0.0000000  -0.0000000  -0.0000000  -0.0000000  -0.0000000  -0.0000000  -0.0000000  -0.0000000  -0.0000000  -0.0000000
 NQMom=    0.0000000   0.0000000   0.0000000   0.0000000   0.0000000   0.0000000   0.0000000   0.0000000   0.0000000   0.0000000
 NMagM=    0.0000000   0.0000000   0.0000000   0.0000000   0.0000000   0.0000000   0.0000000   0.0000000   0.0000000   0.0000000
 AtZNuc=   6.0000000   6.0000000   6.0000000   6.0000000   6.0000000   6.0000000   6.0000000   6.0000000   6.0000000   6.0000000

  Atom        21          22          23          24          25          26          27          28          29          30
 IAtWgt=          12          12          12          12          12          12          12          12          12          12
 AtmWgt=  12.0000000  12.0000000  12.0000000  12.0000000  12.0000000  12.0000000  12.0000000  12.0000000  12.0000000  12.0000000
 NucSpn=           0           0           0           0           0           0           0           0           0           0
 AtZEff=  -0.0000000  -0.0000000  -0.0000000  -0.0000000  -0.0000000  -0.0000000  -0.0000000  -0.0000000  -0.0000000  -0.0000000
 NQMom=    0.0000000   0.0000000   0.0000000   0.0000000   0.0000000   0.0000000   0.0000000   0.0000000   0.0000000   0.0000000
 NMagM=    0.0000000   0.0000000   0.0000000   0.0000000   0.0000000   0.0000000   0.0000000   0.0000000   0.0000000   0.0000000
 AtZNuc=   6.0000000   6.0000000   6.0000000   6.0000000   6.0000000   6.0000000   6.0000000   6.0000000   6.0000000   6.0000000

  Atom        31          32          33          34          35          36          37          38          39          40
 IAtWgt=          12          12          12          12          12          12          12          12          12          12
 AtmWgt=  12.0000000  12.0000000  12.0000000  12.0000000  12.0000000  12.0000000  12.0000000  12.0000000  12.0000000  12.0000000
 NucSpn=           0           0           0           0           0           0           0           0           0           0
 AtZEff=  -0.0000000  -0.0000000  -0.0000000  -0.0000000  -0.0000000  -0.0000000  -0.0000000  -0.0000000  -0.0000000  -0.0000000
 NQMom=    0.0000000   0.0000000   0.0000000   0.0000000   0.0000000   0.0000000   0.0000000   0.0000000   0.0000000   0.0000000
 NMagM=    0.0000000   0.0000000   0.0000000   0.0000000   0.0000000   0.0000000   0.0000000   0.0000000   0.0000000   0.0000000
 AtZNuc=   6.0000000   6.0000000   6.0000000   6.0000000   6.0000000   6.0000000   6.0000000   6.0000000   6.0000000   6.0000000

  Atom        41          42          43          44          45          46          47          48          49          50
 IAtWgt=          12          12          12          12          12          12          12          12          12          12
 AtmWgt=  12.0000000  12.0000000  12.0000000  12.0000000  12.0000000  12.0000000  12.0000000  12.0000000  12.0000000  12.0000000
 NucSpn=           0           0           0           0           0           0           0           0           0           0
 AtZEff=  -0.0000000  -0.0000000  -0.0000000  -0.0000000  -0.0000000  -0.0000000  -0.0000000  -0.0000000  -0.0000000  -0.0000000
 NQMom=    0.0000000   0.0000000   0.0000000   0.0000000   0.0000000   0.0000000   0.0000000   0.0000000   0.0000000   0.0000000
 NMagM=    0.0000000   0.0000000   0.0000000   0.0000000   0.0000000   0.0000000   0.0000000   0.0000000   0.0000000   0.0000000
 AtZNuc=   6.0000000   6.0000000   6.0000000   6.0000000   6.0000000   6.0000000   6.0000000   6.0000000   6.0000000   6.0000000

  Atom        51          52          53          54          55          56          57          58          59          60
 IAtWgt=          12          12          12          12          12          12          12          12          12          12
 AtmWgt=  12.0000000  12.0000000  12.0000000  12.0000000  12.0000000  12.0000000  12.0000000  12.0000000  12.0000000  12.0000000
 NucSpn=           0           0           0           0           0           0           0           0           0           0
 AtZEff=  -0.0000000  -0.0000000  -0.0000000  -0.0000000  -0.0000000  -0.0000000  -0.0000000  -0.0000000  -0.0000000  -0.0000000
 NQMom=    0.0000000   0.0000000   0.0000000   0.0000000   0.0000000   0.0000000   0.0000000   0.0000000   0.0000000   0.0000000
 NMagM=    0.0000000   0.0000000   0.0000000   0.0000000   0.0000000   0.0000000   0.0000000   0.0000000   0.0000000   0.0000000
 AtZNuc=   6.0000000   6.0000000   6.0000000   6.0000000   6.0000000   6.0000000   6.0000000   6.0000000   6.0000000   6.0000000

  Atom        61          62          63          64          65          66          67          68          69          70
 IAtWgt=          12          12          12          12          12          12          12          12          12          12
 AtmWgt=  12.0000000  12.0000000  12.0000000  12.0000000  12.0000000  12.0000000  12.0000000  12.0000000  12.0000000  12.0000000
 NucSpn=           0           0           0           0           0           0           0           0           0           0
 AtZEff=  -0.0000000  -0.0000000  -0.0000000  -0.0000000  -0.0000000  -0.0000000  -0.0000000  -0.0000000  -0.0000000  -0.0000000
 NQMom=    0.0000000   0.0000000   0.0000000   0.0000000   0.0000000   0.0000000   0.0000000   0.0000000   0.0000000   0.0000000
 NMagM=    0.0000000   0.0000000   0.0000000   0.0000000   0.0000000   0.0000000   0.0000000   0.0000000   0.0000000   0.0000000
 AtZNuc=   6.0000000   6.0000000   6.0000000   6.0000000   6.0000000   6.0000000   6.0000000   6.0000000   6.0000000   6.0000000

  Atom        71          72          73          74          75          76          77          78          79          80
 IAtWgt=          12          12          12          12          12          12          12          12          12          12
 AtmWgt=  12.0000000  12.0000000  12.0000000  12.0000000  12.0000000  12.0000000  12.0000000  12.0000000  12.0000000  12.0000000
 NucSpn=           0           0           0           0           0           0           0           0           0           0
 AtZEff=  -0.0000000  -0.0000000  -0.0000000  -0.0000000  -0.0000000  -0.0000000  -0.0000000  -0.0000000  -0.0000000  -0.0000000
 NQMom=    0.0000000   0.0000000   0.0000000   0.0000000   0.0000000   0.0000000   0.0000000   0.0000000   0.0000000   0.0000000
 NMagM=    0.0000000   0.0000000   0.0000000   0.0000000   0.0000000   0.0000000   0.0000000   0.0000000   0.0000000   0.0000000
 AtZNuc=   6.0000000   6.0000000   6.0000000   6.0000000   6.0000000   6.0000000   6.0000000   6.0000000   6.0000000   6.0000000

  Atom        81          82          83          84          85          86          87          88
 IAtWgt=          12          12          12          12          35          35          35          35
 AtmWgt=  12.0000000  12.0000000  12.0000000  12.0000000  34.9688527  34.9688527  34.9688527  34.9688527
 NucSpn=           0           0           0           0           3           3           3           3
 AtZEff=  -0.0000000  -0.0000000  -0.0000000  -0.0000000  -0.0000000  -0.0000000  -0.0000000  -0.0000000
 NQMom=    0.0000000   0.0000000   0.0000000   0.0000000  -8.1650000  -8.1650000  -8.1650000  -8.1650000
 NMagM=    0.0000000   0.0000000   0.0000000   0.0000000   0.8218740   0.8218740   0.8218740   0.8218740
 AtZNuc=   6.0000000   6.0000000   6.0000000   6.0000000  17.0000000  17.0000000  17.0000000  17.0000000
 Leave Link  101 at Wed Jun 29 17:04:28 2022, MaxMem=  1342177280 cpu:               6.6 elap:               0.3
 (Enter /home/mkliu/g16/l103.exe)

 GradGradGradGradGradGradGradGradGradGradGradGradGradGradGradGradGradGrad
 Berny optimization.
 Initialization pass.
                           ----------------------------
                           !    Initial Parameters    !
                           ! (Angstroms and Degrees)  !
 --------------------------                            --------------------------
 ! Name  Definition              Value          Derivative Info.                !
 --------------------------------------------------------------------------------
 ! R1    R(1,5)                  1.4304         estimate D2E/DX2                !
 ! R2    R(1,17)                 1.4066         estimate D2E/DX2                !
 ! R3    R(1,25)                 1.4337         estimate D2E/DX2                !
 ! R4    R(2,6)                  1.4979         estimate D2E/DX2                !
 ! R5    R(2,43)                 1.5183         estimate D2E/DX2                !
 ! R6    R(2,44)                 1.5057         estimate D2E/DX2                !
 ! R7    R(2,87)                 1.8109         estimate D2E/DX2                !
 ! R8    R(3,7)                  1.4304         estimate D2E/DX2                !
 ! R9    R(3,18)                 1.4066         estimate D2E/DX2                !
 ! R10   R(3,26)                 1.4337         estimate D2E/DX2                !
 ! R11   R(4,8)                  1.4979         estimate D2E/DX2                !
 ! R12   R(4,45)                 1.5057         estimate D2E/DX2                !
 ! R13   R(4,46)                 1.5183         estimate D2E/DX2                !
 ! R14   R(4,88)                 1.8109         estimate D2E/DX2                !
 ! R15   R(5,9)                  1.406          estimate D2E/DX2                !
 ! R16   R(5,29)                 1.4306         estimate D2E/DX2                !
 ! R17   R(6,10)                 1.3636         estimate D2E/DX2                !
 ! R18   R(6,15)                 1.4135         estimate D2E/DX2                !
 ! R19   R(7,12)                 1.406          estimate D2E/DX2                !
 ! R20   R(7,30)                 1.4306         estimate D2E/DX2                !
 ! R21   R(8,11)                 1.3636         estimate D2E/DX2                !
 ! R22   R(8,16)                 1.4135         estimate D2E/DX2                !
 ! R23   R(9,13)                 1.4184         estimate D2E/DX2                !
 ! R24   R(9,35)                 1.4463         estimate D2E/DX2                !
 ! R25   R(10,49)                1.5065         estimate D2E/DX2                !
 ! R26   R(10,53)                1.4201         estimate D2E/DX2                !
 ! R27   R(11,50)                1.5065         estimate D2E/DX2                !
 ! R28   R(11,54)                1.4201         estimate D2E/DX2                !
 ! R29   R(12,14)                1.4184         estimate D2E/DX2                !
 ! R30   R(12,36)                1.4462         estimate D2E/DX2                !
 ! R31   R(13,15)                1.4342         estimate D2E/DX2                !
 ! R32   R(13,43)                1.3991         estimate D2E/DX2                !
 ! R33   R(14,16)                1.4342         estimate D2E/DX2                !
 ! R34   R(14,46)                1.3991         estimate D2E/DX2                !
 ! R35   R(15,17)                1.4151         estimate D2E/DX2                !
 ! R36   R(16,18)                1.4151         estimate D2E/DX2                !
 ! R37   R(17,19)                1.4421         estimate D2E/DX2                !
 ! R38   R(18,20)                1.4421         estimate D2E/DX2                !
 ! R39   R(19,21)                1.412          estimate D2E/DX2                !
 ! R40   R(19,53)                1.4142         estimate D2E/DX2                !
 ! R41   R(20,22)                1.412          estimate D2E/DX2                !
 ! R42   R(20,54)                1.4142         estimate D2E/DX2                !
 ! R43   R(21,23)                1.431          estimate D2E/DX2                !
 ! R44   R(21,57)                1.4249         estimate D2E/DX2                !
 ! R45   R(22,24)                1.431          estimate D2E/DX2                !
 ! R46   R(22,58)                1.4249         estimate D2E/DX2                !
 ! R47   R(23,25)                1.3711         estimate D2E/DX2                !
 ! R48   R(23,61)                1.4356         estimate D2E/DX2                !
 ! R49   R(24,26)                1.3711         estimate D2E/DX2                !
 ! R50   R(24,62)                1.4356         estimate D2E/DX2                !
 ! R51   R(25,27)                1.43           estimate D2E/DX2                !
 ! R52   R(26,28)                1.43           estimate D2E/DX2                !
 ! R53   R(27,29)                1.4308         estimate D2E/DX2                !
 ! R54   R(27,65)                1.4071         estimate D2E/DX2                !
 ! R55   R(28,30)                1.4308         estimate D2E/DX2                !
 ! R56   R(28,66)                1.4071         estimate D2E/DX2                !
 ! R57   R(29,31)                1.3654         estimate D2E/DX2                !
 ! R58   R(30,32)                1.3654         estimate D2E/DX2                !
 ! R59   R(31,33)                1.4353         estimate D2E/DX2                !
 ! R60   R(31,69)                1.4343         estimate D2E/DX2                !
 ! R61   R(32,34)                1.4353         estimate D2E/DX2                !
 ! R62   R(32,70)                1.4343         estimate D2E/DX2                !
 ! R63   R(33,35)                1.4111         estimate D2E/DX2                !
 ! R64   R(33,73)                1.4267         estimate D2E/DX2                !
 ! R65   R(34,36)                1.4111         estimate D2E/DX2                !
 ! R66   R(34,74)                1.4267         estimate D2E/DX2                !
 ! R67   R(35,37)                1.4456         estimate D2E/DX2                !
 ! R68   R(36,38)                1.4456         estimate D2E/DX2                !
 ! R69   R(37,39)                1.4515         estimate D2E/DX2                !
 ! R70   R(37,77)                1.4116         estimate D2E/DX2                !
 ! R71   R(38,42)                1.4515         estimate D2E/DX2                !
 ! R72   R(38,78)                1.4116         estimate D2E/DX2                !
 ! R73   R(39,43)                1.4004         estimate D2E/DX2                !
 ! R74   R(39,79)                1.4141         estimate D2E/DX2                !
 ! R75   R(40,41)                1.4188         estimate D2E/DX2                !
 ! R76   R(40,44)                1.3925         estimate D2E/DX2                !
 ! R77   R(40,79)                1.4303         estimate D2E/DX2                !
 ! R78   R(41,45)                1.3925         estimate D2E/DX2                !
 ! R79   R(41,80)                1.4302         estimate D2E/DX2                !
 ! R80   R(42,46)                1.4003         estimate D2E/DX2                !
 ! R81   R(42,80)                1.4141         estimate D2E/DX2                !
 ! R82   R(44,47)                1.3957         estimate D2E/DX2                !
 ! R83   R(45,48)                1.3957         estimate D2E/DX2                !
 ! R84   R(47,48)                1.4221         estimate D2E/DX2                !
 ! R85   R(47,49)                1.5166         estimate D2E/DX2                !
 ! R86   R(48,50)                1.5166         estimate D2E/DX2                !
 ! R87   R(49,51)                1.5016         estimate D2E/DX2                !
 ! R88   R(49,85)                1.8061         estimate D2E/DX2                !
 ! R89   R(50,52)                1.5016         estimate D2E/DX2                !
 ! R90   R(50,86)                1.8061         estimate D2E/DX2                !
 ! R91   R(51,52)                1.3612         estimate D2E/DX2                !
 ! R92   R(51,55)                1.4184         estimate D2E/DX2                !
 ! R93   R(52,56)                1.4184         estimate D2E/DX2                !
 ! R94   R(53,55)                1.4261         estimate D2E/DX2                !
 ! R95   R(54,56)                1.4261         estimate D2E/DX2                !
 ! R96   R(55,83)                1.4155         estimate D2E/DX2                !
 ! R97   R(56,84)                1.4155         estimate D2E/DX2                !
 ! R98   R(57,59)                1.4349         estimate D2E/DX2                !
 ! R99   R(57,83)                1.4092         estimate D2E/DX2                !
 ! R100  R(58,60)                1.4349         estimate D2E/DX2                !
 ! R101  R(58,84)                1.4092         estimate D2E/DX2                !
 ! R102  R(59,60)                1.3715         estimate D2E/DX2                !
 ! R103  R(59,61)                1.4305         estimate D2E/DX2                !
 ! R104  R(60,62)                1.4305         estimate D2E/DX2                !
 ! R105  R(61,63)                1.4081         estimate D2E/DX2                !
 ! R106  R(62,64)                1.4081         estimate D2E/DX2                !
 ! R107  R(63,64)                1.4485         estimate D2E/DX2                !
 ! R108  R(63,65)                1.4495         estimate D2E/DX2                !
 ! R109  R(64,66)                1.4495         estimate D2E/DX2                !
 ! R110  R(65,67)                1.4493         estimate D2E/DX2                !
 ! R111  R(66,68)                1.4493         estimate D2E/DX2                !
 ! R112  R(67,68)                1.4462         estimate D2E/DX2                !
 ! R113  R(67,69)                1.4124         estimate D2E/DX2                !
 ! R114  R(68,70)                1.4124         estimate D2E/DX2                !
 ! R115  R(69,71)                1.429          estimate D2E/DX2                !
 ! R116  R(70,72)                1.429          estimate D2E/DX2                !
 ! R117  R(71,72)                1.3742         estimate D2E/DX2                !
 ! R118  R(71,73)                1.4446         estimate D2E/DX2                !
 ! R119  R(72,74)                1.4446         estimate D2E/DX2                !
 ! R120  R(73,75)                1.3787         estimate D2E/DX2                !
 ! R121  R(74,76)                1.3787         estimate D2E/DX2                !
 ! R122  R(75,76)                1.4465         estimate D2E/DX2                !
 ! R123  R(75,77)                1.4268         estimate D2E/DX2                !
 ! R124  R(76,78)                1.4268         estimate D2E/DX2                !
 ! R125  R(77,81)                1.4385         estimate D2E/DX2                !
 ! R126  R(78,81)                1.4385         estimate D2E/DX2                !
 ! R127  R(79,82)                1.4255         estimate D2E/DX2                !
 ! R128  R(80,82)                1.4255         estimate D2E/DX2                !
 ! R129  R(81,82)                1.3757         estimate D2E/DX2                !
 ! R130  R(83,84)                1.4421         estimate D2E/DX2                !
 ! A1    A(5,1,17)             122.1513         estimate D2E/DX2                !
 ! A2    A(5,1,25)             107.2576         estimate D2E/DX2                !
 ! A3    A(17,1,25)            120.0905         estimate D2E/DX2                !
 ! A4    A(6,2,43)             101.8496         estimate D2E/DX2                !
 ! A5    A(6,2,44)             110.2229         estimate D2E/DX2                !
 ! A6    A(6,2,87)             112.3854         estimate D2E/DX2                !
 ! A7    A(43,2,44)            111.662          estimate D2E/DX2                !
 ! A8    A(43,2,87)            110.9849         estimate D2E/DX2                !
 ! A9    A(44,2,87)            109.574          estimate D2E/DX2                !
 ! A10   A(7,3,18)             122.1514         estimate D2E/DX2                !
 ! A11   A(7,3,26)             107.2574         estimate D2E/DX2                !
 ! A12   A(18,3,26)            120.0905         estimate D2E/DX2                !
 ! A13   A(8,4,45)             110.2226         estimate D2E/DX2                !
 ! A14   A(8,4,46)             101.849          estimate D2E/DX2                !
 ! A15   A(8,4,88)             112.3858         estimate D2E/DX2                !
 ! A16   A(45,4,46)            111.6616         estimate D2E/DX2                !
 ! A17   A(45,4,88)            109.5751         estimate D2E/DX2                !
 ! A18   A(46,4,88)            110.9845         estimate D2E/DX2                !
 ! A19   A(1,5,9)              122.6228         estimate D2E/DX2                !
 ! A20   A(1,5,29)             106.7963         estimate D2E/DX2                !
 ! A21   A(9,5,29)             119.8567         estimate D2E/DX2                !
 ! A22   A(2,6,10)             121.8209         estimate D2E/DX2                !
 ! A23   A(2,6,15)             110.2557         estimate D2E/DX2                !
 ! A24   A(10,6,15)            120.4553         estimate D2E/DX2                !
 ! A25   A(3,7,12)             122.6225         estimate D2E/DX2                !
 ! A26   A(3,7,30)             106.7962         estimate D2E/DX2                !
 ! A27   A(12,7,30)            119.8568         estimate D2E/DX2                !
 ! A28   A(4,8,11)             121.8208         estimate D2E/DX2                !
 ! A29   A(4,8,16)             110.2558         estimate D2E/DX2                !
 ! A30   A(11,8,16)            120.4553         estimate D2E/DX2                !
 ! A31   A(5,9,13)             114.97           estimate D2E/DX2                !
 ! A32   A(5,9,35)             120.5791         estimate D2E/DX2                !
 ! A33   A(13,9,35)            118.7056         estimate D2E/DX2                !
 ! A34   A(6,10,49)            123.0899         estimate D2E/DX2                !
 ! A35   A(6,10,53)            119.4517         estimate D2E/DX2                !
 ! A36   A(49,10,53)           110.7015         estimate D2E/DX2                !
 ! A37   A(8,11,50)            123.0899         estimate D2E/DX2                !
 ! A38   A(8,11,54)            119.452          estimate D2E/DX2                !
 ! A39   A(50,11,54)           110.7024         estimate D2E/DX2                !
 ! A40   A(7,12,14)            114.9702         estimate D2E/DX2                !
 ! A41   A(7,12,36)            120.5793         estimate D2E/DX2                !
 ! A42   A(14,12,36)           118.7053         estimate D2E/DX2                !
 ! A43   A(9,13,15)            122.2507         estimate D2E/DX2                !
 ! A44   A(9,13,43)            121.7693         estimate D2E/DX2                !
 ! A45   A(15,13,43)           109.3454         estimate D2E/DX2                !
 ! A46   A(12,14,16)           122.2506         estimate D2E/DX2                !
 ! A47   A(12,14,46)           121.7694         estimate D2E/DX2                !
 ! A48   A(16,14,46)           109.3454         estimate D2E/DX2                !
 ! A49   A(6,15,13)            108.2894         estimate D2E/DX2                !
 ! A50   A(6,15,17)            121.7018         estimate D2E/DX2                !
 ! A51   A(13,15,17)           121.7631         estimate D2E/DX2                !
 ! A52   A(8,16,14)            108.2896         estimate D2E/DX2                !
 ! A53   A(8,16,18)            121.702          estimate D2E/DX2                !
 ! A54   A(14,16,18)           121.7631         estimate D2E/DX2                !
 ! A55   A(1,17,15)            115.4408         estimate D2E/DX2                !
 ! A56   A(1,17,19)            119.5611         estimate D2E/DX2                !
 ! A57   A(15,17,19)           118.1275         estimate D2E/DX2                !
 ! A58   A(3,18,16)            115.4408         estimate D2E/DX2                !
 ! A59   A(3,18,20)            119.5616         estimate D2E/DX2                !
 ! A60   A(16,18,20)           118.1272         estimate D2E/DX2                !
 ! A61   A(17,19,21)           119.0301         estimate D2E/DX2                !
 ! A62   A(17,19,53)           118.239          estimate D2E/DX2                !
 ! A63   A(21,19,53)           115.7588         estimate D2E/DX2                !
 ! A64   A(18,20,22)           119.0297         estimate D2E/DX2                !
 ! A65   A(18,20,54)           118.2395         estimate D2E/DX2                !
 ! A66   A(22,20,54)           115.7588         estimate D2E/DX2                !
 ! A67   A(19,21,23)           120.2407         estimate D2E/DX2                !
 ! A68   A(19,21,57)           122.0214         estimate D2E/DX2                !
 ! A69   A(23,21,57)           107.2568         estimate D2E/DX2                !
 ! A70   A(20,22,24)           120.2408         estimate D2E/DX2                !
 ! A71   A(20,22,58)           122.0208         estimate D2E/DX2                !
 ! A72   A(24,22,58)           107.2568         estimate D2E/DX2                !
 ! A73   A(21,23,25)           120.4417         estimate D2E/DX2                !
 ! A74   A(21,23,61)           109.7468         estimate D2E/DX2                !
 ! A75   A(25,23,61)           118.9884         estimate D2E/DX2                !
 ! A76   A(22,24,26)           120.4422         estimate D2E/DX2                !
 ! A77   A(22,24,62)           109.747          estimate D2E/DX2                !
 ! A78   A(26,24,62)           118.9878         estimate D2E/DX2                !
 ! A79   A(1,25,23)            120.3815         estimate D2E/DX2                !
 ! A80   A(1,25,27)            109.7744         estimate D2E/DX2                !
 ! A81   A(23,25,27)           119.2947         estimate D2E/DX2                !
 ! A82   A(3,26,24)            120.381          estimate D2E/DX2                !
 ! A83   A(3,26,28)            109.7747         estimate D2E/DX2                !
 ! A84   A(24,26,28)           119.2945         estimate D2E/DX2                !
 ! A85   A(25,27,29)           105.0041         estimate D2E/DX2                !
 ! A86   A(25,27,65)           122.4997         estimate D2E/DX2                !
 ! A87   A(29,27,65)           121.5449         estimate D2E/DX2                !
 ! A88   A(26,28,30)           105.0038         estimate D2E/DX2                !
 ! A89   A(26,28,66)           122.5001         estimate D2E/DX2                !
 ! A90   A(30,28,66)           121.5449         estimate D2E/DX2                !
 ! A91   A(5,29,27)            110.0427         estimate D2E/DX2                !
 ! A92   A(5,29,31)            119.8898         estimate D2E/DX2                !
 ! A93   A(27,29,31)           119.7752         estimate D2E/DX2                !
 ! A94   A(7,30,28)            110.043          estimate D2E/DX2                !
 ! A95   A(7,30,32)            119.8896         estimate D2E/DX2                !
 ! A96   A(28,30,32)           119.7747         estimate D2E/DX2                !
 ! A97   A(29,31,33)           120.4601         estimate D2E/DX2                !
 ! A98   A(29,31,69)           119.2778         estimate D2E/DX2                !
 ! A99   A(33,31,69)           110.1437         estimate D2E/DX2                !
 ! A100  A(30,32,34)           120.46           estimate D2E/DX2                !
 ! A101  A(30,32,70)           119.2779         estimate D2E/DX2                !
 ! A102  A(34,32,70)           110.1437         estimate D2E/DX2                !
 ! A103  A(31,33,35)           120.6836         estimate D2E/DX2                !
 ! A104  A(31,33,73)           105.9328         estimate D2E/DX2                !
 ! A105  A(35,33,73)           122.5319         estimate D2E/DX2                !
 ! A106  A(32,34,36)           120.6841         estimate D2E/DX2                !
 ! A107  A(32,34,74)           105.9328         estimate D2E/DX2                !
 ! A108  A(36,34,74)           122.5315         estimate D2E/DX2                !
 ! A109  A(9,35,33)            117.0882         estimate D2E/DX2                !
 ! A110  A(9,35,37)            119.4436         estimate D2E/DX2                !
 ! A111  A(33,35,37)           118.1142         estimate D2E/DX2                !
 ! A112  A(12,36,34)           117.0879         estimate D2E/DX2                !
 ! A113  A(12,36,38)           119.4438         estimate D2E/DX2                !
 ! A114  A(34,36,38)           118.1142         estimate D2E/DX2                !
 ! A115  A(35,37,39)           119.3505         estimate D2E/DX2                !
 ! A116  A(35,37,77)           118.1899         estimate D2E/DX2                !
 ! A117  A(39,37,77)           117.3451         estimate D2E/DX2                !
 ! A118  A(36,38,42)           119.3506         estimate D2E/DX2                !
 ! A119  A(36,38,78)           118.1902         estimate D2E/DX2                !
 ! A120  A(42,38,78)           117.3448         estimate D2E/DX2                !
 ! A121  A(37,39,43)           119.4608         estimate D2E/DX2                !
 ! A122  A(37,39,79)           119.4302         estimate D2E/DX2                !
 ! A123  A(43,39,79)           115.5829         estimate D2E/DX2                !
 ! A124  A(41,40,44)           120.3876         estimate D2E/DX2                !
 ! A125  A(41,40,79)           108.901          estimate D2E/DX2                !
 ! A126  A(44,40,79)           124.4831         estimate D2E/DX2                !
 ! A127  A(40,41,45)           120.3861         estimate D2E/DX2                !
 ! A128  A(40,41,80)           108.902          estimate D2E/DX2                !
 ! A129  A(45,41,80)           124.4834         estimate D2E/DX2                !
 ! A130  A(38,42,46)           119.4605         estimate D2E/DX2                !
 ! A131  A(38,42,80)           119.4301         estimate D2E/DX2                !
 ! A132  A(46,42,80)           115.5832         estimate D2E/DX2                !
 ! A133  A(2,43,13)            109.583          estimate D2E/DX2                !
 ! A134  A(2,43,39)            123.9738         estimate D2E/DX2                !
 ! A135  A(13,43,39)           121.003          estimate D2E/DX2                !
 ! A136  A(2,44,40)            114.7645         estimate D2E/DX2                !
 ! A137  A(2,44,47)            124.3412         estimate D2E/DX2                !
 ! A138  A(40,44,47)           119.3641         estimate D2E/DX2                !
 ! A139  A(4,45,41)            114.7642         estimate D2E/DX2                !
 ! A140  A(4,45,48)            124.3408         estimate D2E/DX2                !
 ! A141  A(41,45,48)           119.3647         estimate D2E/DX2                !
 ! A142  A(4,46,14)            109.5831         estimate D2E/DX2                !
 ! A143  A(4,46,42)            123.9736         estimate D2E/DX2                !
 ! A144  A(14,46,42)           121.0033         estimate D2E/DX2                !
 ! A145  A(44,47,48)           120.2301         estimate D2E/DX2                !
 ! A146  A(44,47,49)           118.5816         estimate D2E/DX2                !
 ! A147  A(48,47,49)           120.4888         estimate D2E/DX2                !
 ! A148  A(45,48,47)           120.23           estimate D2E/DX2                !
 ! A149  A(45,48,50)           118.5815         estimate D2E/DX2                !
 ! A150  A(47,48,50)           120.4893         estimate D2E/DX2                !
 ! A151  A(10,49,47)           110.1638         estimate D2E/DX2                !
 ! A152  A(10,49,51)           101.1686         estimate D2E/DX2                !
 ! A153  A(10,49,85)           112.7619         estimate D2E/DX2                !
 ! A154  A(47,49,51)           110.3301         estimate D2E/DX2                !
 ! A155  A(47,49,85)           109.3815         estimate D2E/DX2                !
 ! A156  A(51,49,85)           112.815          estimate D2E/DX2                !
 ! A157  A(11,50,48)           110.1629         estimate D2E/DX2                !
 ! A158  A(11,50,52)           101.1682         estimate D2E/DX2                !
 ! A159  A(11,50,86)           112.7611         estimate D2E/DX2                !
 ! A160  A(48,50,52)           110.3315         estimate D2E/DX2                !
 ! A161  A(48,50,86)           109.3806         estimate D2E/DX2                !
 ! A162  A(52,50,86)           112.8166         estimate D2E/DX2                !
 ! A163  A(49,51,52)           122.1907         estimate D2E/DX2                !
 ! A164  A(49,51,55)           110.9633         estimate D2E/DX2                !
 ! A165  A(52,51,55)           119.9967         estimate D2E/DX2                !
 ! A166  A(50,52,51)           122.1879         estimate D2E/DX2                !
 ! A167  A(50,52,56)           110.963          estimate D2E/DX2                !
 ! A168  A(51,52,56)           119.9929         estimate D2E/DX2                !
 ! A169  A(10,53,19)           121.9571         estimate D2E/DX2                !
 ! A170  A(10,53,55)           108.4566         estimate D2E/DX2                !
 ! A171  A(19,53,55)           121.8867         estimate D2E/DX2                !
 ! A172  A(11,54,20)           121.9565         estimate D2E/DX2                !
 ! A173  A(11,54,56)           108.4567         estimate D2E/DX2                !
 ! A174  A(20,54,56)           121.8875         estimate D2E/DX2                !
 ! A175  A(51,55,53)           108.421          estimate D2E/DX2                !
 ! A176  A(51,55,83)           121.8077         estimate D2E/DX2                !
 ! A177  A(53,55,83)           121.8854         estimate D2E/DX2                !
 ! A178  A(52,56,54)           108.421          estimate D2E/DX2                !
 ! A179  A(52,56,84)           121.8085         estimate D2E/DX2                !
 ! A180  A(54,56,84)           121.8848         estimate D2E/DX2                !
 ! A181  A(21,57,59)           107.2918         estimate D2E/DX2                !
 ! A182  A(21,57,83)           122.0281         estimate D2E/DX2                !
 ! A183  A(59,57,83)           120.2819         estimate D2E/DX2                !
 ! A184  A(22,58,60)           107.2911         estimate D2E/DX2                !
 ! A185  A(22,58,84)           122.0291         estimate D2E/DX2                !
 ! A186  A(60,58,84)           120.2822         estimate D2E/DX2                !
 ! A187  A(57,59,60)           120.3166         estimate D2E/DX2                !
 ! A188  A(57,59,61)           109.7086         estimate D2E/DX2                !
 ! A189  A(60,59,61)           119.2796         estimate D2E/DX2                !
 ! A190  A(58,60,59)           120.3188         estimate D2E/DX2                !
 ! A191  A(58,60,62)           109.7098         estimate D2E/DX2                !
 ! A192  A(59,60,62)           119.2835         estimate D2E/DX2                !
 ! A193  A(23,61,59)           105.1312         estimate D2E/DX2                !
 ! A194  A(23,61,63)           122.1817         estimate D2E/DX2                !
 ! A195  A(59,61,63)           122.2093         estimate D2E/DX2                !
 ! A196  A(24,62,60)           105.1309         estimate D2E/DX2                !
 ! A197  A(24,62,64)           122.1829         estimate D2E/DX2                !
 ! A198  A(60,62,64)           122.2087         estimate D2E/DX2                !
 ! A199  A(61,63,64)           118.0066         estimate D2E/DX2                !
 ! A200  A(61,63,65)           118.1397         estimate D2E/DX2                !
 ! A201  A(64,63,65)           119.7614         estimate D2E/DX2                !
 ! A202  A(62,64,63)           118.0046         estimate D2E/DX2                !
 ! A203  A(62,64,66)           118.1391         estimate D2E/DX2                !
 ! A204  A(63,64,66)           119.7641         estimate D2E/DX2                !
 ! A205  A(27,65,63)           117.653          estimate D2E/DX2                !
 ! A206  A(27,65,67)           118.0161         estimate D2E/DX2                !
 ! A207  A(63,65,67)           120.4028         estimate D2E/DX2                !
 ! A208  A(28,66,64)           117.6531         estimate D2E/DX2                !
 ! A209  A(28,66,68)           118.0167         estimate D2E/DX2                !
 ! A210  A(64,66,68)           120.402          estimate D2E/DX2                !
 ! A211  A(65,67,68)           119.8193         estimate D2E/DX2                !
 ! A212  A(65,67,69)           118.178          estimate D2E/DX2                !
 ! A213  A(68,67,69)           117.8846         estimate D2E/DX2                !
 ! A214  A(66,68,67)           119.8193         estimate D2E/DX2                !
 ! A215  A(66,68,70)           118.1772         estimate D2E/DX2                !
 ! A216  A(67,68,70)           117.8848         estimate D2E/DX2                !
 ! A217  A(31,69,67)           121.3032         estimate D2E/DX2                !
 ! A218  A(31,69,71)           105.5432         estimate D2E/DX2                !
 ! A219  A(67,69,71)           122.7223         estimate D2E/DX2                !
 ! A220  A(32,70,68)           121.304          estimate D2E/DX2                !
 ! A221  A(32,70,72)           105.5431         estimate D2E/DX2                !
 ! A222  A(68,70,72)           122.721          estimate D2E/DX2                !
 ! A223  A(69,71,72)           119.1706         estimate D2E/DX2                !
 ! A224  A(69,71,73)           108.7087         estimate D2E/DX2                !
 ! A225  A(72,71,73)           120.0751         estimate D2E/DX2                !
 ! A226  A(70,72,71)           119.1742         estimate D2E/DX2                !
 ! A227  A(70,72,74)           108.7095         estimate D2E/DX2                !
 ! A228  A(71,72,74)           120.0763         estimate D2E/DX2                !
 ! A229  A(33,73,71)           108.3656         estimate D2E/DX2                !
 ! A230  A(33,73,75)           119.212          estimate D2E/DX2                !
 ! A231  A(71,73,75)           119.9709         estimate D2E/DX2                !
 ! A232  A(34,74,72)           108.3653         estimate D2E/DX2                !
 ! A233  A(34,74,76)           119.2124         estimate D2E/DX2                !
 ! A234  A(72,74,76)           119.9704         estimate D2E/DX2                !
 ! A235  A(73,75,76)           119.9235         estimate D2E/DX2                !
 ! A236  A(73,75,77)           119.4884         estimate D2E/DX2                !
 ! A237  A(76,75,77)           108.6092         estimate D2E/DX2                !
 ! A238  A(74,76,75)           119.9237         estimate D2E/DX2                !
 ! A239  A(74,76,78)           119.4885         estimate D2E/DX2                !
 ! A240  A(75,76,78)           108.6101         estimate D2E/DX2                !
 ! A241  A(37,77,75)           122.3362         estimate D2E/DX2                !
 ! A242  A(37,77,81)           121.5316         estimate D2E/DX2                !
 ! A243  A(75,77,81)           106.0116         estimate D2E/DX2                !
 ! A244  A(38,78,76)           122.3357         estimate D2E/DX2                !
 ! A245  A(38,78,81)           121.5321         estimate D2E/DX2                !
 ! A246  A(76,78,81)           106.0114         estimate D2E/DX2                !
 ! A247  A(39,79,40)           119.9182         estimate D2E/DX2                !
 ! A248  A(39,79,82)           121.2885         estimate D2E/DX2                !
 ! A249  A(40,79,82)           105.7427         estimate D2E/DX2                !
 ! A250  A(41,80,42)           119.9182         estimate D2E/DX2                !
 ! A251  A(41,80,82)           105.7423         estimate D2E/DX2                !
 ! A252  A(42,80,82)           121.2889         estimate D2E/DX2                !
 ! A253  A(77,81,78)           110.0301         estimate D2E/DX2                !
 ! A254  A(77,81,82)           119.9425         estimate D2E/DX2                !
 ! A255  A(78,81,82)           119.9423         estimate D2E/DX2                !
 ! A256  A(79,82,80)           110.7106         estimate D2E/DX2                !
 ! A257  A(79,82,81)           119.6142         estimate D2E/DX2                !
 ! A258  A(80,82,81)           119.6139         estimate D2E/DX2                !
 ! A259  A(55,83,57)           115.7919         estimate D2E/DX2                !
 ! A260  A(55,83,84)           118.1881         estimate D2E/DX2                !
 ! A261  A(57,83,84)           119.2724         estimate D2E/DX2                !
 ! A262  A(56,84,58)           115.7916         estimate D2E/DX2                !
 ! A263  A(56,84,83)           118.1887         estimate D2E/DX2                !
 ! A264  A(58,84,83)           119.2694         estimate D2E/DX2                !
 ! D1    D(17,1,5,9)            -2.5989         estimate D2E/DX2                !
 ! D2    D(17,1,5,29)         -146.7566         estimate D2E/DX2                !
 ! D3    D(25,1,5,9)           142.0238         estimate D2E/DX2                !
 ! D4    D(25,1,5,29)           -2.1339         estimate D2E/DX2                !
 ! D5    D(5,1,17,15)           -5.6763         estimate D2E/DX2                !
 ! D6    D(5,1,17,19)          144.7823         estimate D2E/DX2                !
 ! D7    D(25,1,17,15)        -145.9583         estimate D2E/DX2                !
 ! D8    D(25,1,17,19)           4.5003         estimate D2E/DX2                !
 ! D9    D(5,1,25,23)         -149.1149         estimate D2E/DX2                !
 ! D10   D(5,1,25,27)           -4.6753         estimate D2E/DX2                !
 ! D11   D(17,1,25,23)          -3.6228         estimate D2E/DX2                !
 ! D12   D(17,1,25,27)         140.8168         estimate D2E/DX2                !
 ! D13   D(43,2,6,10)         -142.4805         estimate D2E/DX2                !
 ! D14   D(43,2,6,15)            7.384          estimate D2E/DX2                !
 ! D15   D(44,2,6,10)          -23.8448         estimate D2E/DX2                !
 ! D16   D(44,2,6,15)          126.0197         estimate D2E/DX2                !
 ! D17   D(87,2,6,10)           98.693          estimate D2E/DX2                !
 ! D18   D(87,2,6,15)         -111.4425         estimate D2E/DX2                !
 ! D19   D(6,2,43,13)           -8.1775         estimate D2E/DX2                !
 ! D20   D(6,2,43,39)          145.8446         estimate D2E/DX2                !
 ! D21   D(44,2,43,13)        -125.7825         estimate D2E/DX2                !
 ! D22   D(44,2,43,39)          28.2396         estimate D2E/DX2                !
 ! D23   D(87,2,43,13)         111.6405         estimate D2E/DX2                !
 ! D24   D(87,2,43,39)         -94.3374         estimate D2E/DX2                !
 ! D25   D(6,2,44,40)         -144.8081         estimate D2E/DX2                !
 ! D26   D(6,2,44,47)           20.9329         estimate D2E/DX2                !
 ! D27   D(43,2,44,40)         -32.3643         estimate D2E/DX2                !
 ! D28   D(43,2,44,47)         133.3767         estimate D2E/DX2                !
 ! D29   D(87,2,44,40)          91.0162         estimate D2E/DX2                !
 ! D30   D(87,2,44,47)        -103.2427         estimate D2E/DX2                !
 ! D31   D(18,3,7,12)            2.599          estimate D2E/DX2                !
 ! D32   D(18,3,7,30)          146.7564         estimate D2E/DX2                !
 ! D33   D(26,3,7,12)         -142.0234         estimate D2E/DX2                !
 ! D34   D(26,3,7,30)            2.1339         estimate D2E/DX2                !
 ! D35   D(7,3,18,16)            5.6764         estimate D2E/DX2                !
 ! D36   D(7,3,18,20)         -144.7824         estimate D2E/DX2                !
 ! D37   D(26,3,18,16)         145.9579         estimate D2E/DX2                !
 ! D38   D(26,3,18,20)          -4.5009         estimate D2E/DX2                !
 ! D39   D(7,3,26,24)          149.1145         estimate D2E/DX2                !
 ! D40   D(7,3,26,28)            4.6755         estimate D2E/DX2                !
 ! D41   D(18,3,26,24)           3.6226         estimate D2E/DX2                !
 ! D42   D(18,3,26,28)        -140.8164         estimate D2E/DX2                !
 ! D43   D(45,4,8,11)           23.8454         estimate D2E/DX2                !
 ! D44   D(45,4,8,16)         -126.0193         estimate D2E/DX2                !
 ! D45   D(46,4,8,11)          142.4802         estimate D2E/DX2                !
 ! D46   D(46,4,8,16)           -7.3846         estimate D2E/DX2                !
 ! D47   D(88,4,8,11)          -98.694          estimate D2E/DX2                !
 ! D48   D(88,4,8,16)          111.4413         estimate D2E/DX2                !
 ! D49   D(8,4,45,41)          144.8077         estimate D2E/DX2                !
 ! D50   D(8,4,45,48)          -20.9336         estimate D2E/DX2                !
 ! D51   D(46,4,45,41)          32.365          estimate D2E/DX2                !
 ! D52   D(46,4,45,48)        -133.3763         estimate D2E/DX2                !
 ! D53   D(88,4,45,41)         -91.0154         estimate D2E/DX2                !
 ! D54   D(88,4,45,48)         103.2433         estimate D2E/DX2                !
 ! D55   D(8,4,46,14)            8.1781         estimate D2E/DX2                !
 ! D56   D(8,4,46,42)         -145.8447         estimate D2E/DX2                !
 ! D57   D(45,4,46,14)         125.7823         estimate D2E/DX2                !
 ! D58   D(45,4,46,42)         -28.2405         estimate D2E/DX2                !
 ! D59   D(88,4,46,14)        -111.6399         estimate D2E/DX2                !
 ! D60   D(88,4,46,42)          94.3374         estimate D2E/DX2                !
 ! D61   D(1,5,9,13)             7.3258         estimate D2E/DX2                !
 ! D62   D(1,5,9,35)          -145.6216         estimate D2E/DX2                !
 ! D63   D(29,5,9,13)          147.0575         estimate D2E/DX2                !
 ! D64   D(29,5,9,35)           -5.8898         estimate D2E/DX2                !
 ! D65   D(1,5,29,27)            8.2387         estimate D2E/DX2                !
 ! D66   D(1,5,29,31)          153.264          estimate D2E/DX2                !
 ! D67   D(9,5,29,27)         -137.1048         estimate D2E/DX2                !
 ! D68   D(9,5,29,31)            7.9204         estimate D2E/DX2                !
 ! D69   D(2,6,10,49)           -1.0825         estimate D2E/DX2                !
 ! D70   D(2,6,10,53)          147.4025         estimate D2E/DX2                !
 ! D71   D(15,6,10,49)        -147.9631         estimate D2E/DX2                !
 ! D72   D(15,6,10,53)           0.522          estimate D2E/DX2                !
 ! D73   D(2,6,15,13)           -4.1455         estimate D2E/DX2                !
 ! D74   D(2,6,15,17)         -152.9925         estimate D2E/DX2                !
 ! D75   D(10,6,15,13)         146.1934         estimate D2E/DX2                !
 ! D76   D(10,6,15,17)          -2.6536         estimate D2E/DX2                !
 ! D77   D(3,7,12,14)           -7.326          estimate D2E/DX2                !
 ! D78   D(3,7,12,36)          145.6214         estimate D2E/DX2                !
 ! D79   D(30,7,12,14)        -147.0574         estimate D2E/DX2                !
 ! D80   D(30,7,12,36)           5.89           estimate D2E/DX2                !
 ! D81   D(3,7,30,28)           -8.239          estimate D2E/DX2                !
 ! D82   D(3,7,30,32)         -153.2633         estimate D2E/DX2                !
 ! D83   D(12,7,30,28)         137.1042         estimate D2E/DX2                !
 ! D84   D(12,7,30,32)          -7.9202         estimate D2E/DX2                !
 ! D85   D(4,8,11,50)            1.084          estimate D2E/DX2                !
 ! D86   D(4,8,11,54)         -147.4038         estimate D2E/DX2                !
 ! D87   D(16,8,11,50)         147.9648         estimate D2E/DX2                !
 ! D88   D(16,8,11,54)          -0.5229         estimate D2E/DX2                !
 ! D89   D(4,8,16,14)            4.1458         estimate D2E/DX2                !
 ! D90   D(4,8,16,18)          152.9932         estimate D2E/DX2                !
 ! D91   D(11,8,16,14)        -146.1933         estimate D2E/DX2                !
 ! D92   D(11,8,16,18)           2.6541         estimate D2E/DX2                !
 ! D93   D(5,9,13,15)           -3.9686         estimate D2E/DX2                !
 ! D94   D(5,9,13,43)         -152.3404         estimate D2E/DX2                !
 ! D95   D(35,9,13,15)         149.517          estimate D2E/DX2                !
 ! D96   D(35,9,13,43)           1.1452         estimate D2E/DX2                !
 ! D97   D(5,9,35,33)           -4.2411         estimate D2E/DX2                !
 ! D98   D(5,9,35,37)          149.4609         estimate D2E/DX2                !
 ! D99   D(13,9,35,33)        -156.2024         estimate D2E/DX2                !
 ! D100  D(13,9,35,37)          -2.5003         estimate D2E/DX2                !
 ! D101  D(6,10,49,47)          28.9343         estimate D2E/DX2                !
 ! D102  D(6,10,49,51)         145.6624         estimate D2E/DX2                !
 ! D103  D(6,10,49,85)         -93.5762         estimate D2E/DX2                !
 ! D104  D(53,10,49,47)       -121.9492         estimate D2E/DX2                !
 ! D105  D(53,10,49,51)         -5.2211         estimate D2E/DX2                !
 ! D106  D(53,10,49,85)        115.5403         estimate D2E/DX2                !
 ! D107  D(6,10,53,19)           1.4101         estimate D2E/DX2                !
 ! D108  D(6,10,53,55)        -148.4229         estimate D2E/DX2                !
 ! D109  D(49,10,53,19)        153.4944         estimate D2E/DX2                !
 ! D110  D(49,10,53,55)          3.6614         estimate D2E/DX2                !
 ! D111  D(8,11,50,48)         -28.9372         estimate D2E/DX2                !
 ! D112  D(8,11,50,52)        -145.6664         estimate D2E/DX2                !
 ! D113  D(8,11,50,86)          93.571          estimate D2E/DX2                !
 ! D114  D(54,11,50,48)        121.9487         estimate D2E/DX2                !
 ! D115  D(54,11,50,52)          5.2195         estimate D2E/DX2                !
 ! D116  D(54,11,50,86)       -115.5431         estimate D2E/DX2                !
 ! D117  D(8,11,54,20)          -1.409          estimate D2E/DX2                !
 ! D118  D(8,11,54,56)         148.425          estimate D2E/DX2                !
 ! D119  D(50,11,54,20)       -153.4955         estimate D2E/DX2                !
 ! D120  D(50,11,54,56)         -3.6615         estimate D2E/DX2                !
 ! D121  D(7,12,14,16)           3.9689         estimate D2E/DX2                !
 ! D122  D(7,12,14,46)         152.3409         estimate D2E/DX2                !
 ! D123  D(36,12,14,16)       -149.5169         estimate D2E/DX2                !
 ! D124  D(36,12,14,46)         -1.1449         estimate D2E/DX2                !
 ! D125  D(7,12,36,34)           4.2407         estimate D2E/DX2                !
 ! D126  D(7,12,36,38)        -149.4612         estimate D2E/DX2                !
 ! D127  D(14,12,36,34)        156.2021         estimate D2E/DX2                !
 ! D128  D(14,12,36,38)          2.5003         estimate D2E/DX2                !
 ! D129  D(9,13,15,6)         -153.1416         estimate D2E/DX2                !
 ! D130  D(9,13,15,17)          -4.3176         estimate D2E/DX2                !
 ! D131  D(43,13,15,6)          -1.3393         estimate D2E/DX2                !
 ! D132  D(43,13,15,17)        147.4848         estimate D2E/DX2                !
 ! D133  D(9,13,43,2)          158.1725         estimate D2E/DX2                !
 ! D134  D(9,13,43,39)           3.2468         estimate D2E/DX2                !
 ! D135  D(15,13,43,2)           6.2093         estimate D2E/DX2                !
 ! D136  D(15,13,43,39)       -148.7163         estimate D2E/DX2                !
 ! D137  D(12,14,16,8)         153.1419         estimate D2E/DX2                !
 ! D138  D(12,14,16,18)          4.3175         estimate D2E/DX2                !
 ! D139  D(46,14,16,8)           1.3394         estimate D2E/DX2                !
 ! D140  D(46,14,16,18)       -147.485          estimate D2E/DX2                !
 ! D141  D(12,14,46,4)        -158.1731         estimate D2E/DX2                !
 ! D142  D(12,14,46,42)         -3.247          estimate D2E/DX2                !
 ! D143  D(16,14,46,4)          -6.2099         estimate D2E/DX2                !
 ! D144  D(16,14,46,42)        148.7163         estimate D2E/DX2                !
 ! D145  D(6,15,17,1)          153.6688         estimate D2E/DX2                !
 ! D146  D(6,15,17,19)           2.7668         estimate D2E/DX2                !
 ! D147  D(13,15,17,1)           8.9589         estimate D2E/DX2                !
 ! D148  D(13,15,17,19)       -141.9432         estimate D2E/DX2                !
 ! D149  D(8,16,18,3)         -153.6693         estimate D2E/DX2                !
 ! D150  D(8,16,18,20)          -2.7668         estimate D2E/DX2                !
 ! D151  D(14,16,18,3)          -8.9589         estimate D2E/DX2                !
 ! D152  D(14,16,18,20)        141.9436         estimate D2E/DX2                !
 ! D153  D(1,17,19,21)          -0.9443         estimate D2E/DX2                !
 ! D154  D(1,17,19,53)        -150.5143         estimate D2E/DX2                !
 ! D155  D(15,17,19,21)        148.7333         estimate D2E/DX2                !
 ! D156  D(15,17,19,53)         -0.8367         estimate D2E/DX2                !
 ! D157  D(3,18,20,22)           0.9448         estimate D2E/DX2                !
 ! D158  D(3,18,20,54)         150.5148         estimate D2E/DX2                !
 ! D159  D(16,18,20,22)       -148.7331         estimate D2E/DX2                !
 ! D160  D(16,18,20,54)          0.8368         estimate D2E/DX2                !
 ! D161  D(17,19,21,23)         -3.5131         estimate D2E/DX2                !
 ! D162  D(17,19,21,57)       -143.8298         estimate D2E/DX2                !
 ! D163  D(53,19,21,23)        146.7885         estimate D2E/DX2                !
 ! D164  D(53,19,21,57)          6.4718         estimate D2E/DX2                !
 ! D165  D(17,19,53,10)         -1.2213         estimate D2E/DX2                !
 ! D166  D(17,19,53,55)        144.6266         estimate D2E/DX2                !
 ! D167  D(21,19,53,10)       -151.7681         estimate D2E/DX2                !
 ! D168  D(21,19,53,55)         -5.9201         estimate D2E/DX2                !
 ! D169  D(18,20,22,24)          3.5133         estimate D2E/DX2                !
 ! D170  D(18,20,22,58)        143.8291         estimate D2E/DX2                !
 ! D171  D(54,20,22,24)       -146.7884         estimate D2E/DX2                !
 ! D172  D(54,20,22,58)         -6.4726         estimate D2E/DX2                !
 ! D173  D(18,20,54,11)          1.2207         estimate D2E/DX2                !
 ! D174  D(18,20,54,56)       -144.6281         estimate D2E/DX2                !
 ! D175  D(22,20,54,11)        151.7672         estimate D2E/DX2                !
 ! D176  D(22,20,54,56)          5.9184         estimate D2E/DX2                !
 ! D177  D(19,21,23,25)          4.477          estimate D2E/DX2                !
 ! D178  D(19,21,23,61)       -139.4441         estimate D2E/DX2                !
 ! D179  D(57,21,23,25)        149.9421         estimate D2E/DX2                !
 ! D180  D(57,21,23,61)          6.021          estimate D2E/DX2                !
 ! D181  D(19,21,57,59)        144.4053         estimate D2E/DX2                !
 ! D182  D(19,21,57,83)         -0.4481         estimate D2E/DX2                !
 ! D183  D(23,21,57,59)         -0.3091         estimate D2E/DX2                !
 ! D184  D(23,21,57,83)       -145.1625         estimate D2E/DX2                !
 ! D185  D(20,22,24,26)         -4.4779         estimate D2E/DX2                !
 ! D186  D(20,22,24,62)        139.4429         estimate D2E/DX2                !
 ! D187  D(58,22,24,26)       -149.9419         estimate D2E/DX2                !
 ! D188  D(58,22,24,62)         -6.0212         estimate D2E/DX2                !
 ! D189  D(20,22,58,60)       -144.4029         estimate D2E/DX2                !
 ! D190  D(20,22,58,84)          0.4515         estimate D2E/DX2                !
 ! D191  D(24,22,58,60)          0.3108         estimate D2E/DX2                !
 ! D192  D(24,22,58,84)        145.1652         estimate D2E/DX2                !
 ! D193  D(21,23,25,1)          -0.8845         estimate D2E/DX2                !
 ! D194  D(21,23,25,27)       -142.0173         estimate D2E/DX2                !
 ! D195  D(61,23,25,1)         139.7953         estimate D2E/DX2                !
 ! D196  D(61,23,25,27)         -1.3375         estimate D2E/DX2                !
 ! D197  D(21,23,61,59)         -9.1977         estimate D2E/DX2                !
 ! D198  D(21,23,61,63)        136.1431         estimate D2E/DX2                !
 ! D199  D(25,23,61,59)       -153.7166         estimate D2E/DX2                !
 ! D200  D(25,23,61,63)         -8.3758         estimate D2E/DX2                !
 ! D201  D(22,24,26,3)           0.8853         estimate D2E/DX2                !
 ! D202  D(22,24,26,28)        142.0177         estimate D2E/DX2                !
 ! D203  D(62,24,26,3)        -139.7944         estimate D2E/DX2                !
 ! D204  D(62,24,26,28)          1.338          estimate D2E/DX2                !
 ! D205  D(22,24,62,60)          9.1964         estimate D2E/DX2                !
 ! D206  D(22,24,62,64)       -136.1444         estimate D2E/DX2                !
 ! D207  D(26,24,62,60)        153.7154         estimate D2E/DX2                !
 ! D208  D(26,24,62,64)          8.3746         estimate D2E/DX2                !
 ! D209  D(1,25,27,29)           9.4726         estimate D2E/DX2                !
 ! D210  D(1,25,27,65)        -134.9131         estimate D2E/DX2                !
 ! D211  D(23,25,27,29)        154.3542         estimate D2E/DX2                !
 ! D212  D(23,25,27,65)          9.9685         estimate D2E/DX2                !
 ! D213  D(3,26,28,30)          -9.4728         estimate D2E/DX2                !
 ! D214  D(3,26,28,66)         134.9129         estimate D2E/DX2                !
 ! D215  D(24,26,28,30)       -154.3538         estimate D2E/DX2                !
 ! D216  D(24,26,28,66)         -9.9681         estimate D2E/DX2                !
 ! D217  D(25,27,29,5)         -10.8824         estimate D2E/DX2                !
 ! D218  D(25,27,29,31)       -155.9535         estimate D2E/DX2                !
 ! D219  D(65,27,29,5)         133.9277         estimate D2E/DX2                !
 ! D220  D(65,27,29,31)        -11.1434         estimate D2E/DX2                !
 ! D221  D(25,27,65,63)         -8.6507         estimate D2E/DX2                !
 ! D222  D(25,27,65,67)        149.1634         estimate D2E/DX2                !
 ! D223  D(29,27,65,63)       -147.3508         estimate D2E/DX2                !
 ! D224  D(29,27,65,67)         10.4634         estimate D2E/DX2                !
 ! D225  D(26,28,30,7)          10.8827         estimate D2E/DX2                !
 ! D226  D(26,28,30,32)        155.953          estimate D2E/DX2                !
 ! D227  D(66,28,30,7)        -133.9276         estimate D2E/DX2                !
 ! D228  D(66,28,30,32)         11.1428         estimate D2E/DX2                !
 ! D229  D(26,28,66,64)          8.6501         estimate D2E/DX2                !
 ! D230  D(26,28,66,68)       -149.1631         estimate D2E/DX2                !
 ! D231  D(30,28,66,64)        147.3501         estimate D2E/DX2                !
 ! D232  D(30,28,66,68)        -10.4632         estimate D2E/DX2                !
 ! D233  D(5,29,31,33)           0.344          estimate D2E/DX2                !
 ! D234  D(5,29,31,69)        -141.6323         estimate D2E/DX2                !
 ! D235  D(27,29,31,33)        141.9982         estimate D2E/DX2                !
 ! D236  D(27,29,31,69)          0.0219         estimate D2E/DX2                !
 ! D237  D(7,30,32,34)          -0.3443         estimate D2E/DX2                !
 ! D238  D(7,30,32,70)         141.6319         estimate D2E/DX2                !
 ! D239  D(28,30,32,34)       -141.9978         estimate D2E/DX2                !
 ! D240  D(28,30,32,70)         -0.0216         estimate D2E/DX2                !
 ! D241  D(29,31,33,35)        -10.8845         estimate D2E/DX2                !
 ! D242  D(29,31,33,73)       -155.9383         estimate D2E/DX2                !
 ! D243  D(69,31,33,35)        134.2043         estimate D2E/DX2                !
 ! D244  D(69,31,33,73)        -10.8495         estimate D2E/DX2                !
 ! D245  D(29,31,69,67)         11.5767         estimate D2E/DX2                !
 ! D246  D(29,31,69,71)        157.2475         estimate D2E/DX2                !
 ! D247  D(33,31,69,67)       -133.9818         estimate D2E/DX2                !
 ! D248  D(33,31,69,71)         11.689          estimate D2E/DX2                !
 ! D249  D(30,32,34,36)         10.8846         estimate D2E/DX2                !
 ! D250  D(30,32,34,74)        155.938          estimate D2E/DX2                !
 ! D251  D(70,32,34,36)       -134.2041         estimate D2E/DX2                !
 ! D252  D(70,32,34,74)         10.8494         estimate D2E/DX2                !
 ! D253  D(30,32,70,68)        -11.5763         estimate D2E/DX2                !
 ! D254  D(30,32,70,72)       -157.2458         estimate D2E/DX2                !
 ! D255  D(34,32,70,68)        133.982          estimate D2E/DX2                !
 ! D256  D(34,32,70,72)        -11.6875         estimate D2E/DX2                !
 ! D257  D(31,33,35,9)          12.5377         estimate D2E/DX2                !
 ! D258  D(31,33,35,37)       -141.5223         estimate D2E/DX2                !
 ! D259  D(73,33,35,9)         151.7459         estimate D2E/DX2                !
 ! D260  D(73,33,35,37)         -2.3142         estimate D2E/DX2                !
 ! D261  D(31,33,73,71)          5.6334         estimate D2E/DX2                !
 ! D262  D(31,33,73,75)        147.6978         estimate D2E/DX2                !
 ! D263  D(35,33,73,71)       -138.6135         estimate D2E/DX2                !
 ! D264  D(35,33,73,75)          3.4509         estimate D2E/DX2                !
 ! D265  D(32,34,36,12)        -12.5374         estimate D2E/DX2                !
 ! D266  D(32,34,36,38)        141.5225         estimate D2E/DX2                !
 ! D267  D(74,34,36,12)       -151.7454         estimate D2E/DX2                !
 ! D268  D(74,34,36,38)          2.3145         estimate D2E/DX2                !
 ! D269  D(32,34,74,72)         -5.6347         estimate D2E/DX2                !
 ! D270  D(32,34,74,76)       -147.6984         estimate D2E/DX2                !
 ! D271  D(36,34,74,72)        138.6123         estimate D2E/DX2                !
 ! D272  D(36,34,74,76)         -3.4514         estimate D2E/DX2                !
 ! D273  D(9,35,37,39)          -0.3412         estimate D2E/DX2                !
 ! D274  D(9,35,37,77)        -154.4087         estimate D2E/DX2                !
 ! D275  D(33,35,37,39)        153.0942         estimate D2E/DX2                !
 ! D276  D(33,35,37,77)         -0.9733         estimate D2E/DX2                !
 ! D277  D(12,36,38,42)          0.341          estimate D2E/DX2                !
 ! D278  D(12,36,38,78)        154.4085         estimate D2E/DX2                !
 ! D279  D(34,36,38,42)       -153.0941         estimate D2E/DX2                !
 ! D280  D(34,36,38,78)          0.9735         estimate D2E/DX2                !
 ! D281  D(35,37,39,43)          4.6236         estimate D2E/DX2                !
 ! D282  D(35,37,39,79)       -148.0128         estimate D2E/DX2                !
 ! D283  D(77,37,39,43)        158.9064         estimate D2E/DX2                !
 ! D284  D(77,37,39,79)          6.2699         estimate D2E/DX2                !
 ! D285  D(35,37,77,75)          3.2055         estimate D2E/DX2                !
 ! D286  D(35,37,77,81)        143.6877         estimate D2E/DX2                !
 ! D287  D(39,37,77,75)       -151.3821         estimate D2E/DX2                !
 ! D288  D(39,37,77,81)        -10.8999         estimate D2E/DX2                !
 ! D289  D(36,38,42,46)         -4.6233         estimate D2E/DX2                !
 ! D290  D(36,38,42,80)        148.013          estimate D2E/DX2                !
 ! D291  D(78,38,42,46)       -158.9063         estimate D2E/DX2                !
 ! D292  D(78,38,42,80)         -6.2699         estimate D2E/DX2                !
 ! D293  D(36,38,78,76)         -3.206          estimate D2E/DX2                !
 ! D294  D(36,38,78,81)       -143.6877         estimate D2E/DX2                !
 ! D295  D(42,38,78,76)        151.3818         estimate D2E/DX2                !
 ! D296  D(42,38,78,81)         10.9            estimate D2E/DX2                !
 ! D297  D(37,39,43,2)        -157.3271         estimate D2E/DX2                !
 ! D298  D(37,39,43,13)         -6.1086         estimate D2E/DX2                !
 ! D299  D(79,39,43,2)          -3.6759         estimate D2E/DX2                !
 ! D300  D(79,39,43,13)        147.5426         estimate D2E/DX2                !
 ! D301  D(37,39,79,40)        137.0824         estimate D2E/DX2                !
 ! D302  D(37,39,79,82)          1.355          estimate D2E/DX2                !
 ! D303  D(43,39,79,40)        -16.5774         estimate D2E/DX2                !
 ! D304  D(43,39,79,82)       -152.3048         estimate D2E/DX2                !
 ! D305  D(44,40,41,45)          0.0001         estimate D2E/DX2                !
 ! D306  D(44,40,41,80)       -153.4461         estimate D2E/DX2                !
 ! D307  D(79,40,41,45)        153.4466         estimate D2E/DX2                !
 ! D308  D(79,40,41,80)          0.0004         estimate D2E/DX2                !
 ! D309  D(41,40,44,2)         164.9358         estimate D2E/DX2                !
 ! D310  D(41,40,44,47)         -1.5696         estimate D2E/DX2                !
 ! D311  D(79,40,44,2)          15.805          estimate D2E/DX2                !
 ! D312  D(79,40,44,47)       -150.7004         estimate D2E/DX2                !
 ! D313  D(41,40,79,39)       -141.4812         estimate D2E/DX2                !
 ! D314  D(41,40,79,82)          0.2177         estimate D2E/DX2                !
 ! D315  D(44,40,79,39)         10.626          estimate D2E/DX2                !
 ! D316  D(44,40,79,82)        152.3248         estimate D2E/DX2                !
 ! D317  D(40,41,45,4)        -164.9361         estimate D2E/DX2                !
 ! D318  D(40,41,45,48)          1.5694         estimate D2E/DX2                !
 ! D319  D(80,41,45,4)         -15.8056         estimate D2E/DX2                !
 ! D320  D(80,41,45,48)        150.6999         estimate D2E/DX2                !
 ! D321  D(40,41,80,42)        141.4806         estimate D2E/DX2                !
 ! D322  D(40,41,80,82)         -0.2184         estimate D2E/DX2                !
 ! D323  D(45,41,80,42)        -10.6256         estimate D2E/DX2                !
 ! D324  D(45,41,80,82)       -152.3245         estimate D2E/DX2                !
 ! D325  D(38,42,46,4)         157.3277         estimate D2E/DX2                !
 ! D326  D(38,42,46,14)          6.1084         estimate D2E/DX2                !
 ! D327  D(80,42,46,4)           3.6766         estimate D2E/DX2                !
 ! D328  D(80,42,46,14)       -147.5426         estimate D2E/DX2                !
 ! D329  D(38,42,80,41)       -137.0825         estimate D2E/DX2                !
 ! D330  D(38,42,80,82)         -1.3552         estimate D2E/DX2                !
 ! D331  D(46,42,80,41)         16.577          estimate D2E/DX2                !
 ! D332  D(46,42,80,82)        152.3043         estimate D2E/DX2                !
 ! D333  D(2,44,47,48)        -163.5629         estimate D2E/DX2                !
 ! D334  D(2,44,47,49)           6.9021         estimate D2E/DX2                !
 ! D335  D(40,44,47,48)          1.5672         estimate D2E/DX2                !
 ! D336  D(40,44,47,49)        172.0322         estimate D2E/DX2                !
[...]
 Alpha virt. eigenvalues --    1.17761   1.18012   1.18698   1.18854   1.18877
 Alpha virt. eigenvalues --    1.19134   1.19720   1.19876   1.20017   1.20197
 Alpha virt. eigenvalues --    1.20824   1.21519   1.21901   1.22200   1.22232
 Alpha virt. eigenvalues --    1.22885   1.23098   1.23226   1.23426   1.23521
 Alpha virt. eigenvalues --    1.23873   1.24146   1.24441   1.24614   1.25332
 Alpha virt. eigenvalues --    1.25482   1.25895   1.26048   1.26457   1.26553
 Alpha virt. eigenvalues --    1.26820   1.26944   1.27388   1.27696   1.28161
 Alpha virt. eigenvalues --    1.28523   1.28648   1.28849   1.29076   1.29713
 Alpha virt. eigenvalues --    1.30157   1.30214   1.30425   1.31100   1.31268
 Alpha virt. eigenvalues --    1.31499   1.31564   1.32007   1.32068   1.32434
 Alpha virt. eigenvalues --    1.32714   1.33019   1.33035   1.34422   1.34452
 Alpha virt. eigenvalues --    1.34874   1.35576   1.35654   1.35854   1.36047
 Alpha virt. eigenvalues --    1.36485   1.36575   1.37082   1.37101   1.39626
 Alpha virt. eigenvalues --    1.39841   1.40250   1.40479   1.41237   1.41648
 Alpha virt. eigenvalues --    1.42255   1.42985   1.43327   1.43412   1.44249
 Alpha virt. eigenvalues --    1.45167   1.45520   1.46197   1.46922   1.47133
 Alpha virt. eigenvalues --    1.47291   1.47994   1.48406   1.49130   1.49257
 Alpha virt. eigenvalues --    1.49910   1.50553   1.51359   1.51735   1.52170
 Alpha virt. eigenvalues --    1.52323   1.52669   1.52985   1.53648   1.53801
 Alpha virt. eigenvalues --    1.54274   1.54762   1.55232   1.55296   1.55520
 Alpha virt. eigenvalues --    1.56522   1.57013   1.57447   1.58066   1.58265
 Alpha virt. eigenvalues --    1.58873   1.59278   1.61079   1.61338   1.61604
 Alpha virt. eigenvalues --    1.62109   1.62291   1.63567   1.63717   1.63920
 Alpha virt. eigenvalues --    1.63979   1.64252   1.64767   1.64835   1.65535
 Alpha virt. eigenvalues --    1.65789   1.65970   1.66144   1.66434   1.66619
 Alpha virt. eigenvalues --    1.66821   1.66973   1.67018   1.67161   1.67697
 Alpha virt. eigenvalues --    1.67977   1.68088   1.68249   1.68881   1.68995
 Alpha virt. eigenvalues --    1.69564   1.69803   1.69937   1.70076   1.70470
 Alpha virt. eigenvalues --    1.70587   1.71041   1.71240   1.71367   1.71724
 Alpha virt. eigenvalues --    1.72235   1.72425   1.72475   1.72641   1.73140
 Alpha virt. eigenvalues --    1.73330   1.73602   1.73960   1.74160   1.74359
 Alpha virt. eigenvalues --    1.74410   1.74599   1.74898   1.75103   1.75602
 Alpha virt. eigenvalues --    1.75730   1.76201   1.76338   1.76497   1.76792
 Alpha virt. eigenvalues --    1.76793   1.77013   1.77056   1.77462   1.77716
 Alpha virt. eigenvalues --    1.77781   1.77919   1.78471   1.78743   1.79010
 Alpha virt. eigenvalues --    1.79072   1.79273   1.79894   1.80130   1.80488
 Alpha virt. eigenvalues --    1.80675   1.80728   1.81475   1.81541   1.82254
 Alpha virt. eigenvalues --    1.82522   1.82655   1.84031   1.84236   1.84848
 Alpha virt. eigenvalues --    1.85174   1.85552   1.86199   1.86398   1.87118
 Alpha virt. eigenvalues --    1.87319   1.88326   1.88393   1.89146   1.89621
 Alpha virt. eigenvalues --    1.89886   1.89907   1.90122   1.90916   1.91654
 Alpha virt. eigenvalues --    1.91820   1.91831   1.92557   1.93374   1.93436
 Alpha virt. eigenvalues --    1.93863   1.93948   1.93984   1.94106   1.94565
 Alpha virt. eigenvalues --    1.95259   1.95462   1.95512   1.95654   1.96240
 Alpha virt. eigenvalues --    1.96476   1.96847   1.97447   1.97604   1.98081
 Alpha virt. eigenvalues --    1.98172   1.98207   1.98711   1.98780   1.99165
 Alpha virt. eigenvalues --    1.99774   1.99802   1.99876   2.00254   2.00285
 Alpha virt. eigenvalues --    2.00526   2.00825   2.01108   2.01300   2.01389
 Alpha virt. eigenvalues --    2.02078   2.02183   2.02281   2.02369   2.02818
 Alpha virt. eigenvalues --    2.02928   2.03096   2.03271   2.03647   2.03840
 Alpha virt. eigenvalues --    2.03970   2.04395   2.04602   2.04845   2.05481
 Alpha virt. eigenvalues --    2.05565   2.05947   2.06119   2.06327   2.07064
 Alpha virt. eigenvalues --    2.07345   2.07779   2.08403   2.08656   2.09043
 Alpha virt. eigenvalues --    2.09199   2.10360   2.10402   2.11328   2.11551
 Alpha virt. eigenvalues --    2.12402   2.12549   2.12582   2.13680   2.13747
 Alpha virt. eigenvalues --    2.13874   2.14690   2.14942   2.14944   2.15645
 Alpha virt. eigenvalues --    2.16319   2.16845   2.17127   2.18238   2.18912
 Alpha virt. eigenvalues --    2.19109   2.19691   2.19895   2.20361   2.20504
 Alpha virt. eigenvalues --    2.20976   2.21241   2.21759   2.22136   2.22623
 Alpha virt. eigenvalues --    2.22776   2.23260   2.23546   2.23849   2.24032
 Alpha virt. eigenvalues --    2.24432   2.24486   2.24813   2.25239   2.25694
 Alpha virt. eigenvalues --    2.26464   2.26628   2.27297   2.27912   2.28080
 Alpha virt. eigenvalues --    2.28515   2.28525   2.28770   2.29539   2.29849
 Alpha virt. eigenvalues --    2.29858   2.30559   2.31057   2.31799   2.31886
 Alpha virt. eigenvalues --    2.32259   2.32634   2.33033   2.33167   2.33888
 Alpha virt. eigenvalues --    2.35123   2.35188   2.36456   2.37026   2.37072
 Alpha virt. eigenvalues --    2.38753   2.38925   2.39591   2.40062   2.40113
 Alpha virt. eigenvalues --    2.40428   2.41561   2.42051   2.42292   2.42565
 Alpha virt. eigenvalues --    2.43270   2.43409   2.44079   2.44398   2.44722
 Alpha virt. eigenvalues --    2.45714   2.46021   2.46270   2.47003   2.47641
 Alpha virt. eigenvalues --    2.47898   2.48846   2.49367   2.49725   2.50685
 Alpha virt. eigenvalues --    2.51105   2.51197   2.51479   2.52544   2.52853
 Alpha virt. eigenvalues --    2.53649   2.54151   2.54433   2.54878   2.55110
 Alpha virt. eigenvalues --    2.55202   2.55854   2.55937   2.56003   2.56087
 Alpha virt. eigenvalues --    2.56804   2.57140   2.57592   2.57694   2.57707
 Alpha virt. eigenvalues --    2.57728   2.58171   2.58590   2.58629   2.59190
 Alpha virt. eigenvalues --    2.59414   2.59707   2.59960   2.60684   2.60891
 Alpha virt. eigenvalues --    2.60907   2.61793   2.62034   2.62325   2.62890
 Alpha virt. eigenvalues --    2.63300   2.63730   2.63908   2.64303   2.64386
 Alpha virt. eigenvalues --    2.64707   2.64987   2.65326   2.65406   2.66237
 Alpha virt. eigenvalues --    2.66377   2.66640   2.66999   2.67573   2.67695
 Alpha virt. eigenvalues --    2.67982   2.68096   2.68776   2.69179   2.69504
 Alpha virt. eigenvalues --    2.69998   2.70396   2.70696   2.71244   2.71485
 Alpha virt. eigenvalues --    2.72476   2.72590   2.72704   2.73682   2.73832
 Alpha virt. eigenvalues --    2.74559   2.74966   2.75054   2.75064   2.75844
 Alpha virt. eigenvalues --    2.76104   2.76894   2.77499   2.77835   2.78430
 Alpha virt. eigenvalues --    2.78941   2.79312   2.79594   2.79904   2.80798
 Alpha virt. eigenvalues --    2.81512   2.81818   2.82702   2.82708   2.82898
 Alpha virt. eigenvalues --    2.83360   2.83467   2.83624   2.83972   2.84099
 Alpha virt. eigenvalues --    2.84814   2.85732   2.87172   2.87601   2.87655
 Alpha virt. eigenvalues --    2.88129   2.88913   2.89775   2.89818   2.89947
 Alpha virt. eigenvalues --    2.90167   2.90293   2.90893   2.91011   2.91271
 Alpha virt. eigenvalues --    2.91950   2.92334   2.92384   2.92515   2.93437
 Alpha virt. eigenvalues --    2.94086   2.94488   2.94935   2.95096   2.95160
 Alpha virt. eigenvalues --    2.95799   2.96595   2.97935   2.97958   2.98980
 Alpha virt. eigenvalues --    2.99384   3.00437   3.00700   3.03388   3.04548
 Alpha virt. eigenvalues --    3.05186   3.05754   3.06993   3.08384   3.09117
 Alpha virt. eigenvalues --    3.11580   3.12942   3.13723   3.16534   3.18307
 Alpha virt. eigenvalues --    3.18915   3.19023   3.20791   3.21067   3.23381
 Alpha virt. eigenvalues --    3.24246   3.27411   3.28242   3.29586   3.30524
 Alpha virt. eigenvalues --    3.31951   3.34594   3.35464   3.37796   3.38175
 Alpha virt. eigenvalues --    3.39169   3.41226   3.44674   3.45179   3.46001
 Alpha virt. eigenvalues --    3.49574   3.50898   3.52259   3.53259   3.54315
 Alpha virt. eigenvalues --    3.61280   3.66495   3.99348   4.01539   4.01963
 Alpha virt. eigenvalues --    4.02314   4.03127   4.03742   4.04338   4.04939
 Alpha virt. eigenvalues --    4.05426   4.05684   4.06118   4.07239   4.07321
 Alpha virt. eigenvalues --    4.08182   4.08236   4.09405   4.09838   4.10673
 Alpha virt. eigenvalues --    4.10905   4.10973   4.12223   4.13432   4.15127
 Alpha virt. eigenvalues --    4.16281   4.16389   4.17318   4.17531   4.18638
 Alpha virt. eigenvalues --    4.20052   4.20540   4.20933   4.22484   4.22701
 Alpha virt. eigenvalues --    4.23170   4.24027   4.26052   4.26542   4.27326
 Alpha virt. eigenvalues --    4.28026   4.28213   4.28399   4.30091   4.30912
 Alpha virt. eigenvalues --    4.31706   4.32690   4.34298   4.35169   4.37279
 Alpha virt. eigenvalues --    4.37727   4.39088   4.40747   4.42148   4.44663
 Alpha virt. eigenvalues --    4.46201   4.47004   4.48291   4.48504   4.49108
 Alpha virt. eigenvalues --    4.51675   4.54084   4.54236   4.57261   4.57693
 Alpha virt. eigenvalues --    4.59057   4.59890   4.60793   4.65533   4.65978
 Alpha virt. eigenvalues --    4.67351   4.68335   4.68809   4.75613   4.79109
 Alpha virt. eigenvalues --    4.80323   4.82184   4.83408   4.87380   4.89994
 Alpha virt. eigenvalues --    4.92080   4.95267   4.98323   5.02770   5.04902
 Alpha virt. eigenvalues --    5.10601   5.15727   5.18180   5.23568   5.30311
          Condensed to atoms (all electrons):
 Mulliken charges:
               1
     1  C   -0.019082
     2  C   -0.366772
     3  C   -0.019082
     4  C   -0.366772
     5  C   -0.018073
     6  C    0.088132
     7  C   -0.018073
     8  C    0.088131
     9  C    0.045961
    10  C    0.091791
    11  C    0.091791
    12  C    0.045960
    13  C    0.011669
    14  C    0.011670
    15  C    0.003261
    16  C    0.003261
    17  C    0.048053
    18  C    0.048053
    19  C    0.051364
    20  C    0.051364
    21  C   -0.017859
    22  C   -0.017858
    23  C   -0.015525
    24  C   -0.015524
    25  C   -0.010099
    26  C   -0.010099
    27  C   -0.020475
    28  C   -0.020475
    29  C   -0.017546
    30  C   -0.017546
    31  C   -0.010639
    32  C   -0.010639
    33  C   -0.016754
    34  C   -0.016753
    35  C    0.042094
    36  C    0.042094
    37  C    0.041283
    38  C    0.041283
    39  C    0.070978
    40  C    0.004689
    41  C    0.004689
    42  C    0.070979
    43  C    0.040704
    44  C    0.135082
    45  C    0.135082
    46  C    0.040704
    47  C    0.121923
    48  C    0.121923
    49  C   -0.375138
    50  C   -0.375138
    51  C    0.088750
    52  C    0.088750
    53  C    0.003927
    54  C    0.003926
    55  C    0.007023
    56  C    0.007025
    57  C   -0.018917
    58  C   -0.018918
    59  C   -0.012215
    60  C   -0.012217
    61  C   -0.019804
    62  C   -0.019804
    63  C    0.042186
    64  C    0.042187
    65  C    0.042265
    66  C    0.042265
    67  C    0.039006
    68  C    0.039008
    69  C   -0.020086
    70  C   -0.020087
    71  C   -0.005290
    72  C   -0.005291
    73  C   -0.005186
    74  C   -0.005186
    75  C   -0.000446
    76  C   -0.000446
    77  C   -0.021973
    78  C   -0.021973
    79  C   -0.053521
    80  C   -0.053521
    81  C    0.010125
    82  C   -0.014798
    83  C    0.050200
    84  C    0.050200
    85  Cl  -0.005812
    86  Cl  -0.005812
    87  Cl  -0.016793
    88  Cl  -0.016792
 Sum of Mulliken charges =  -0.00000
 Mulliken charges with hydrogens summed into heavy atoms:
               1
     1  C   -0.019082
     2  C   -0.366772
     3  C   -0.019082
     4  C   -0.366772
     5  C   -0.018073
     6  C    0.088132
     7  C   -0.018073
     8  C    0.088131
     9  C    0.045961
    10  C    0.091791
    11  C    0.091791
    12  C    0.045960
    13  C    0.011669
    14  C    0.011670
    15  C    0.003261
    16  C    0.003261
    17  C    0.048053
    18  C    0.048053
    19  C    0.051364
    20  C    0.051364
    21  C   -0.017859
    22  C   -0.017858
    23  C   -0.015525
    24  C   -0.015524
    25  C   -0.010099
    26  C   -0.010099
    27  C   -0.020475
    28  C   -0.020475
    29  C   -0.017546
    30  C   -0.017546
    31  C   -0.010639
    32  C   -0.010639
    33  C   -0.016754
    34  C   -0.016753
    35  C    0.042094
    36  C    0.042094
    37  C    0.041283
    38  C    0.041283
    39  C    0.070978
    40  C    0.004689
    41  C    0.004689
    42  C    0.070979
    43  C    0.040704
    44  C    0.135082
    45  C    0.135082
    46  C    0.040704
    47  C    0.121923
    48  C    0.121923
    49  C   -0.375138
    50  C   -0.375138
    51  C    0.088750
    52  C    0.088750
    53  C    0.003927
    54  C    0.003926
    55  C    0.007023
    56  C    0.007025
    57  C   -0.018917
    58  C   -0.018918
    59  C   -0.012215
    60  C   -0.012217
    61  C   -0.019804
    62  C   -0.019804
    63  C    0.042186
    64  C    0.042187
    65  C    0.042265
    66  C    0.042265
    67  C    0.039006
    68  C    0.039008
    69  C   -0.020086
    70  C   -0.020087
    71  C   -0.005290
    72  C   -0.005291
    73  C   -0.005186
    74  C   -0.005186
    75  C   -0.000446
    76  C   -0.000446
    77  C   -0.021973
    78  C   -0.021973
    79  C   -0.053521
    80  C   -0.053521
    81  C    0.010125
    82  C   -0.014798
    83  C    0.050200
    84  C    0.050200
    85  Cl  -0.005812
    86  Cl  -0.005812
    87  Cl  -0.016793
    88  Cl  -0.016792
 Electronic spatial extent (au):  <R**2>=          41834.4775
 Charge=             -0.0000 electrons
 Dipole moment (field-independent basis, Debye):
    X=              7.1227    Y=              0.0000    Z=              2.8911  Tot=              7.6871
 Quadrupole moment (field-independent basis, Debye-Ang):
   XX=           -528.1846   YY=           -509.9705   ZZ=           -503.2565
   XY=              0.0000   XZ=            -11.2559   YZ=              0.0000
 Traceless Quadrupole moment (field-independent basis, Debye-Ang):
   XX=            -14.3808   YY=              3.8334   ZZ=             10.5474
   XY=              0.0000   XZ=            -11.2559   YZ=              0.0000
 Octapole moment (field-independent basis, Debye-Ang**2):
  XXX=             38.6057  YYY=             -0.0000  ZZZ=             -5.8026  XYY=             21.5584
  XXY=             -0.0001  XXZ=              6.7775  XZZ=            -12.1451  YZZ=             -0.0000
  YYZ=             27.6661  XYZ=             -0.0001
 Hexadecapole moment (field-independent basis, Debye-Ang**3):
 XXXX=         -24286.4196 YYYY=         -19591.8176 ZZZZ=         -17644.1142 XXXY=              0.0006
 XXXZ=             61.7164 YYYX=              0.0003 YYYZ=              0.0002 ZZZX=            -20.2827
 ZZZY=              0.0001 XXYY=          -7399.3654 XXZZ=          -6912.5207 YYZZ=          -6255.9164
 XXYZ=              0.0005 YYXZ=            -87.4892 ZZXY=              0.0002
 N-N= 1.717979623873D+04 E-N=-4.613840069588D+04  KE= 5.006202317366D+03
 No NMR shielding tensors so no spin-rotation constants.
 Leave Link  601 at Wed Jun 29 18:18:35 2022, MaxMem=  1342177280 cpu:              22.7 elap:               1.2
 (Enter /home/mkliu/g16/l9999.exe)
 1\1\GINC-NODE04\FOpt\RB3LYP\6-31G(d,p)\C84Cl4\MKLIU\29-Jun-2022\0\\#P 
 opt b3lyp/6-31G(d, p) empiricaldispersion=GD3\\force\\0,1\C,8.25561462
 57,18.8489114946,10.5411214558\C,12.4658632763,19.9856360414,8.9167097
 143\C,8.2563134228,26.9037219771,10.5414610659\C,12.4663649459,25.7664
 052219,8.9169532658\C,7.9391635651,18.8925310794,9.1407023928\C,11.871
 1992865,19.5299721438,10.2286446927\C,7.9398546477,26.8602757073,9.141
 0383016\C,11.8717802106,26.2220618565,10.2289267967\C,8.9318183056,19.
 0686941142,8.14475571\C,12.1340520862,20.1809994299,11.3983563462\C,12
 .1345201627,25.5708904258,11.3985837526\C,8.9324787842,26.6840247276,8
 .1450767878\C,10.2790868217,19.0410651669,8.6077868653\C,10.2797521844
 ,26.7113814545,8.6081102434\C,10.6029510155,18.9278743209,10.007297175
 2\C,10.6036361314,26.8243980559,10.007630253\C,9.5874078288,18.9312991
 821,11.0096057458\C,9.5880922836,26.8210647415,11.009938589\C,9.861846
 3702,19.6256451926,12.2619674357\C,9.8624101669,26.1265653035,12.26224
 15284\C,8.7819585489,20.2213560947,12.9718065503\C,8.7824190349,25.530
 9813212,12.972030162\C,7.4514569552,20.2038440241,12.4158324584\C,7.45
 19205862,25.5487710011,12.4160577451\C,7.1939406277,19.5358068436,11.2
 456205262\C,7.1945201843,26.2169517328,11.2459022466\C,6.2743133526,20
 .096123187,10.2930755452\C,6.2747958552,25.6568753606,10.2933099299\C,
 6.6689166655,19.5608665229,9.0160416907\C,6.6694919929,26.1921710895,9
 .0163212901\C,6.3573064134,20.2328308732,7.8677990485\C,6.3577650716,2
 5.5203576266,7.8680219944\C,7.2937203764,20.2808816755,6.7654850325\C,
 7.2941706028,25.4722375543,6.7657040277\C,8.630623722,19.8234652165,6.
 9304735429\C,8.631153264,25.9294084725,6.9307309112\C,9.6973892756,20.
 5671306385,6.2675471605\C,9.6977897927,25.1856141319,6.2677416976\C,11
 .0529526155,20.5462480896,6.8303694596\C,12.6820772811,22.1597444171,7
 .769856948\C,12.6822015995,23.5923556315,7.7699177532\C,11.0533567132,
 25.2062141491,6.8305655578\C,11.3097049835,19.7355018472,7.9410676375\
 C,12.8539385628,21.4515485565,8.9701480317\C,12.8541854814,24.30042064
 67,8.9702680804\C,11.3102496122,26.016822018,7.941332522\C,13.06501389
 83,22.1531973512,10.1647157034\C,13.0651393982,23.5986346568,10.164776
 6212\C,13.0552583645,21.38633092,11.4833702997\C,13.0555157089,24.3653
 905642,11.4834957901\C,12.386114475,22.1948311702,12.5760837174\C,12.3
 862286898,23.5569134429,12.5761372759\C,11.1325823034,20.2460356174,12
 .4183272303\C,11.1330385258,25.505941472,12.4185486349\C,11.2861490368
 ,21.4757928022,13.1351947424\C,11.2863906842,24.2760961508,13.13531117
 24\C,8.9344152746,21.4548447194,13.6794397379\C,8.9346613596,24.297407
 2345,13.6795605318\C,7.6933093989,22.1896360716,13.5461710649\C,7.6934
 266502,23.5628430685,13.5462330585\C,6.8156228625,21.4796783367,12.656
 5530008\C,6.8158642563,24.2730272942,12.6566718949\C,6.0643380711,22.1
 445336775,11.653192455\C,6.0644650685,23.6083869296,11.653254982\C,5.7
 700581233,21.4155899194,10.4164457234\C,5.7703122644,24.3374856246,10.
 4165688756\C,5.444809658,22.1462260576,9.1888515238\C,5.4449367676,23.
 6070096355,9.1889131202\C,5.634588472,21.4807708647,7.9438039274\C,5.6
 348304999,24.2725367984,7.9439215049\C,5.9347947526,22.1882153582,6.73
 11862158\C,5.9349118804,23.5651434232,6.7312423388\C,6.9727255415,21.4
 553013036,6.0132627951\C,6.9729717295,24.2979375128,6.0133822659\C,7.9
 856837052,22.1447343627,5.3698382387\C,7.9858102948,23.6083830441,5.36
 98994687\C,9.3361329856,21.6884955574,5.471861103\C,9.3363389049,24.06
 43790049,5.4719610548\C,11.8971632084,21.6927967952,6.6694487984\C,11.
 8973679834,24.0595323408,6.6695491086\C,10.1709551474,22.8763666976,5.
 4338529443\C,11.4232431871,22.8762336742,6.0076459469\C,10.1721598369,
 22.1465211083,13.7185173422\C,10.1722853888,23.6055121903,13.718577666
 5\Cl,14.7783206994,20.8977764636,11.9601411167\Cl,14.7786624066,24.853
 6017153,11.9603145926\Cl,13.9422330791,18.9564367817,8.4438407291\Cl,1
 3.9429132064,26.7953863697,8.4441698651\\Version=ES64L-G16RevA.03\Stat
 e=1-A\HF=-5041.7987757\RMSD=1.513e-09\RMSF=1.027e-04\Dipole=-3.0232345
 ,0.0002602,0.0815059\Quadrupole=-13.9093043,2.850005,11.0592993,0.0014
 841,0.2152116,-0.0003717\PG=C01 [X(C84Cl4)]\\@


 SI MONUMENTUM REQUIRIS, CIRCUMSPICE
     -- FROM SIR CHRISTOPHER WREN'S TOMBSTONE
 Job cpu time:       1 days  5 hours 30 minutes 24.9 seconds.
 Elapsed time:       0 days  1 hours 13 minutes 52.2 seconds.
 File lengths (MBytes):  RWF=   1098 Int=      0 D2E=      0 Chk=    138 Scr=      1
 Normal termination of Gaussian 16 at Wed Jun 29 18:18:37 2022.
