 Entering Gaussian System, Link 0=g16
 Input=4_addons_C84_14_Cl22_rank_7.gjf
 Output=4_addons_C84_14_Cl22_rank_7.log
 Initial command:
 /home/mkliu/g16/l1.exe "/data/scratch/Gau-223526.inp" -scrdir="/data/scratch/"
 Entering Link 1 = /home/mkliu/g16/l1.exe PID=    223527.
  
 Copyright (c) 1988,1990,1992,1993,1995,1998,2003,2009,2016,
            Gaussian, Inc.  All Rights Reserved.
  
 This is part of the Gaussian(R) 16 program.  It is based on
 the Gaussian(R) 09 system (copyright 2009, Gaussian, Inc.),
 the Gaussian(R) 03 system (copyright 2003, Gaussian, Inc.),
 the Gaussian(R) 98 system (copyright 1998, Gaussian, Inc.),
 the Gaussian(R) 94 system (copyright 1995, Gaussian, Inc.),
 the Gaussian 92(TM) system (copyright 1992, Gaussian, Inc.),
 the Gaussian 90(TM) system (copyright 1990, Gaussian, Inc.),
 the Gaussian 88(TM) system (copyright 1988, Gaussian, Inc.),
 the Gaussian 86(TM) system (copyright 1986, Carnegie Mellon
 University), and the Gaussian 82(TM) system (copyright 1983,
 Carnegie Mellon University). Gaussian is a federally registered
 trademark of Gaussian, Inc.
  
 This software contains proprietary and confidential information,
 including trade secrets, belonging to Gaussian, Inc.
  
 This software is provided under written license and may be
 used, copied, transmitted, or stored only in accord with that
 written license.
  
 The following legend is applicable only to US Government
 contracts under FAR:
  
                    RESTRICTED RIGHTS LEGEND
  
 Use, reproduction and disclosure by the US Government is
 subject to restrictions as set forth in subparagraphs (a)
 and (c) of the Commercial Computer Software - Restricted
 Rights clause in FAR 52.227-19.
  
 Gaussian, Inc.
 340 Quinnipiac St., Bldg. 40, Wallingford CT 06492
  
  
 ---------------------------------------------------------------
 Warning -- This program may not be used in any manner that
 competes with the business of Gaussian, Inc. or will provide
 assistance to any competitor of Gaussian, Inc.  The licensee
 of this program is prohibited from giving any competitor of
 Gaussian, Inc. access to this program.  By using this program,
 the user acknowledges that Gaussian, Inc. is engaged in the
 business of creating and licensing software in the field of
 computational chemistry and represents and warrants to the
 licensee that it is not a competitor of Gaussian, Inc. and that
 it will not use this program in any manner prohibited above.
 ---------------------------------------------------------------
  

 Cite this work as:
 Gaussian 16, Revision A.03,
 M. J. Frisch, G. W. Trucks, H. B. Schlegel, G. E. Scuseria, 
 M. A. Robb, J. R. Cheeseman, G. Scalmani, V. Barone, 
 G. A. Petersson, H. Nakatsuji, X. Li, M. Caricato, A. V. Marenich, 
 J. Bloino, B. G. Janesko, R. Gomperts, B. Mennucci, H. P. Hratchian, 
 J. V. Ortiz, A. F. Izmaylov, J. L. Sonnenberg, D. Williams-Young, 
 F. Ding, F. Lipparini, F. Egidi, J. Goings, B. Peng, A. Petrone, 
 T. Henderson, D. Ranasinghe, V. G. Zakrzewski, J. Gao, N. Rega, 
 G. Zheng, W. Liang, M. Hada, M. Ehara, K. Toyota, R. Fukuda, 
 J. Hasegawa, M. Ishida, T. Nakajima, Y. Honda, O. Kitao, H. Nakai, 
 T. Vreven, K. Throssell, J. A. Montgomery, Jr., J. E. Peralta, 
 F. Ogliaro, M. J. Bearpark, J. J. Heyd, E. N. Brothers, K. N. Kudin, 
 V. N. Staroverov, T. A. Keith, R. Kobayashi, J. Normand, 
 K. Raghavachari, A. P. Rendell, J. C. Burant, S. S. Iyengar, 
 J. Tomasi, M. Cossi, J. M. Millam, M. Klene, C. Adamo, R. Cammi, 
 J. W. Ochterski, R. L. Martin, K. Morokuma, O. Farkas, 
 J. B. Foresman, and D. J. Fox, Gaussian, Inc., Wallingford CT, 2016.
 
 ******************************************
 Gaussian 16:  ES64L-G16RevA.03 25-Dec-2016
                30-Jun-2022 
 ******************************************
 %mem=10GB
 %chk=4_addons_C84_14_Cl22_rank_7.chk
 %nprocshared=24
 Will use up to   24 processors via shared memory.
 ------------------------------------------------
 #P opt b3lyp/6-31G(d, p) empiricaldispersion=GD3
 ------------------------------------------------
 1/18=20,19=15,26=3,38=1/1,3;
 2/9=110,12=2,17=6,18=5,40=1/2;
 3/5=1,6=6,7=101,11=2,25=1,30=1,71=1,74=-5,124=31/1,2,3;
 4//1;
 5/5=2,38=5/2;
 6/7=2,8=2,9=2,10=2,28=1/1;
 7//1,2,3,16;
 1/18=20,19=15,26=3/3(2);
 2/9=110/2;
 99//99;
 2/9=110/2;
 3/5=1,6=6,7=101,11=2,25=1,30=1,71=1,74=-5,124=31/1,2,3;
 4/5=5,16=3,69=1/1;
 5/5=2,38=5/2;
 7//1,2,3,16;
 1/18=20,19=15,26=3/3(-5);
 2/9=110/2;
 6/7=2,8=2,9=2,10=2,19=2,28=1/1;
 99/9=1/99;
 Leave Link    1 at Thu Jun 30 10:14:21 2022, MaxMem=  1342177280 cpu:               0.7 elap:               0.0
 (Enter /home/mkliu/g16/l101.exe)
 -----
 force
 -----
 Symbolic Z-matrix:
 Charge =  0 Multiplicity = 1
 C                     8.27577   18.88047   10.52532 
 C                     12.46626   20.01069   8.88742 
 C                     8.26743   26.90289   10.53432 
 C                     12.25569   25.58529   8.96208 
 C                     7.9612    18.92967   9.1554 
 C                     11.84977   19.58509   10.18404 
 C                     7.9568    26.85321   9.15061 
 C                     11.83597   26.17225   10.20244 
 C                     8.94508   19.11967   8.14613 
 C                     12.07936   20.25045   11.35191 
 C                     12.1032   25.52594   11.37593 
 C                     8.94413   26.67578   8.1538 
 C                     10.26883   19.0814   8.59874 
 C                     10.26765   26.73316   8.62713 
 C                     10.59302   18.97667   9.98308 
 C                     10.58227   26.85123   10.00226 
 C                     9.60324   18.98557   10.99382 
 C                     9.59252   26.83937   11.01109 
 C                     9.89045   19.65077   12.23398 
 C                     9.86638   26.14778   12.25856 
 C                     8.77532   20.08364   13.15084 
 C                     8.8012    25.54067   12.94774 
 C                     7.47457   20.23087   12.40266 
 C                     7.46931   25.54556   12.39405 
 C                     7.21971   19.57483   11.23949 
 C                     7.20719   26.21511   11.2313 
 C                     6.30977   20.14132   10.29681 
 C                     6.29484   25.64774   10.28883 
 C                     6.69373   19.60015   9.0323 
 C                     6.6914    26.181    9.02615 
 C                     6.3826    20.26593   7.88656 
 C                     6.38958   25.50826   7.87992 
 C                     7.31359   20.30905   6.78239 
 C                     7.32608   25.4644   6.78654 
 C                     8.6447    19.8702   6.9535 
 C                     8.6481    25.91721   6.95209 
 C                     9.70046   20.60774   6.29672 
 C                     9.7022    25.17367   6.29248 
 C                     11.03696   20.57776   6.84769 
 C                     12.74412   22.15449   7.75732 
 C                     12.70235   23.58115   7.76134 
 C                     11.02825   25.16956   6.86034 
 C                     11.30466   19.8022   7.93563 
 C                     12.89214   21.45621   8.91752 
 C                     12.88566   24.31813   8.94101 
 C                     11.30671   25.96209   7.98382 
 C                     13.1034   22.16763   10.15878 
 C                     13.12345   23.60395   10.16569 
 C                     12.78944   21.51108   11.36728 
 C                     12.80219   24.26766   11.37057 
 C                     12.38074   22.19459   12.5244 
 C                     12.36123   23.56582   12.51615 
 C                     11.11528   20.24253   12.40162 
 C                     11.12765   25.52106   12.44255 
 C                     11.41856   21.38162   13.35068 
 C                     11.28304   24.31122   13.14782 
 C                     8.98331   21.49537   13.65147 
 C                     8.95847   24.30523   13.63437 
 C                     7.75996   22.20992   13.4788 
 C                     7.7349    23.57842   13.49023 
 C                     6.88288   21.5009   12.60274 
 C                     6.84385   24.27981   12.62128 
 C                     6.10959   22.1694   11.62071 
 C                     6.09625   23.61443   11.62681 
 C                     5.80098   21.45147   10.41293 
 C                     5.7939    24.33356   10.41066 
 C                     5.47252   22.16653   9.19705 
 C                     5.47491   23.61324   9.19657 
 C                     5.66286   21.50373   7.96481 
 C                     5.66909   24.27108   7.96125 
 C                     5.9674    22.19806   6.75354 
 C                     5.97106   23.5719   6.75327 
 C                     6.99194   21.46879   6.0408 
 C                     7.0036    24.29367   6.0441 
 C                     8.0054    22.15763   5.38549 
 C                     8.0064    23.60108   5.39419 
 C                     9.34142   21.69894   5.48186 
 C                     9.35125   24.05625   5.51029 
 C                     12.06309   21.63154   6.50935 
 C                     11.8527   24.02492   6.71484 
 C                     10.18515   22.88418   5.43551 
 C                     11.42284   22.88243   5.99198 
 C                     10.17715   22.16235   13.69988 
 C                     10.18515   23.60935   13.68949 
 Cl                    8.62666   18.92004   14.53443 
 Cl                    12.19737   20.76346   14.87028 
 Cl                    13.87922   18.96639   8.43317 
 Cl                    13.27179   20.95578   5.337 
 
 ITRead=  0  0  0  0  0  0  0  0  0  0  0  0  0  0  0  0  0  0  0  0
 ITRead=  0  0  0  0  0  0  0  0  0  0  0  0  0  0  0  0  0  0  0  0
 ITRead=  0  0  0  0  0  0  0  0  0  0  0  0  0  0  0  0  0  0  0  0
 ITRead=  0  0  0  0  0  0  0  0  0  0  0  0  0  0  0  0  0  0  0  0
 ITRead=  0  0  0  0  0  0  0  0
 MicOpt= -1 -1 -1 -1 -1 -1 -1 -1 -1 -1 -1 -1 -1 -1 -1 -1 -1 -1 -1 -1
 MicOpt= -1 -1 -1 -1 -1 -1 -1 -1 -1 -1 -1 -1 -1 -1 -1 -1 -1 -1 -1 -1
 MicOpt= -1 -1 -1 -1 -1 -1 -1 -1 -1 -1 -1 -1 -1 -1 -1 -1 -1 -1 -1 -1
 MicOpt= -1 -1 -1 -1 -1 -1 -1 -1 -1 -1 -1 -1 -1 -1 -1 -1 -1 -1 -1 -1
 MicOpt= -1 -1 -1 -1 -1 -1 -1 -1
 NAtoms=     88 NQM=       88 NQMF=       0 NMMI=      0 NMMIF=      0
                NMic=       0 NMicF=      0.
                    Isotopes and Nuclear Properties:
 (Nuclear quadrupole moments (NQMom) in fm**2, nuclear magnetic moments (NMagM)
  in nuclear magnetons)

  Atom         1           2           3           4           5           6           7           8           9          10
 IAtWgt=          12          12          12          12          12          12          12          12          12          12
 AtmWgt=  12.0000000  12.0000000  12.0000000  12.0000000  12.0000000  12.0000000  12.0000000  12.0000000  12.0000000  12.0000000
 NucSpn=           0           0           0           0           0           0           0           0           0           0
 AtZEff=  -0.0000000  -0.0000000  -0.0000000  -0.0000000  -0.0000000  -0.0000000  -0.0000000  -0.0000000  -0.0000000  -0.0000000
 NQMom=    0.0000000   0.0000000   0.0000000   0.0000000   0.0000000   0.0000000   0.0000000   0.0000000   0.0000000   0.0000000
 NMagM=    0.0000000   0.0000000   0.0000000   0.0000000   0.0000000   0.0000000   0.0000000   0.0000000   0.0000000   0.0000000
 AtZNuc=   6.0000000   6.0000000   6.0000000   6.0000000   6.0000000   6.0000000   6.0000000   6.0000000   6.0000000   6.0000000

  Atom        11          12          13          14          15          16          17          18          19          20
 IAtWgt=          12          12          12          12          12          12          12          12          12          12
 AtmWgt=  12.0000000  12.0000000  12.0000000  12.0000000  12.0000000  12.0000000  12.0000000  12.0000000  12.0000000  12.0000000
 NucSpn=           0           0           0           0           0           0           0           0           0           0
 AtZEff=  -0.0000000  -0.0000000  -0.0000000  -0.0000000  -0.0000000  -0.0000000  -0.0000000  -0.0000000  -0.0000000  -0.0000000
 NQMom=    0.0000000   0.0000000   0.0000000   0.0000000   0.0000000   0.0000000   0.0000000   0.0000000   0.0000000   0.0000000
 NMagM=    0.0000000   0.0000000   0.0000000   0.0000000   0.0000000   0.0000000   0.0000000   0.0000000   0.0000000   0.0000000
 AtZNuc=   6.0000000   6.0000000   6.0000000   6.0000000   6.0000000   6.0000000   6.0000000   6.0000000   6.0000000   6.0000000

  Atom        21          22          23          24          25          26          27          28          29          30
 IAtWgt=          12          12          12          12          12          12          12          12          12          12
 AtmWgt=  12.0000000  12.0000000  12.0000000  12.0000000  12.0000000  12.0000000  12.0000000  12.0000000  12.0000000  12.0000000
 NucSpn=           0           0           0           0           0           0           0           0           0           0
 AtZEff=  -0.0000000  -0.0000000  -0.0000000  -0.0000000  -0.0000000  -0.0000000  -0.0000000  -0.0000000  -0.0000000  -0.0000000
 NQMom=    0.0000000   0.0000000   0.0000000   0.0000000   0.0000000   0.0000000   0.0000000   0.0000000   0.0000000   0.0000000
 NMagM=    0.0000000   0.0000000   0.0000000   0.0000000   0.0000000   0.0000000   0.0000000   0.0000000   0.0000000   0.0000000
 AtZNuc=   6.0000000   6.0000000   6.0000000   6.0000000   6.0000000   6.0000000   6.0000000   6.0000000   6.0000000   6.0000000

  Atom        31          32          33          34          35          36          37          38          39          40
 IAtWgt=          12          12          12          12          12          12          12          12          12          12
 AtmWgt=  12.0000000  12.0000000  12.0000000  12.0000000  12.0000000  12.0000000  12.0000000  12.0000000  12.0000000  12.0000000
 NucSpn=           0           0           0           0           0           0           0           0           0           0
 AtZEff=  -0.0000000  -0.0000000  -0.0000000  -0.0000000  -0.0000000  -0.0000000  -0.0000000  -0.0000000  -0.0000000  -0.0000000
 NQMom=    0.0000000   0.0000000   0.0000000   0.0000000   0.0000000   0.0000000   0.0000000   0.0000000   0.0000000   0.0000000
 NMagM=    0.0000000   0.0000000   0.0000000   0.0000000   0.0000000   0.0000000   0.0000000   0.0000000   0.0000000   0.0000000
 AtZNuc=   6.0000000   6.0000000   6.0000000   6.0000000   6.0000000   6.0000000   6.0000000   6.0000000   6.0000000   6.0000000

  Atom        41          42          43          44          45          46          47          48          49          50
 IAtWgt=          12          12          12          12          12          12          12          12          12          12
 AtmWgt=  12.0000000  12.0000000  12.0000000  12.0000000  12.0000000  12.0000000  12.0000000  12.0000000  12.0000000  12.0000000
 NucSpn=           0           0           0           0           0           0           0           0           0           0
 AtZEff=  -0.0000000  -0.0000000  -0.0000000  -0.0000000  -0.0000000  -0.0000000  -0.0000000  -0.0000000  -0.0000000  -0.0000000
 NQMom=    0.0000000   0.0000000   0.0000000   0.0000000   0.0000000   0.0000000   0.0000000   0.0000000   0.0000000   0.0000000
 NMagM=    0.0000000   0.0000000   0.0000000   0.0000000   0.0000000   0.0000000   0.0000000   0.0000000   0.0000000   0.0000000
 AtZNuc=   6.0000000   6.0000000   6.0000000   6.0000000   6.0000000   6.0000000   6.0000000   6.0000000   6.0000000   6.0000000

  Atom        51          52          53          54          55          56          57          58          59          60
 IAtWgt=          12          12          12          12          12          12          12          12          12          12
 AtmWgt=  12.0000000  12.0000000  12.0000000  12.0000000  12.0000000  12.0000000  12.0000000  12.0000000  12.0000000  12.0000000
 NucSpn=           0           0           0           0           0           0           0           0           0           0
 AtZEff=  -0.0000000  -0.0000000  -0.0000000  -0.0000000  -0.0000000  -0.0000000  -0.0000000  -0.0000000  -0.0000000  -0.0000000
 NQMom=    0.0000000   0.0000000   0.0000000   0.0000000   0.0000000   0.0000000   0.0000000   0.0000000   0.0000000   0.0000000
 NMagM=    0.0000000   0.0000000   0.0000000   0.0000000   0.0000000   0.0000000   0.0000000   0.0000000   0.0000000   0.0000000
 AtZNuc=   6.0000000   6.0000000   6.0000000   6.0000000   6.0000000   6.0000000   6.0000000   6.0000000   6.0000000   6.0000000

  Atom        61          62          63          64          65          66          67          68          69          70
 IAtWgt=          12          12          12          12          12          12          12          12          12          12
 AtmWgt=  12.0000000  12.0000000  12.0000000  12.0000000  12.0000000  12.0000000  12.0000000  12.0000000  12.0000000  12.0000000
 NucSpn=           0           0           0           0           0           0           0           0           0           0
 AtZEff=  -0.0000000  -0.0000000  -0.0000000  -0.0000000  -0.0000000  -0.0000000  -0.0000000  -0.0000000  -0.0000000  -0.0000000
 NQMom=    0.0000000   0.0000000   0.0000000   0.0000000   0.0000000   0.0000000   0.0000000   0.0000000   0.0000000   0.0000000
 NMagM=    0.0000000   0.0000000   0.0000000   0.0000000   0.0000000   0.0000000   0.0000000   0.0000000   0.0000000   0.0000000
 AtZNuc=   6.0000000   6.0000000   6.0000000   6.0000000   6.0000000   6.0000000   6.0000000   6.0000000   6.0000000   6.0000000

  Atom        71          72          73          74          75          76          77          78          79          80
 IAtWgt=          12          12          12          12          12          12          12          12          12          12
 AtmWgt=  12.0000000  12.0000000  12.0000000  12.0000000  12.0000000  12.0000000  12.0000000  12.0000000  12.0000000  12.0000000
 NucSpn=           0           0           0           0           0           0           0           0           0           0
 AtZEff=  -0.0000000  -0.0000000  -0.0000000  -0.0000000  -0.0000000  -0.0000000  -0.0000000  -0.0000000  -0.0000000  -0.0000000
 NQMom=    0.0000000   0.0000000   0.0000000   0.0000000   0.0000000   0.0000000   0.0000000   0.0000000   0.0000000   0.0000000
 NMagM=    0.0000000   0.0000000   0.0000000   0.0000000   0.0000000   0.0000000   0.0000000   0.0000000   0.0000000   0.0000000
 AtZNuc=   6.0000000   6.0000000   6.0000000   6.0000000   6.0000000   6.0000000   6.0000000   6.0000000   6.0000000   6.0000000

  Atom        81          82          83          84          85          86          87          88
 IAtWgt=          12          12          12          12          35          35          35          35
 AtmWgt=  12.0000000  12.0000000  12.0000000  12.0000000  34.9688527  34.9688527  34.9688527  34.9688527
 NucSpn=           0           0           0           0           3           3           3           3
 AtZEff=  -0.0000000  -0.0000000  -0.0000000  -0.0000000  -0.0000000  -0.0000000  -0.0000000  -0.0000000
 NQMom=    0.0000000   0.0000000   0.0000000   0.0000000  -8.1650000  -8.1650000  -8.1650000  -8.1650000
 NMagM=    0.0000000   0.0000000   0.0000000   0.0000000   0.8218740   0.8218740   0.8218740   0.8218740
 AtZNuc=   6.0000000   6.0000000   6.0000000   6.0000000  17.0000000  17.0000000  17.0000000  17.0000000
 Leave Link  101 at Thu Jun 30 10:14:21 2022, MaxMem=  1342177280 cpu:               6.5 elap:               0.3
 (Enter /home/mkliu/g16/l103.exe)

 GradGradGradGradGradGradGradGradGradGradGradGradGradGradGradGradGradGrad
 Berny optimization.
 Initialization pass.
                           ----------------------------
                           !    Initial Parameters    !
                           ! (Angstroms and Degrees)  !
 --------------------------                            --------------------------
 ! Name  Definition              Value          Derivative Info.                !
 --------------------------------------------------------------------------------
 ! R1    R(1,5)                  1.4064         estimate D2E/DX2                !
 ! R2    R(1,17)                 1.4116         estimate D2E/DX2                !
 ! R3    R(1,25)                 1.4517         estimate D2E/DX2                !
 ! R4    R(2,6)                  1.4975         estimate D2E/DX2                !
 ! R5    R(2,43)                 1.5161         estimate D2E/DX2                !
 ! R6    R(2,44)                 1.5073         estimate D2E/DX2                !
 ! R7    R(2,87)                 1.8148         estimate D2E/DX2                !
 ! R8    R(3,7)                  1.419          estimate D2E/DX2                !
 ! R9    R(3,18)                 1.4097         estimate D2E/DX2                !
 ! R10   R(3,26)                 1.4432         estimate D2E/DX2                !
 ! R11   R(4,8)                  1.435          estimate D2E/DX2                !
 ! R12   R(4,45)                 1.4153         estimate D2E/DX2                !
 ! R13   R(4,46)                 1.414          estimate D2E/DX2                !
 ! R14   R(5,9)                  1.4222         estimate D2E/DX2                !
 ! R15   R(5,29)                 1.4392         estimate D2E/DX2                !
 ! R16   R(6,10)                 1.3636         estimate D2E/DX2                !
 ! R17   R(6,15)                 1.4107         estimate D2E/DX2                !
 ! R18   R(7,12)                 1.4142         estimate D2E/DX2                !
 ! R19   R(7,30)                 1.4383         estimate D2E/DX2                !
 ! R20   R(8,11)                 1.3661         estimate D2E/DX2                !
 ! R21   R(8,16)                 1.4397         estimate D2E/DX2                !
 ! R22   R(9,13)                 1.3995         estimate D2E/DX2                !
 ! R23   R(9,35)                 1.4408         estimate D2E/DX2                !
 ! R24   R(10,49)                1.4469         estimate D2E/DX2                !
 ! R25   R(10,53)                1.4253         estimate D2E/DX2                !
 ! R26   R(11,50)                1.4394         estimate D2E/DX2                !
 ! R27   R(11,54)                1.4455         estimate D2E/DX2                !
 ! R28   R(12,14)                1.4068         estimate D2E/DX2                !
 ! R29   R(12,36)                1.4516         estimate D2E/DX2                !
 ! R30   R(13,15)                1.4256         estimate D2E/DX2                !
 ! R31   R(13,43)                1.4256         estimate D2E/DX2                !
 ! R32   R(14,16)                1.4156         estimate D2E/DX2                !
 ! R33   R(14,46)                1.445          estimate D2E/DX2                !
 ! R34   R(15,17)                1.4147         estimate D2E/DX2                !
 ! R35   R(16,18)                1.4133         estimate D2E/DX2                !
 ! R36   R(17,19)                1.4363         estimate D2E/DX2                !
 ! R37   R(18,20)                1.4524         estimate D2E/DX2                !
 ! R38   R(19,21)                1.5072         estimate D2E/DX2                !
 ! R39   R(19,53)                1.3706         estimate D2E/DX2                !
 ! R40   R(20,22)                1.4065         estimate D2E/DX2                !
 ! R41   R(20,54)                1.4204         estimate D2E/DX2                !
 ! R42   R(21,23)                1.5078         estimate D2E/DX2                !
 ! R43   R(21,57)                1.5122         estimate D2E/DX2                !
 ! R44   R(21,85)                1.8139         estimate D2E/DX2                !
 ! R45   R(22,24)                1.4424         estimate D2E/DX2                !
 ! R46   R(22,58)                1.4221         estimate D2E/DX2                !
 ! R47   R(23,25)                1.3595         estimate D2E/DX2                !
 ! R48   R(23,61)                1.4153         estimate D2E/DX2                !
 ! R49   R(24,26)                1.3671         estimate D2E/DX2                !
 ! R50   R(24,62)                1.43           estimate D2E/DX2                !
 ! R51   R(25,27)                1.4274         estimate D2E/DX2                !
 ! R52   R(26,28)                1.4292         estimate D2E/DX2                !
 ! R53   R(27,29)                1.428          estimate D2E/DX2                !
 ! R54   R(27,65)                1.4103         estimate D2E/DX2                !
 ! R55   R(28,30)                1.4269         estimate D2E/DX2                !
 ! R56   R(28,66)                1.4117         estimate D2E/DX2                !
 ! R57   R(29,31)                1.3612         estimate D2E/DX2                !
 ! R58   R(30,32)                1.3629         estimate D2E/DX2                !
 ! R59   R(31,33)                1.4449         estimate D2E/DX2                !
 ! R60   R(31,69)                1.434          estimate D2E/DX2                !
 ! R61   R(32,34)                1.4403         estimate D2E/DX2                !
 ! R62   R(32,70)                1.434          estimate D2E/DX2                !
 ! R63   R(33,35)                1.412          estimate D2E/DX2                !
 ! R64   R(33,73)                1.4136         estimate D2E/DX2                !
 ! R65   R(34,36)                1.4072         estimate D2E/DX2                !
 ! R66   R(34,74)                1.4233         estimate D2E/DX2                !
 ! R67   R(35,37)                1.4457         estimate D2E/DX2                !
 ! R68   R(36,38)                1.4488         estimate D2E/DX2                !
 ! R69   R(37,39)                1.4459         estimate D2E/DX2                !
 ! R70   R(37,77)                1.4084         estimate D2E/DX2                !
 ! R71   R(38,42)                1.4425         estimate D2E/DX2                !
 ! R72   R(38,78)                1.4084         estimate D2E/DX2                !
 ! R73   R(39,43)                1.3626         estimate D2E/DX2                !
 ! R74   R(39,79)                1.5093         estimate D2E/DX2                !
 ! R75   R(40,41)                1.4273         estimate D2E/DX2                !
 ! R76   R(40,44)                1.3622         estimate D2E/DX2                !
 ! R77   R(40,79)                1.5148         estimate D2E/DX2                !
 ! R78   R(41,45)                1.403          estimate D2E/DX2                !
 ! R79   R(41,80)                1.4192         estimate D2E/DX2                !
 ! R80   R(42,46)                1.4028         estimate D2E/DX2                !
 ! R81   R(42,80)                1.4181         estimate D2E/DX2                !
 ! R82   R(44,47)                1.4462         estimate D2E/DX2                !
 ! R83   R(45,48)                1.4375         estimate D2E/DX2                !
 ! R84   R(47,48)                1.4365         estimate D2E/DX2                !
 ! R85   R(47,49)                1.4107         estimate D2E/DX2                !
 ! R86   R(48,50)                1.4126         estimate D2E/DX2                !
 ! R87   R(49,51)                1.4047         estimate D2E/DX2                !
 ! R88   R(50,52)                1.414          estimate D2E/DX2                !
 ! R89   R(51,52)                1.3714         estimate D2E/DX2                !
 ! R90   R(51,55)                1.5065         estimate D2E/DX2                !
 ! R91   R(52,56)                1.455          estimate D2E/DX2                !
 ! R92   R(53,55)                1.5133         estimate D2E/DX2                !
 ! R93   R(54,56)                1.409          estimate D2E/DX2                !
 ! R94   R(55,83)                1.5075         estimate D2E/DX2                !
 ! R95   R(55,86)                1.816          estimate D2E/DX2                !
 ! R96   R(56,84)                1.4112         estimate D2E/DX2                !
 ! R97   R(57,59)                1.4272         estimate D2E/DX2                !
 ! R98   R(57,83)                1.3684         estimate D2E/DX2                !
 ! R99   R(58,60)                1.4304         estimate D2E/DX2                !
 ! R100  R(58,84)                1.4114         estimate D2E/DX2                !
 ! R101  R(59,60)                1.3688         estimate D2E/DX2                !
 ! R102  R(59,61)                1.4281         estimate D2E/DX2                !
 ! R103  R(60,62)                1.4286         estimate D2E/DX2                !
 ! R104  R(61,63)                1.4175         estimate D2E/DX2                !
 ! R105  R(62,64)                1.4109         estimate D2E/DX2                !
 ! R106  R(63,64)                1.4451         estimate D2E/DX2                !
 ! R107  R(63,65)                1.4385         estimate D2E/DX2                !
 ! R108  R(64,66)                1.4449         estimate D2E/DX2                !
 ! R109  R(65,67)                1.4483         estimate D2E/DX2                !
 ! R110  R(66,68)                1.4473         estimate D2E/DX2                !
 ! R111  R(67,68)                1.4467         estimate D2E/DX2                !
 ! R112  R(67,69)                1.4121         estimate D2E/DX2                !
 ! R113  R(68,70)                1.413          estimate D2E/DX2                !
 ! R114  R(69,71)                1.429          estimate D2E/DX2                !
 ! R115  R(70,72)                1.428          estimate D2E/DX2                !
 ! R116  R(71,72)                1.3739         estimate D2E/DX2                !
 ! R117  R(71,73)                1.4455         estimate D2E/DX2                !
 ! R118  R(72,74)                1.4457         estimate D2E/DX2                !
 ! R119  R(73,75)                1.3896         estimate D2E/DX2                !
 ! R120  R(74,76)                1.3812         estimate D2E/DX2                !
 ! R121  R(75,76)                1.4435         estimate D2E/DX2                !
 ! R122  R(75,77)                1.4159         estimate D2E/DX2                !
 ! R123  R(76,78)                1.4245         estimate D2E/DX2                !
 ! R124  R(77,81)                1.4556         estimate D2E/DX2                !
 ! R125  R(78,81)                1.4404         estimate D2E/DX2                !
 ! R126  R(79,82)                1.4974         estimate D2E/DX2                !
 ! R127  R(79,88)                1.8144         estimate D2E/DX2                !
 ! R128  R(80,82)                1.4187         estimate D2E/DX2                !
 ! R129  R(81,82)                1.357          estimate D2E/DX2                !
 ! R130  R(83,84)                1.4471         estimate D2E/DX2                !
 ! A1    A(5,1,17)             122.0725         estimate D2E/DX2                !
 ! A2    A(5,1,25)             107.4418         estimate D2E/DX2                !
 ! A3    A(17,1,25)            119.0264         estimate D2E/DX2                !
 ! A4    A(6,2,43)             100.8983         estimate D2E/DX2                !
 ! A5    A(6,2,44)             111.8146         estimate D2E/DX2                !
 ! A6    A(6,2,87)             111.9453         estimate D2E/DX2                !
 ! A7    A(43,2,44)            111.1554         estimate D2E/DX2                !
 ! A8    A(43,2,87)            111.1156         estimate D2E/DX2                !
 ! A9    A(44,2,87)            109.6875         estimate D2E/DX2                !
 ! A10   A(7,3,18)             122.2754         estimate D2E/DX2                !
 ! A11   A(7,3,26)             107.0628         estimate D2E/DX2                !
 ! A12   A(18,3,26)            120.3803         estimate D2E/DX2                !
 ! A13   A(8,4,45)             120.6167         estimate D2E/DX2                !
 ! A14   A(8,4,46)             107.0197         estimate D2E/DX2                !
 ! A15   A(45,4,46)            121.8037         estimate D2E/DX2                !
 ! A16   A(1,5,9)              122.7624         estimate D2E/DX2                !
 ! A17   A(1,5,29)             107.2532         estimate D2E/DX2                !
 ! A18   A(9,5,29)             119.0988         estimate D2E/DX2                !
 ! A19   A(2,6,10)             122.249          estimate D2E/DX2                !
 ! A20   A(2,6,15)             111.4696         estimate D2E/DX2                !
 ! A21   A(10,6,15)            118.8465         estimate D2E/DX2                !
 ! A22   A(3,7,12)             122.6078         estimate D2E/DX2                !
 ! A23   A(3,7,30)             107.0576         estimate D2E/DX2                !
 ! A24   A(12,7,30)            119.6446         estimate D2E/DX2                !
 ! A25   A(4,8,11)             119.4568         estimate D2E/DX2                !
 ! A26   A(4,8,16)             109.1116         estimate D2E/DX2                !
 ! A27   A(11,8,16)            120.8571         estimate D2E/DX2                !
 ! A28   A(5,9,13)             114.9095         estimate D2E/DX2                !
 ! A29   A(5,9,35)             120.8488         estimate D2E/DX2                !
 ! A30   A(13,9,35)            118.6294         estimate D2E/DX2                !
 ! A31   A(6,10,49)            121.121          estimate D2E/DX2                !
 ! A32   A(6,10,53)            120.9435         estimate D2E/DX2                !
 ! A33   A(49,10,53)           109.2062         estimate D2E/DX2                !
 ! A34   A(8,11,50)            120.3563         estimate D2E/DX2                !
 ! A35   A(8,11,54)            120.228          estimate D2E/DX2                !
 ! A36   A(50,11,54)           109.1188         estimate D2E/DX2                !
 ! A37   A(7,12,14)            114.4915         estimate D2E/DX2                !
 ! A38   A(7,12,36)            120.4448         estimate D2E/DX2                !
 ! A39   A(14,12,36)           119.4532         estimate D2E/DX2                !
 ! A40   A(9,13,15)            122.0817         estimate D2E/DX2                !
 ! A41   A(9,13,43)            121.5351         estimate D2E/DX2                !
 ! A42   A(15,13,43)           108.8806         estimate D2E/DX2                !
 ! A43   A(12,14,16)           122.6392         estimate D2E/DX2                !
 ! A44   A(12,14,46)           120.3282         estimate D2E/DX2                !
 ! A45   A(16,14,46)           108.4915         estimate D2E/DX2                !
 ! A46   A(6,15,13)            108.0126         estimate D2E/DX2                !
 ! A47   A(6,15,17)            121.2528         estimate D2E/DX2                !
 ! A48   A(13,15,17)           122.29           estimate D2E/DX2                !
 ! A49   A(8,16,14)            106.8142         estimate D2E/DX2                !
 ! A50   A(8,16,18)            120.438          estimate D2E/DX2                !
 ! A51   A(14,16,18)           122.4831         estimate D2E/DX2                !
 ! A52   A(1,17,15)            114.8564         estimate D2E/DX2                !
 ! A53   A(1,17,19)            120.6026         estimate D2E/DX2                !
 ! A54   A(15,17,19)           118.679          estimate D2E/DX2                !
 ! A55   A(3,18,16)            114.6127         estimate D2E/DX2                !
 ! A56   A(3,18,20)            119.2873         estimate D2E/DX2                !
 ! A57   A(16,18,20)           119.0142         estimate D2E/DX2                !
 ! A58   A(17,19,21)           120.6855         estimate D2E/DX2                !
 ! A59   A(17,19,53)           118.9646         estimate D2E/DX2                !
 ! A60   A(21,19,53)           117.5677         estimate D2E/DX2                !
 ! A61   A(18,20,22)           118.9205         estimate D2E/DX2                !
 ! A62   A(18,20,54)           119.2621         estimate D2E/DX2                !
 ! A63   A(22,20,54)           114.7449         estimate D2E/DX2                !
 ! A64   A(19,21,23)           111.3753         estimate D2E/DX2                !
 ! A65   A(19,21,57)           111.5769         estimate D2E/DX2                !
 ! A66   A(19,21,85)           109.9018         estimate D2E/DX2                !
 ! A67   A(23,21,57)           101.0559         estimate D2E/DX2                !
 ! A68   A(23,21,85)           111.7418         estimate D2E/DX2                !
 ! A69   A(57,21,85)           110.9531         estimate D2E/DX2                !
 ! A70   A(20,22,24)           120.648          estimate D2E/DX2                !
 ! A71   A(20,22,58)           121.8574         estimate D2E/DX2                !
 ! A72   A(24,22,58)           106.8818         estimate D2E/DX2                !
 ! A73   A(21,23,25)           122.6259         estimate D2E/DX2                !
 ! A74   A(21,23,61)           112.2179         estimate D2E/DX2                !
 ! A75   A(25,23,61)           118.3984         estimate D2E/DX2                !
 ! A76   A(22,24,26)           120.3438         estimate D2E/DX2                !
 ! A77   A(22,24,62)           109.869          estimate D2E/DX2                !
 ! A78   A(26,24,62)           118.9985         estimate D2E/DX2                !
 ! A79   A(1,25,23)            121.0196         estimate D2E/DX2                !
 ! A80   A(1,25,27)            109.1883         estimate D2E/DX2                !
 ! A81   A(23,25,27)           119.5391         estimate D2E/DX2                !
 ! A82   A(3,26,24)            120.2175         estimate D2E/DX2                !
 ! A83   A(3,26,28)            109.8578         estimate D2E/DX2                !
 ! A84   A(24,26,28)           119.2643         estimate D2E/DX2                !
 ! A85   A(25,27,29)           105.2471         estimate D2E/DX2                !
 ! A86   A(25,27,65)           122.9766         estimate D2E/DX2                !
 ! A87   A(29,27,65)           121.4649         estimate D2E/DX2                !
 ! A88   A(26,28,30)           104.9383         estimate D2E/DX2                !
 ! A89   A(26,28,66)           122.6286         estimate D2E/DX2                !
 ! A90   A(30,28,66)           121.527          estimate D2E/DX2                !
 ! A91   A(5,29,27)            109.7316         estimate D2E/DX2                !
 ! A92   A(5,29,31)            120.0781         estimate D2E/DX2                !
 ! A93   A(27,29,31)           119.9024         estimate D2E/DX2                !
 ! A94   A(7,30,28)            110.0365         estimate D2E/DX2                !
 ! A95   A(7,30,32)            119.8882         estimate D2E/DX2                !
 ! A96   A(28,30,32)           119.8825         estimate D2E/DX2                !
 ! A97   A(29,31,33)           120.7007         estimate D2E/DX2                !
 ! A98   A(29,31,69)           119.4064         estimate D2E/DX2                !
 ! A99   A(33,31,69)           109.8362         estimate D2E/DX2                !
 ! A100  A(30,32,34)           120.6298         estimate D2E/DX2                !
 ! A101  A(30,32,70)           119.3025         estimate D2E/DX2                !
 ! A102  A(34,32,70)           110.0886         estimate D2E/DX2                !
 ! A103  A(31,33,35)           120.3662         estimate D2E/DX2                !
 ! A104  A(31,33,73)           106.1864         estimate D2E/DX2                !
 ! A105  A(35,33,73)           122.2119         estimate D2E/DX2                !
 ! A106  A(32,34,36)           120.7811         estimate D2E/DX2                !
 ! A107  A(32,34,74)           105.8856         estimate D2E/DX2                !
 ! A108  A(36,34,74)           122.6091         estimate D2E/DX2                !
 ! A109  A(9,35,33)            117.3068         estimate D2E/DX2                !
 ! A110  A(9,35,37)            119.3116         estimate D2E/DX2                !
 ! A111  A(33,35,37)           118.349          estimate D2E/DX2                !
 ! A112  A(12,36,34)           117.2021         estimate D2E/DX2                !
 ! A113  A(12,36,38)           119.7827         estimate D2E/DX2                !
 ! A114  A(34,36,38)           117.699          estimate D2E/DX2                !
 ! A115  A(35,37,39)           119.4285         estimate D2E/DX2                !
 ! A116  A(35,37,77)           118.1607         estimate D2E/DX2                !
 ! A117  A(39,37,77)           118.1743         estimate D2E/DX2                !
 ! A118  A(36,38,42)           119.41           estimate D2E/DX2                !
 ! A119  A(36,38,78)           118.602          estimate D2E/DX2                !
 ! A120  A(42,38,78)           116.4507         estimate D2E/DX2                !
 ! A121  A(37,39,43)           119.8428         estimate D2E/DX2                !
 ! A122  A(37,39,79)           121.9072         estimate D2E/DX2                !
 ! A123  A(43,39,79)           116.2831         estimate D2E/DX2                !
 ! A124  A(41,40,44)           120.8755         estimate D2E/DX2                !
 ! A125  A(41,40,79)           109.526          estimate D2E/DX2                !
 ! A126  A(44,40,79)           124.999          estimate D2E/DX2                !
 ! A127  A(40,41,45)           121.5744         estimate D2E/DX2                !
 ! A128  A(40,41,80)           109.1481         estimate D2E/DX2                !
 ! A129  A(45,41,80)           122.2766         estimate D2E/DX2                !
 ! A130  A(38,42,46)           119.7447         estimate D2E/DX2                !
 ! A131  A(38,42,80)           119.7573         estimate D2E/DX2                !
 ! A132  A(46,42,80)           115.0104         estimate D2E/DX2                !
 ! A133  A(2,43,13)            109.5251         estimate D2E/DX2                !
 ! A134  A(2,43,39)            124.9923         estimate D2E/DX2                !
 ! A135  A(13,43,39)           121.0925         estimate D2E/DX2                !
 ! A136  A(2,44,40)            116.3532         estimate D2E/DX2                !
 ! A137  A(2,44,47)            122.0186         estimate D2E/DX2                !
 ! A138  A(40,44,47)           119.6521         estimate D2E/DX2                !
 ! A139  A(4,45,41)            115.13           estimate D2E/DX2                !
 ! A140  A(4,45,48)            120.3822         estimate D2E/DX2                !
 ! A141  A(41,45,48)           118.4888         estimate D2E/DX2                !
 ! A142  A(4,46,14)            108.4675         estimate D2E/DX2                !
 ! A143  A(4,46,42)            122.4615         estimate D2E/DX2                !
 ! A144  A(14,46,42)           121.0164         estimate D2E/DX2                !
 ! A145  A(44,47,48)           119.8702         estimate D2E/DX2                !
 ! A146  A(44,47,49)           118.2822         estimate D2E/DX2                !
 ! A147  A(48,47,49)           117.6674         estimate D2E/DX2                !
 ! A148  A(45,48,47)           119.3639         estimate D2E/DX2                !
 ! A149  A(45,48,50)           117.1053         estimate D2E/DX2                !
 ! A150  A(47,48,50)           118.081          estimate D2E/DX2                !
 ! A151  A(10,49,47)           120.3709         estimate D2E/DX2                !
 ! A152  A(10,49,51)           106.8521         estimate D2E/DX2                !
 ! A153  A(47,49,51)           122.9547         estimate D2E/DX2                !
 ! A154  A(11,50,48)           121.6236         estimate D2E/DX2                !
 ! A155  A(11,50,52)           106.227          estimate D2E/DX2                !
 ! A156  A(48,50,52)           121.9213         estimate D2E/DX2                !
 ! A157  A(49,51,52)           119.0593         estimate D2E/DX2                !
 ! A158  A(49,51,55)           112.028          estimate D2E/DX2                !
 ! A159  A(52,51,55)           122.2628         estimate D2E/DX2                !
 ! A160  A(50,52,51)           119.784          estimate D2E/DX2                !
 ! A161  A(50,52,56)           109.1793         estimate D2E/DX2                !
 ! A162  A(51,52,56)           121.343          estimate D2E/DX2                !
 ! A163  A(10,53,19)           121.118          estimate D2E/DX2                !
 ! A164  A(10,53,55)           108.7922         estimate D2E/DX2                !
 ! A165  A(19,53,55)           125.5053         estimate D2E/DX2                !
 ! A166  A(11,54,20)           120.1473         estimate D2E/DX2                !
 ! A167  A(11,54,56)           107.327          estimate D2E/DX2                !
 ! A168  A(20,54,56)           122.7957         estimate D2E/DX2                !
 ! A169  A(51,55,53)           100.966          estimate D2E/DX2                !
 ! A170  A(51,55,83)           111.9332         estimate D2E/DX2                !
 ! A171  A(51,55,86)           111.6383         estimate D2E/DX2                !
 ! A172  A(53,55,83)           111.7194         estimate D2E/DX2                !
 ! A173  A(53,55,86)           110.7628         estimate D2E/DX2                !
 ! A174  A(83,55,86)           109.6098         estimate D2E/DX2                !
 ! A175  A(52,56,54)           107.7162         estimate D2E/DX2                !
 ! A176  A(52,56,84)           119.2321         estimate D2E/DX2                !
 ! A177  A(54,56,84)           122.2352         estimate D2E/DX2                !
 ! A178  A(21,57,59)           108.0254         estimate D2E/DX2                !
 ! A179  A(21,57,83)           125.9254         estimate D2E/DX2                !
 ! A180  A(59,57,83)           120.5356         estimate D2E/DX2                !
 ! A181  A(22,58,60)           107.3462         estimate D2E/DX2                !
 ! A182  A(22,58,84)           122.9079         estimate D2E/DX2                !
 ! A183  A(60,58,84)           119.792          estimate D2E/DX2                !
 ! A184  A(57,59,60)           121.0132         estimate D2E/DX2                !
 ! A185  A(57,59,61)           110.6143         estimate D2E/DX2                !
 ! A186  A(60,59,61)           119.3574         estimate D2E/DX2                !
 ! A187  A(58,60,59)           119.5497         estimate D2E/DX2                !
 ! A188  A(58,60,62)           110.2032         estimate D2E/DX2                !
 ! A189  A(59,60,62)           119.8145         estimate D2E/DX2                !
 ! A190  A(23,61,59)           105.9909         estimate D2E/DX2                !
 ! A191  A(23,61,63)           123.5954         estimate D2E/DX2                !
 ! A192  A(59,61,63)           121.7287         estimate D2E/DX2                !
 ! A193  A(24,62,60)           104.9754         estimate D2E/DX2                !
 ! A194  A(24,62,64)           122.492          estimate D2E/DX2                !
 ! A195  A(60,62,64)           121.8484         estimate D2E/DX2                !
 ! A196  A(61,63,64)           118.2745         estimate D2E/DX2                !
 ! A197  A(61,63,65)           117.6026         estimate D2E/DX2                !
 ! A198  A(64,63,65)           120.0402         estimate D2E/DX2                !
 ! A199  A(62,64,63)           118.0125         estimate D2E/DX2                !
 ! A200  A(62,64,66)           117.9979         estimate D2E/DX2                !
 ! A201  A(63,64,66)           119.7408         estimate D2E/DX2                !
 ! A202  A(27,65,63)           117.089          estimate D2E/DX2                !
 ! A203  A(27,65,67)           118.1233         estimate D2E/DX2                !
 ! A204  A(63,65,67)           120.4712         estimate D2E/DX2                !
 ! A205  A(28,66,64)           117.4987         estimate D2E/DX2                !
 ! A206  A(28,66,68)           117.9791         estimate D2E/DX2                !
 ! A207  A(64,66,68)           120.2975         estimate D2E/DX2                !
 ! A208  A(65,67,68)           119.5792         estimate D2E/DX2                !
 ! A209  A(65,67,69)           118.053          estimate D2E/DX2                !
 ! A210  A(68,67,69)           117.9611         estimate D2E/DX2                !
 ! A211  A(66,68,67)           119.8542         estimate D2E/DX2                !
 ! A212  A(66,68,70)           118.1247         estimate D2E/DX2                !
 ! A213  A(67,68,70)           117.7808         estimate D2E/DX2                !
 ! A214  A(31,69,67)           121.3623         estimate D2E/DX2                !
 ! A215  A(31,69,71)           105.4381         estimate D2E/DX2                !
 ! A216  A(67,69,71)           122.7073         estimate D2E/DX2                !
 ! A217  A(32,70,68)           121.3533         estimate D2E/DX2                !
 ! A218  A(32,70,72)           105.5568         estimate D2E/DX2                !
 ! A219  A(68,70,72)           122.729          estimate D2E/DX2                !
 ! A220  A(69,71,72)           119.119          estimate D2E/DX2                !
 ! A221  A(69,71,73)           108.8965         estimate D2E/DX2                !
 ! A222  A(72,71,73)           120.1666         estimate D2E/DX2                !
 ! A223  A(70,72,71)           119.2669         estimate D2E/DX2                !
 ! A224  A(70,72,74)           108.756          estimate D2E/DX2                !
 ! A225  A(71,72,74)           120.0831         estimate D2E/DX2                !
 ! A226  A(33,73,71)           108.4511         estimate D2E/DX2                !
 ! A227  A(33,73,75)           119.2165         estimate D2E/DX2                !
 ! A228  A(71,73,75)           119.9567         estimate D2E/DX2                !
 ! A229  A(34,74,72)           108.4573         estimate D2E/DX2                !
 ! A230  A(34,74,76)           119.5647         estimate D2E/DX2                !
 ! A231  A(72,74,76)           119.9357         estimate D2E/DX2                !
 ! A232  A(73,75,76)           119.5617         estimate D2E/DX2                !
 ! A233  A(73,75,77)           119.7028         estimate D2E/DX2                !
 ! A234  A(76,75,77)           108.8384         estimate D2E/DX2                !
 ! A235  A(74,76,75)           120.2498         estimate D2E/DX2                !
 ! A236  A(74,76,78)           119.1344         estimate D2E/DX2                !
 ! A237  A(75,76,78)           108.7029         estimate D2E/DX2                !
 ! A238  A(37,77,75)           122.0683         estimate D2E/DX2                !
 ! A239  A(37,77,81)           120.1006         estimate D2E/DX2                !
 ! A240  A(75,77,81)           106.3195         estimate D2E/DX2                !
 ! A241  A(38,78,76)           122.2773         estimate D2E/DX2                !
 ! A242  A(38,78,81)           122.0167         estimate D2E/DX2                !
 ! A243  A(76,78,81)           106.399          estimate D2E/DX2                !
 ! A244  A(39,79,40)           111.224          estimate D2E/DX2                !
 ! A245  A(39,79,82)           111.7159         estimate D2E/DX2                !
 ! A246  A(39,79,88)           109.7387         estimate D2E/DX2                !
 ! A247  A(40,79,82)           100.864          estimate D2E/DX2                !
 ! A248  A(40,79,88)           111.186          estimate D2E/DX2                !
 ! A249  A(82,79,88)           111.8828         estimate D2E/DX2                !
 ! A250  A(41,80,42)           121.6546         estimate D2E/DX2                !
 ! A251  A(41,80,82)           107.7773         estimate D2E/DX2                !
 ! A252  A(42,80,82)           121.7459         estimate D2E/DX2                !
 ! A253  A(77,81,78)           108.9865         estimate D2E/DX2                !
 ! A254  A(77,81,82)           120.9675         estimate D2E/DX2                !
 ! A255  A(78,81,82)           120.5168         estimate D2E/DX2                !
 ! A256  A(79,82,80)           111.5392         estimate D2E/DX2                !
 ! A257  A(79,82,81)           122.1896         estimate D2E/DX2                !
 ! A258  A(80,82,81)           118.9635         estimate D2E/DX2                !
 ! A259  A(55,83,57)           117.2463         estimate D2E/DX2                !
 ! A260  A(55,83,84)           120.7747         estimate D2E/DX2                !
 ! A261  A(57,83,84)           119.4701         estimate D2E/DX2                !
 ! A262  A(56,84,58)           114.5802         estimate D2E/DX2                !
 ! A263  A(56,84,83)           120.2915         estimate D2E/DX2                !
 ! A264  A(58,84,83)           119.2423         estimate D2E/DX2                !
 ! D1    D(17,1,5,9)            -1.5354         estimate D2E/DX2                !
 ! D2    D(17,1,5,29)         -145.1866         estimate D2E/DX2                !
 ! D3    D(25,1,5,9)           141.3166         estimate D2E/DX2                !
 ! D4    D(25,1,5,29)           -2.3346         estimate D2E/DX2                !
 ! D5    D(5,1,17,15)           -7.4396         estimate D2E/DX2                !
 ! D6    D(5,1,17,19)          145.2436         estimate D2E/DX2                !
 ! D7    D(25,1,17,15)        -146.226          estimate D2E/DX2                !
 ! D8    D(25,1,17,19)           6.4572         estimate D2E/DX2                !
 ! D9    D(5,1,25,23)         -149.429          estimate D2E/DX2                !
 ! D10   D(5,1,25,27)           -4.5043         estimate D2E/DX2                !
 ! D11   D(17,1,25,23)          -5.2473         estimate D2E/DX2                !
 ! D12   D(17,1,25,27)         139.6775         estimate D2E/DX2                !
 ! D13   D(43,2,6,10)         -139.6471         estimate D2E/DX2                !
 ! D14   D(43,2,6,15)            9.7983         estimate D2E/DX2                !
 ! D15   D(44,2,6,10)          -21.4216         estimate D2E/DX2                !
 ! D16   D(44,2,6,15)          128.0238         estimate D2E/DX2                !
 ! D17   D(87,2,6,10)          102.1169         estimate D2E/DX2                !
 ! D18   D(87,2,6,15)         -108.4377         estimate D2E/DX2                !
 ! D19   D(6,2,43,13)          -10.899          estimate D2E/DX2                !
 ! D20   D(6,2,43,39)          145.6021         estimate D2E/DX2                !
 ! D21   D(44,2,43,13)        -129.603          estimate D2E/DX2                !
 ! D22   D(44,2,43,39)          26.898          estimate D2E/DX2                !
 ! D23   D(87,2,43,13)         107.939          estimate D2E/DX2                !
 ! D24   D(87,2,43,39)         -95.56           estimate D2E/DX2                !
 ! D25   D(6,2,44,40)         -144.0526         estimate D2E/DX2                !
 ! D26   D(6,2,44,47)           19.8816         estimate D2E/DX2                !
 ! D27   D(43,2,44,40)         -32.1357         estimate D2E/DX2                !
 ! D28   D(43,2,44,47)         131.7984         estimate D2E/DX2                !
 ! D29   D(87,2,44,40)          91.1443         estimate D2E/DX2                !
 ! D30   D(87,2,44,47)        -104.9215         estimate D2E/DX2                !
 ! D31   D(18,3,7,12)            2.9477         estimate D2E/DX2                !
 ! D32   D(18,3,7,30)          147.0899         estimate D2E/DX2                !
 ! D33   D(26,3,7,12)         -142.0917         estimate D2E/DX2                !
 ! D34   D(26,3,7,30)            2.0505         estimate D2E/DX2                !
 ! D35   D(7,3,18,16)            5.7232         estimate D2E/DX2                !
 ! D36   D(7,3,18,20)         -144.5763         estimate D2E/DX2                !
 ! D37   D(26,3,18,16)         146.3046         estimate D2E/DX2                !
 ! D38   D(26,3,18,20)          -3.9949         estimate D2E/DX2                !
 ! D39   D(7,3,26,24)          148.7868         estimate D2E/DX2                !
 ! D40   D(7,3,26,28)            4.5127         estimate D2E/DX2                !
 ! D41   D(18,3,26,24)           2.9527         estimate D2E/DX2                !
 ! D42   D(18,3,26,28)        -141.3214         estimate D2E/DX2                !
 ! D43   D(45,4,8,11)            2.9665         estimate D2E/DX2                !
 ! D44   D(45,4,8,16)         -142.029          estimate D2E/DX2                !
 ! D45   D(46,4,8,11)          148.2098         estimate D2E/DX2                !
 ! D46   D(46,4,8,16)            3.2142         estimate D2E/DX2                !
 ! D47   D(8,4,45,41)          151.8781         estimate D2E/DX2                !
 ! D48   D(8,4,45,48)           -0.4637         estimate D2E/DX2                !
 ! D49   D(46,4,45,41)          11.7767         estimate D2E/DX2                !
 ! D50   D(46,4,45,48)        -140.5651         estimate D2E/DX2                !
 ! D51   D(8,4,46,14)           -2.4712         estimate D2E/DX2                !
 ! D52   D(8,4,46,42)         -151.3755         estimate D2E/DX2                !
 ! D53   D(45,4,46,14)         142.2683         estimate D2E/DX2                !
 ! D54   D(45,4,46,42)          -6.636          estimate D2E/DX2                !
 ! D55   D(1,5,9,13)             7.904          estimate D2E/DX2                !
 ! D56   D(1,5,9,35)          -145.3116         estimate D2E/DX2                !
 ! D57   D(29,5,9,13)          147.5286         estimate D2E/DX2                !
 ! D58   D(29,5,9,35)           -5.687          estimate D2E/DX2                !
 ! D59   D(1,5,29,27)            8.4207         estimate D2E/DX2                !
 ! D60   D(1,5,29,31)          153.4824         estimate D2E/DX2                !
 ! D61   D(9,5,29,27)         -136.8005         estimate D2E/DX2                !
 ! D62   D(9,5,29,31)            8.2612         estimate D2E/DX2                !
 ! D63   D(2,6,10,49)            8.4023         estimate D2E/DX2                !
 ! D64   D(2,6,10,53)          152.4976         estimate D2E/DX2                !
 ! D65   D(15,6,10,49)        -138.907          estimate D2E/DX2                !
 ! D66   D(15,6,10,53)           5.1884         estimate D2E/DX2                !
 ! D67   D(2,6,15,13)           -5.2943         estimate D2E/DX2                !
 ! D68   D(2,6,15,17)         -153.9904         estimate D2E/DX2                !
 ! D69   D(10,6,15,13)         145.3096         estimate D2E/DX2                !
 ! D70   D(10,6,15,17)          -3.3865         estimate D2E/DX2                !
 ! D71   D(3,7,12,14)           -8.1354         estimate D2E/DX2                !
 ! D72   D(3,7,12,36)          145.3083         estimate D2E/DX2                !
 ! D73   D(30,7,12,14)        -148.0186         estimate D2E/DX2                !
 ! D74   D(30,7,12,36)           5.425          estimate D2E/DX2                !
 ! D75   D(3,7,30,28)           -7.9641         estimate D2E/DX2                !
 ! D76   D(3,7,30,32)         -153.1773         estimate D2E/DX2                !
 ! D77   D(12,7,30,28)         137.4417         estimate D2E/DX2                !
 ! D78   D(12,7,30,32)          -7.7714         estimate D2E/DX2                !
 ! D79   D(4,8,11,50)            0.1182         estimate D2E/DX2                !
 ! D80   D(4,8,11,54)         -141.193          estimate D2E/DX2                !
 ! D81   D(16,8,11,50)         140.9649         estimate D2E/DX2                !
 ! D82   D(16,8,11,54)          -0.3463         estimate D2E/DX2                !
 ! D83   D(4,8,16,14)           -2.6995         estimate D2E/DX2                !
 ! D84   D(4,8,16,18)          143.2231         estimate D2E/DX2                !
 ! D85   D(11,8,16,14)        -147.1192         estimate D2E/DX2                !
 ! D86   D(11,8,16,18)          -1.1965         estimate D2E/DX2                !
 ! D87   D(5,9,13,15)           -5.2199         estimate D2E/DX2                !
 ! D88   D(5,9,13,43)         -151.6031         estimate D2E/DX2                !
 ! D89   D(35,9,13,15)         148.6271         estimate D2E/DX2                !
 ! D90   D(35,9,13,43)           2.2439         estimate D2E/DX2                !
 ! D91   D(5,9,35,33)           -5.0627         estimate D2E/DX2                !
 ! D92   D(5,9,35,37)          149.4555         estimate D2E/DX2                !
 ! D93   D(13,9,35,33)        -157.3107         estimate D2E/DX2                !
 ! D94   D(13,9,35,37)          -2.7925         estimate D2E/DX2                !
 ! D95   D(6,10,49,47)           8.5127         estimate D2E/DX2                !
 ! D96   D(6,10,49,51)         155.264          estimate D2E/DX2                !
 ! D97   D(53,10,49,47)       -139.3047         estimate D2E/DX2                !
 ! D98   D(53,10,49,51)          7.4466         estimate D2E/DX2                !
 ! D99   D(6,10,53,19)          -4.8435         estimate D2E/DX2                !
 ! D100  D(6,10,53,55)        -162.0651         estimate D2E/DX2                !
 ! D101  D(49,10,53,19)        143.041          estimate D2E/DX2                !
 ! D102  D(49,10,53,55)        -14.1806         estimate D2E/DX2                !
 ! D103  D(8,11,50,48)          -5.8789         estimate D2E/DX2                !
 ! D104  D(8,11,50,52)        -151.5624         estimate D2E/DX2                !
 ! D105  D(54,11,50,48)        139.2574         estimate D2E/DX2                !
 ! D106  D(54,11,50,52)         -6.4261         estimate D2E/DX2                !
 ! D107  D(8,11,54,20)           2.2535         estimate D2E/DX2                !
 ! D108  D(8,11,54,56)         149.1138         estimate D2E/DX2                !
 ! D109  D(50,11,54,20)       -142.9349         estimate D2E/DX2                !
 ! D110  D(50,11,54,56)          3.9254         estimate D2E/DX2                !
 ! D111  D(7,12,14,16)           4.8228         estimate D2E/DX2                !
 ! D112  D(7,12,14,46)         149.0219         estimate D2E/DX2                !
 ! D113  D(36,12,14,16)       -148.9046         estimate D2E/DX2                !
 ! D114  D(36,12,14,46)         -4.7055         estimate D2E/DX2                !
 ! D115  D(7,12,36,34)           4.6503         estimate D2E/DX2                !
 ! D116  D(7,12,36,38)        -149.028          estimate D2E/DX2                !
 ! D117  D(14,12,36,34)        156.7952         estimate D2E/DX2                !
 ! D118  D(14,12,36,38)          3.1168         estimate D2E/DX2                !
 ! D119  D(9,13,15,6)         -152.1901         estimate D2E/DX2                !
 ! D120  D(9,13,15,17)          -3.8877         estimate D2E/DX2                !
 ! D121  D(43,13,15,6)          -2.1047         estimate D2E/DX2                !
 ! D122  D(43,13,15,17)        146.1978         estimate D2E/DX2                !
 ! D123  D(9,13,43,2)          158.8387         estimate D2E/DX2                !
 ! D124  D(9,13,43,39)           1.2626         estimate D2E/DX2                !
 ! D125  D(15,13,43,2)           8.559          estimate D2E/DX2                !
 ! D126  D(15,13,43,39)       -149.0172         estimate D2E/DX2                !
 ! D127  D(12,14,16,8)         148.9764         estimate D2E/DX2                !
 ! D128  D(12,14,16,18)          3.9141         estimate D2E/DX2                !
 ! D129  D(46,14,16,8)           1.1443         estimate D2E/DX2                !
 ! D130  D(46,14,16,18)       -143.918          estimate D2E/DX2                !
 ! D131  D(12,14,46,4)        -147.8735         estimate D2E/DX2                !
 ! D132  D(12,14,46,42)          1.5643         estimate D2E/DX2                !
 ! D133  D(16,14,46,4)           0.8338         estimate D2E/DX2                !
 ! D134  D(16,14,46,42)        150.2715         estimate D2E/DX2                !
 ! D135  D(6,15,17,1)          154.3206         estimate D2E/DX2                !
 ! D136  D(6,15,17,19)           1.0788         estimate D2E/DX2                !
 ! D137  D(13,15,17,1)          10.0885         estimate D2E/DX2                !
 ! D138  D(13,15,17,19)       -143.1534         estimate D2E/DX2                !
 ! D139  D(8,16,18,3)         -149.5615         estimate D2E/DX2                !
 ! D140  D(8,16,18,20)           0.8247         estimate D2E/DX2                !
 ! D141  D(14,16,18,3)          -9.0434         estimate D2E/DX2                !
 ! D142  D(14,16,18,20)        141.3428         estimate D2E/DX2                !
 ! D143  D(1,17,19,21)           8.3826         estimate D2E/DX2                !
 ! D144  D(1,17,19,53)        -152.2722         estimate D2E/DX2                !
 ! D145  D(15,17,19,21)        160.0477         estimate D2E/DX2                !
 ! D146  D(15,17,19,53)         -0.607          estimate D2E/DX2                !
 ! D147  D(3,18,20,22)           0.987          estimate D2E/DX2                !
 ! D148  D(3,18,20,54)         150.0501         estimate D2E/DX2                !
 ! D149  D(16,18,20,22)       -148.0091         estimate D2E/DX2                !
 ! D150  D(16,18,20,54)          1.0539         estimate D2E/DX2                !
 ! D151  D(17,19,21,23)        -22.1482         estimate D2E/DX2                !
 ! D152  D(17,19,21,57)       -134.2488         estimate D2E/DX2                !
 ! D153  D(17,19,21,85)        102.2368         estimate D2E/DX2                !
 ! D154  D(53,19,21,23)        138.7684         estimate D2E/DX2                !
 ! D155  D(53,19,21,57)         26.6678         estimate D2E/DX2                !
 ! D156  D(53,19,21,85)        -96.8466         estimate D2E/DX2                !
 ! D157  D(17,19,53,10)          2.4139         estimate D2E/DX2                !
 ! D158  D(17,19,53,55)        155.6544         estimate D2E/DX2                !
 ! D159  D(21,19,53,10)       -158.8407         estimate D2E/DX2                !
 ! D160  D(21,19,53,55)         -5.6003         estimate D2E/DX2                !
 ! D161  D(18,20,22,24)          3.065          estimate D2E/DX2                !
 ! D162  D(18,20,22,58)        143.027          estimate D2E/DX2                !
 ! D163  D(54,20,22,24)       -147.3419         estimate D2E/DX2                !
 ! D164  D(54,20,22,58)         -7.38           estimate D2E/DX2                !
 ! D165  D(18,20,54,11)         -2.5815         estimate D2E/DX2                !
 ! D166  D(18,20,54,56)       -144.2048         estimate D2E/DX2                !
 ! D167  D(22,20,54,11)        147.7173         estimate D2E/DX2                !
 ! D168  D(22,20,54,56)          6.094          estimate D2E/DX2                !
 ! D169  D(19,21,23,25)         23.9277         estimate D2E/DX2                !
 ! D170  D(19,21,23,61)       -126.7029         estimate D2E/DX2                !
 ! D171  D(57,21,23,25)        142.5387         estimate D2E/DX2                !
 ! D172  D(57,21,23,61)         -8.092          estimate D2E/DX2                !
 ! D173  D(85,21,23,25)        -99.4145         estimate D2E/DX2                !
 ! D174  D(85,21,23,61)        109.9549         estimate D2E/DX2                !
 ! D175  D(19,21,57,59)        131.9041         estimate D2E/DX2                !
 ! D176  D(19,21,57,83)        -21.6793         estimate D2E/DX2                !
 ! D177  D(23,21,57,59)         13.4389         estimate D2E/DX2                !
 ! D178  D(23,21,57,83)       -140.1444         estimate D2E/DX2                !
 ! D179  D(85,21,57,59)       -105.1796         estimate D2E/DX2                !
 ! D180  D(85,21,57,83)        101.2371         estimate D2E/DX2                !
 ! D181  D(20,22,24,26)         -4.1898         estimate D2E/DX2                !
 ! D182  D(20,22,24,62)        139.7931         estimate D2E/DX2                !
 ! D183  D(58,22,24,26)       -149.3699         estimate D2E/DX2                !
 ! D184  D(58,22,24,62)         -5.387          estimate D2E/DX2                !
 ! D185  D(20,22,58,60)       -144.5455         estimate D2E/DX2                !
 ! D186  D(20,22,58,84)          0.7542         estimate D2E/DX2                !
 ! D187  D(24,22,58,60)          0.1192         estimate D2E/DX2                !
 ! D188  D(24,22,58,84)        145.4188         estimate D2E/DX2                !
 ! D189  D(21,23,25,1)         -11.2026         estimate D2E/DX2                !
 ! D190  D(21,23,25,27)       -152.6078         estimate D2E/DX2                !
 ! D191  D(61,23,25,1)         137.7241         estimate D2E/DX2                !
 ! D192  D(61,23,25,27)         -3.6811         estimate D2E/DX2                !
 ! D193  D(21,23,61,59)         -0.2804         estimate D2E/DX2                !
 ! D194  D(21,23,61,63)        147.621          estimate D2E/DX2                !
 ! D195  D(25,23,61,59)       -152.2749         estimate D2E/DX2                !
 ! D196  D(25,23,61,63)         -4.3735         estimate D2E/DX2                !
 ! D197  D(22,24,26,3)           1.1442         estimate D2E/DX2                !
 ! D198  D(22,24,26,28)        142.1285         estimate D2E/DX2                !
 ! D199  D(62,24,26,3)        -139.6365         estimate D2E/DX2                !
 ! D200  D(62,24,26,28)          1.3478         estimate D2E/DX2                !
 ! D201  D(22,24,62,60)          8.3522         estimate D2E/DX2                !
 ! D202  D(22,24,62,64)       -136.5282         estimate D2E/DX2                !
 ! D203  D(26,24,62,60)        152.8867         estimate D2E/DX2                !
 ! D204  D(26,24,62,64)          8.0063         estimate D2E/DX2                !
 ! D205  D(1,25,27,29)           9.4197         estimate D2E/DX2                !
 ! D206  D(1,25,27,65)        -135.8432         estimate D2E/DX2                !
 ! D207  D(23,25,27,29)        154.9447         estimate D2E/DX2                !
 ! D208  D(23,25,27,65)          9.6818         estimate D2E/DX2                !
 ! D209  D(3,26,28,30)          -9.15           estimate D2E/DX2                !
 ! D210  D(3,26,28,66)         135.2808         estimate D2E/DX2                !
 ! D211  D(24,26,28,30)       -153.813          estimate D2E/DX2                !
 ! D212  D(24,26,28,66)         -9.3822         estimate D2E/DX2                !
 ! D213  D(25,27,29,5)         -10.9602         estimate D2E/DX2                !
 ! D214  D(25,27,29,31)       -156.0927         estimate D2E/DX2                !
 ! D215  D(65,27,29,5)         134.9553         estimate D2E/DX2                !
 ! D216  D(65,27,29,31)        -10.1771         estimate D2E/DX2                !
 ! D217  D(25,27,65,63)         -7.1743         estimate D2E/DX2                !
 ! D218  D(25,27,65,67)        149.6373         estimate D2E/DX2                !
 ! D219  D(29,27,65,63)       -147.0441         estimate D2E/DX2                !
 ! D220  D(29,27,65,67)          9.7674         estimate D2E/DX2                !
 ! D221  D(26,28,30,7)          10.4813         estimate D2E/DX2                !
 ! D222  D(26,28,30,32)        155.6968         estimate D2E/DX2                !
 ! D223  D(66,28,30,7)        -134.4389         estimate D2E/DX2                !
 ! D224  D(66,28,30,32)         10.7766         estimate D2E/DX2                !
 ! D225  D(26,28,66,64)          7.8564         estimate D2E/DX2                !
 ! D226  D(26,28,66,68)       -149.1505         estimate D2E/DX2                !
 ! D227  D(30,28,66,64)        146.6061         estimate D2E/DX2                !
 ! D228  D(30,28,66,68)        -10.4008         estimate D2E/DX2                !
 ! D229  D(5,29,31,33)           0.0428         estimate D2E/DX2                !
 ! D230  D(5,29,31,69)        -141.9257         estimate D2E/DX2                !
 ! D231  D(27,29,31,33)        141.5914         estimate D2E/DX2                !
 ! D232  D(27,29,31,69)         -0.3772         estimate D2E/DX2                !
 ! D233  D(7,30,32,34)          -0.1026         estimate D2E/DX2                !
 ! D234  D(7,30,32,70)         142.0866         estimate D2E/DX2                !
 ! D235  D(28,30,32,34)       -141.9191         estimate D2E/DX2                !
 ! D236  D(28,30,32,70)          0.27           estimate D2E/DX2                !
 ! D237  D(29,31,33,35)        -11.2592         estimate D2E/DX2                !
 ! D238  D(29,31,33,73)       -155.6864         estimate D2E/DX2                !
 ! D239  D(69,31,33,35)        133.9508         estimate D2E/DX2                !
 ! D240  D(69,31,33,73)        -10.4764         estimate D2E/DX2                !
 ! D241  D(29,31,69,67)         11.2149         estimate D2E/DX2                !
 ! D242  D(29,31,69,71)        156.7843         estimate D2E/DX2                !
 ! D243  D(33,31,69,67)       -134.5104         estimate D2E/DX2                !
 ! D244  D(33,31,69,71)         11.0589         estimate D2E/DX2                !
 ! D245  D(30,32,34,36)         10.6367         estimate D2E/DX2                !
 ! D246  D(30,32,34,74)        155.8916         estimate D2E/DX2                !
 ! D247  D(70,32,34,36)       -134.6656         estimate D2E/DX2                !
 ! D248  D(70,32,34,74)         10.5893         estimate D2E/DX2                !
 ! D249  D(30,32,70,68)        -11.5256         estimate D2E/DX2                !
 ! D250  D(30,32,70,72)       -157.2984         estimate D2E/DX2                !
 ! D251  D(34,32,70,68)        134.3014         estimate D2E/DX2                !
 ! D252  D(34,32,70,72)        -11.4714         estimate D2E/DX2                !
 ! D253  D(31,33,35,9)          13.4347         estimate D2E/DX2                !
 ! D254  D(31,33,35,37)       -141.3346         estimate D2E/DX2                !
 ! D255  D(73,33,35,9)         152.1112         estimate D2E/DX2                !
 ! D256  D(73,33,35,37)         -2.6581         estimate D2E/DX2                !
 ! D257  D(31,33,73,71)          5.6052         estimate D2E/DX2                !
 ! D258  D(31,33,73,75)        147.7656         estimate D2E/DX2                !
 ! D259  D(35,33,73,71)       -138.0075         estimate D2E/DX2                !
 ! D260  D(35,33,73,75)          4.1529         estimate D2E/DX2                !
 ! D261  D(32,34,36,12)        -12.5999         estimate D2E/DX2                !
 ! D262  D(32,34,36,38)        141.6369         estimate D2E/DX2                !
 ! D263  D(74,34,36,12)       -152.0026         estimate D2E/DX2                !
 ! D264  D(74,34,36,38)          2.2342         estimate D2E/DX2                !
 ! D265  D(32,34,74,72)         -5.4292         estimate D2E/DX2                !
 ! D266  D(32,34,74,76)       -148.0067         estimate D2E/DX2                !
 ! D267  D(36,34,74,72)        139.0311         estimate D2E/DX2                !
 ! D268  D(36,34,74,76)         -3.5464         estimate D2E/DX2                !
 ! D269  D(9,35,37,39)           0.0453         estimate D2E/DX2                !
 ! D270  D(9,35,37,77)        -156.4276         estimate D2E/DX2                !
 ! D271  D(33,35,37,39)        154.2997         estimate D2E/DX2                !
 ! D272  D(33,35,37,77)         -2.1732         estimate D2E/DX2                !
 ! D273  D(12,36,38,42)          1.5916         estimate D2E/DX2                !
 ! D274  D(12,36,38,78)        154.4347         estimate D2E/DX2                !
 ! D275  D(34,36,38,42)       -151.9587         estimate D2E/DX2                !
 ! D276  D(34,36,38,78)          0.8844         estimate D2E/DX2                !
 ! D277  D(35,37,39,43)          3.4261         estimate D2E/DX2                !
 ! D278  D(35,37,39,79)       -160.0214         estimate D2E/DX2                !
 ! D279  D(77,37,39,43)        159.8958         estimate D2E/DX2                !
 ! D280  D(77,37,39,79)         -3.5517         estimate D2E/DX2                !
 ! D281  D(35,37,77,75)          5.6402         estimate D2E/DX2                !
 ! D282  D(35,37,77,81)        143.9257         estimate D2E/DX2                !
 ! D283  D(39,37,77,75)       -151.1308         estimate D2E/DX2                !
 ! D284  D(39,37,77,81)        -12.8453         estimate D2E/DX2                !
 ! D285  D(36,38,42,46)         -4.7356         estimate D2E/DX2                !
 ! D286  D(36,38,42,80)        147.8369         estimate D2E/DX2                !
 ! D287  D(78,38,42,46)       -158.1469         estimate D2E/DX2                !
 ! D288  D(78,38,42,80)         -5.5743         estimate D2E/DX2                !
 ! D289  D(36,38,78,76)         -2.7767         estimate D2E/DX2                !
 ! D290  D(36,38,78,81)       -144.847          estimate D2E/DX2                !
 ! D291  D(42,38,78,76)        150.8577         estimate D2E/DX2                !
 ! D292  D(42,38,78,81)          8.7874         estimate D2E/DX2                !
 ! D293  D(37,39,43,2)        -158.0677         estimate D2E/DX2                !
 ! D294  D(37,39,43,13)         -4.0983         estimate D2E/DX2                !
 ! D295  D(79,39,43,2)           6.2839         estimate D2E/DX2                !
 ! D296  D(79,39,43,13)        160.2533         estimate D2E/DX2                !
 ! D297  D(37,39,79,40)        132.1437         estimate D2E/DX2                !
 ! D298  D(37,39,79,82)         20.2856         estimate D2E/DX2                !
 ! D299  D(37,39,79,88)       -104.4039         estimate D2E/DX2                !
 ! D300  D(43,39,79,40)        -31.858          estimate D2E/DX2                !
 ! D301  D(43,39,79,82)       -143.7161         estimate D2E/DX2                !
 ! D302  D(43,39,79,88)         91.5943         estimate D2E/DX2                !
 ! D303  D(44,40,41,45)          3.604          estimate D2E/DX2                !
 ! D304  D(44,40,41,80)       -147.6671         estimate D2E/DX2                !
 ! D305  D(79,40,41,45)        160.6882         estimate D2E/DX2                !
 ! D306  D(79,40,41,80)          9.417          estimate D2E/DX2                !
 ! D307  D(41,40,44,2)         159.9807         estimate D2E/DX2                !
 ! D308  D(41,40,44,47)         -4.355          estimate D2E/DX2                !
 ! D309  D(79,40,44,2)           6.5963         estimate D2E/DX2                !
 ! D310  D(79,40,44,47)       -157.7394         estimate D2E/DX2                !
 ! D311  D(41,40,79,39)       -129.2927         estimate D2E/DX2                !
 ! D312  D(41,40,79,82)        -10.692          estimate D2E/DX2                !
 ! D313  D(41,40,79,88)        108.0854         estimate D2E/DX2                !
 ! D314  D(44,40,79,39)         26.6295         estimate D2E/DX2                !
 ! D315  D(44,40,79,82)        145.2303         estimate D2E/DX2                !
 ! D316  D(44,40,79,88)        -95.9923         estimate D2E/DX2                !
 ! D317  D(40,41,45,4)        -152.7416         estimate D2E/DX2                !
 ! D318  D(40,41,45,48)          0.1537         estimate D2E/DX2                !
 ! D319  D(80,41,45,4)          -5.2252         estimate D2E/DX2                !
 ! D320  D(80,41,45,48)        147.6701         estimate D2E/DX2                !
 ! D321  D(40,41,80,42)        144.171          estimate D2E/DX2                !
 ! D322  D(40,41,80,82)         -3.6919         estimate D2E/DX2                !
 ! D323  D(45,41,80,42)         -6.8591         estimate D2E/DX2                !
 ! D324  D(45,41,80,82)       -154.722          estimate D2E/DX2                !
 ! D325  D(38,42,46,4)         148.3639         estimate D2E/DX2                !
 ! D326  D(38,42,46,14)          3.2259         estimate D2E/DX2                !
 ! D327  D(80,42,46,4)          -5.4517         estimate D2E/DX2                !
 ! D328  D(80,42,46,14)       -150.5897         estimate D2E/DX2                !
 ! D329  D(38,42,80,41)       -141.8415         estimate D2E/DX2                !
 ! D330  D(38,42,80,82)          1.5985         estimate D2E/DX2                !
 ! D331  D(46,42,80,41)         11.9706         estimate D2E/DX2                !
 ! D332  D(46,42,80,82)        155.4106         estimate D2E/DX2                !
 ! D333  D(2,44,47,48)        -161.9161         estimate D2E/DX2                !
 ! D334  D(2,44,47,49)          -5.4138         estimate D2E/DX2                !
 ! D335  D(40,44,47,48)          1.5041         estimate D2E/DX2                !
 ! D336  D(40,44,47,49)        158.0064         estimate D2E/DX2                !
[...]
 Alpha virt. eigenvalues --    1.20907   1.21055   1.21342   1.21624   1.22233
 Alpha virt. eigenvalues --    1.22512   1.22745   1.23128   1.23501   1.23670
 Alpha virt. eigenvalues --    1.23937   1.24090   1.24537   1.24778   1.24919
 Alpha virt. eigenvalues --    1.25113   1.25501   1.25738   1.25999   1.26530
 Alpha virt. eigenvalues --    1.26563   1.27032   1.27323   1.27437   1.27904
 Alpha virt. eigenvalues --    1.28343   1.28774   1.28789   1.29408   1.29568
 Alpha virt. eigenvalues --    1.30133   1.30145   1.30438   1.30852   1.30864
 Alpha virt. eigenvalues --    1.31142   1.31594   1.31773   1.32185   1.32471
 Alpha virt. eigenvalues --    1.32757   1.33107   1.33370   1.34278   1.34397
 Alpha virt. eigenvalues --    1.35067   1.35203   1.35661   1.35914   1.36071
 Alpha virt. eigenvalues --    1.36871   1.37401   1.37911   1.38497   1.38621
 Alpha virt. eigenvalues --    1.38960   1.39504   1.40327   1.40418   1.40939
 Alpha virt. eigenvalues --    1.41201   1.41439   1.42480   1.42982   1.44029
 Alpha virt. eigenvalues --    1.44406   1.45084   1.45966   1.46315   1.46975
 Alpha virt. eigenvalues --    1.47404   1.47786   1.48323   1.48558   1.49075
 Alpha virt. eigenvalues --    1.49306   1.49732   1.50738   1.50935   1.51712
 Alpha virt. eigenvalues --    1.52381   1.52869   1.53641   1.53982   1.54290
 Alpha virt. eigenvalues --    1.54901   1.55184   1.55328   1.55937   1.56394
 Alpha virt. eigenvalues --    1.56911   1.57209   1.57552   1.58226   1.58345
 Alpha virt. eigenvalues --    1.59038   1.60100   1.60392   1.61124   1.62043
 Alpha virt. eigenvalues --    1.62600   1.62690   1.63234   1.63593   1.63929
 Alpha virt. eigenvalues --    1.63960   1.64090   1.64467   1.64682   1.65005
 Alpha virt. eigenvalues --    1.65197   1.65473   1.65719   1.66457   1.66739
 Alpha virt. eigenvalues --    1.66839   1.67280   1.67337   1.67464   1.67742
 Alpha virt. eigenvalues --    1.67825   1.68199   1.68515   1.69053   1.69258
 Alpha virt. eigenvalues --    1.69661   1.69965   1.70135   1.70328   1.70492
 Alpha virt. eigenvalues --    1.70717   1.71172   1.71284   1.71406   1.71515
 Alpha virt. eigenvalues --    1.71718   1.71913   1.72213   1.72361   1.72573
 Alpha virt. eigenvalues --    1.72762   1.73177   1.73407   1.73444   1.73838
 Alpha virt. eigenvalues --    1.74112   1.74279   1.74438   1.74487   1.74985
 Alpha virt. eigenvalues --    1.75227   1.75479   1.75747   1.75926   1.76286
 Alpha virt. eigenvalues --    1.76434   1.76765   1.77150   1.77342   1.77754
 Alpha virt. eigenvalues --    1.77947   1.78127   1.78363   1.78624   1.78660
 Alpha virt. eigenvalues --    1.78922   1.79393   1.79497   1.79957   1.80255
 Alpha virt. eigenvalues --    1.80842   1.81244   1.81585   1.81742   1.82204
 Alpha virt. eigenvalues --    1.82507   1.83056   1.83380   1.83683   1.83953
 Alpha virt. eigenvalues --    1.84401   1.84824   1.85804   1.86059   1.86566
 Alpha virt. eigenvalues --    1.87015   1.87299   1.88349   1.88945   1.89574
 Alpha virt. eigenvalues --    1.89939   1.90115   1.90778   1.91125   1.91508
 Alpha virt. eigenvalues --    1.91794   1.92042   1.92808   1.92980   1.93213
 Alpha virt. eigenvalues --    1.93652   1.94102   1.94789   1.94799   1.95003
 Alpha virt. eigenvalues --    1.95285   1.95399   1.95980   1.96208   1.96460
 Alpha virt. eigenvalues --    1.96910   1.97190   1.97535   1.97650   1.97764
 Alpha virt. eigenvalues --    1.98120   1.98264   1.98405   1.98773   1.99097
 Alpha virt. eigenvalues --    1.99259   1.99484   1.99621   1.99946   2.00322
 Alpha virt. eigenvalues --    2.00462   2.00704   2.01170   2.01283   2.01495
 Alpha virt. eigenvalues --    2.01676   2.02069   2.02286   2.02511   2.02555
 Alpha virt. eigenvalues --    2.02799   2.03125   2.03429   2.03661   2.03824
 Alpha virt. eigenvalues --    2.04229   2.04312   2.04953   2.05121   2.05371
 Alpha virt. eigenvalues --    2.05902   2.06293   2.06335   2.06559   2.06765
 Alpha virt. eigenvalues --    2.07312   2.07353   2.07891   2.08720   2.08795
 Alpha virt. eigenvalues --    2.09551   2.09936   2.10817   2.11144   2.11542
 Alpha virt. eigenvalues --    2.11767   2.12152   2.12721   2.12883   2.13253
 Alpha virt. eigenvalues --    2.13734   2.14245   2.14414   2.15283   2.15588
 Alpha virt. eigenvalues --    2.15746   2.16530   2.17140   2.17437   2.18489
 Alpha virt. eigenvalues --    2.18737   2.19112   2.19289   2.20325   2.20648
 Alpha virt. eigenvalues --    2.20979   2.21414   2.21619   2.21840   2.22480
 Alpha virt. eigenvalues --    2.22656   2.23210   2.23332   2.24068   2.24223
 Alpha virt. eigenvalues --    2.24571   2.25022   2.25474   2.25649   2.26154
 Alpha virt. eigenvalues --    2.26441   2.26918   2.27237   2.27360   2.27933
 Alpha virt. eigenvalues --    2.28686   2.28787   2.28880   2.29418   2.29565
 Alpha virt. eigenvalues --    2.29933   2.30705   2.31043   2.31071   2.31593
 Alpha virt. eigenvalues --    2.31750   2.32145   2.32627   2.33020   2.33506
 Alpha virt. eigenvalues --    2.33985   2.35017   2.35241   2.36743   2.36826
 Alpha virt. eigenvalues --    2.38044   2.38635   2.38992   2.39705   2.40245
 Alpha virt. eigenvalues --    2.40699   2.41199   2.41875   2.42493   2.42908
 Alpha virt. eigenvalues --    2.43313   2.43613   2.44085   2.44598   2.44884
 Alpha virt. eigenvalues --    2.45649   2.46461   2.46732   2.47589   2.47741
 Alpha virt. eigenvalues --    2.48427   2.48592   2.49068   2.50055   2.50213
 Alpha virt. eigenvalues --    2.51060   2.51151   2.51515   2.52430   2.52557
 Alpha virt. eigenvalues --    2.53197   2.53448   2.53819   2.54267   2.54376
 Alpha virt. eigenvalues --    2.55105   2.55532   2.55787   2.56040   2.56543
 Alpha virt. eigenvalues --    2.56871   2.57036   2.57359   2.57900   2.58023
 Alpha virt. eigenvalues --    2.58389   2.58585   2.58899   2.59157   2.59222
 Alpha virt. eigenvalues --    2.60127   2.60259   2.60539   2.60804   2.60941
 Alpha virt. eigenvalues --    2.61159   2.61664   2.61980   2.62492   2.63015
 Alpha virt. eigenvalues --    2.63312   2.63510   2.63829   2.64086   2.64442
 Alpha virt. eigenvalues --    2.65001   2.65130   2.65337   2.65611   2.65992
 Alpha virt. eigenvalues --    2.66196   2.66485   2.66704   2.67055   2.67741
 Alpha virt. eigenvalues --    2.67832   2.68115   2.68190   2.68382   2.68871
 Alpha virt. eigenvalues --    2.68950   2.69429   2.69845   2.70208   2.70344
 Alpha virt. eigenvalues --    2.70804   2.71841   2.72461   2.72812   2.73302
 Alpha virt. eigenvalues --    2.73641   2.74646   2.75368   2.75963   2.76157
 Alpha virt. eigenvalues --    2.76692   2.78103   2.78240   2.78567   2.79070
 Alpha virt. eigenvalues --    2.79158   2.79726   2.80301   2.80646   2.80865
 Alpha virt. eigenvalues --    2.81048   2.81480   2.81958   2.82443   2.82588
 Alpha virt. eigenvalues --    2.83265   2.83403   2.83762   2.84255   2.84657
 Alpha virt. eigenvalues --    2.84984   2.85576   2.86019   2.86154   2.86634
 Alpha virt. eigenvalues --    2.86909   2.87879   2.88175   2.88950   2.89248
 Alpha virt. eigenvalues --    2.90190   2.90347   2.90569   2.90996   2.91393
 Alpha virt. eigenvalues --    2.91758   2.91872   2.92201   2.93499   2.93809
 Alpha virt. eigenvalues --    2.93875   2.94137   2.94622   2.95440   2.95672
 Alpha virt. eigenvalues --    2.96388   2.96880   2.97063   2.98851   2.99315
 Alpha virt. eigenvalues --    2.99921   3.00474   3.01604   3.03581   3.03780
 Alpha virt. eigenvalues --    3.04252   3.05149   3.07336   3.08099   3.09213
 Alpha virt. eigenvalues --    3.09900   3.12696   3.13425   3.14770   3.16830
 Alpha virt. eigenvalues --    3.17022   3.18521   3.20927   3.22338   3.24382
 Alpha virt. eigenvalues --    3.26461   3.27765   3.28421   3.28696   3.31759
 Alpha virt. eigenvalues --    3.32918   3.33890   3.36307   3.37325   3.38122
 Alpha virt. eigenvalues --    3.38833   3.41251   3.42500   3.44529   3.46129
 Alpha virt. eigenvalues --    3.48507   3.50519   3.51129   3.52481   3.55159
 Alpha virt. eigenvalues --    3.58249   3.60984   4.00170   4.01345   4.02239
 Alpha virt. eigenvalues --    4.02350   4.03125   4.04153   4.04528   4.04767
 Alpha virt. eigenvalues --    4.05020   4.06232   4.06548   4.06587   4.07203
 Alpha virt. eigenvalues --    4.07603   4.08243   4.09081   4.09490   4.10070
 Alpha virt. eigenvalues --    4.10867   4.11691   4.12872   4.13997   4.14068
 Alpha virt. eigenvalues --    4.15055   4.16306   4.16358   4.17992   4.19351
 Alpha virt. eigenvalues --    4.20303   4.20854   4.21342   4.21614   4.22032
 Alpha virt. eigenvalues --    4.22822   4.23807   4.24755   4.26303   4.27013
 Alpha virt. eigenvalues --    4.28025   4.28562   4.29615   4.29731   4.30254
 Alpha virt. eigenvalues --    4.31121   4.32121   4.34310   4.35206   4.37224
 Alpha virt. eigenvalues --    4.38325   4.40382   4.41140   4.41655   4.42060
 Alpha virt. eigenvalues --    4.45609   4.46121   4.48373   4.48990   4.49722
 Alpha virt. eigenvalues --    4.51292   4.52767   4.54930   4.55767   4.57828
 Alpha virt. eigenvalues --    4.58287   4.60181   4.61092   4.64421   4.66243
 Alpha virt. eigenvalues --    4.67056   4.67520   4.70230   4.74260   4.76782
 Alpha virt. eigenvalues --    4.80249   4.82141   4.84531   4.85327   4.88532
 Alpha virt. eigenvalues --    4.92060   4.93237   4.99162   5.02201   5.05337
 Alpha virt. eigenvalues --    5.10412   5.15375   5.16288   5.22373   5.27151
          Condensed to atoms (all electrons):
 Mulliken charges:
               1
     1  C   -0.038191
     2  C   -0.363773
     3  C   -0.022209
     4  C   -0.019386
     5  C   -0.010972
     6  C    0.067432
     7  C   -0.018781
     8  C   -0.015889
     9  C    0.045327
    10  C    0.037723
    11  C   -0.000291
    12  C    0.054995
    13  C    0.001559
    14  C   -0.028574
    15  C    0.009739
    16  C   -0.023266
    17  C    0.075217
    18  C    0.058130
    19  C    0.128378
    20  C    0.056681
    21  C   -0.363375
    22  C   -0.021573
    23  C    0.074383
    24  C   -0.014744
    25  C   -0.002692
    26  C   -0.010332
    27  C   -0.017196
    28  C   -0.019150
    29  C   -0.018055
    30  C   -0.017182
    31  C   -0.010402
    32  C   -0.012638
    33  C   -0.021678
    34  C   -0.023849
    35  C    0.039732
    36  C    0.043184
    37  C    0.069469
    38  C    0.044107
    39  C    0.119612
    40  C    0.077637
    41  C    0.001870
    42  C    0.045718
    43  C    0.078586
    44  C    0.121441
    45  C    0.044147
    46  C   -0.027276
    47  C    0.064007
    48  C    0.041153
    49  C   -0.012051
    50  C   -0.022498
    51  C    0.076265
    52  C    0.004533
    53  C    0.074451
    54  C   -0.015753
    55  C   -0.360135
    56  C   -0.038348
    57  C    0.078767
    58  C   -0.022707
    59  C    0.018291
    60  C   -0.023406
    61  C    0.015590
    62  C   -0.018700
    63  C    0.028653
    64  C    0.044050
    65  C    0.039474
    66  C    0.036322
    67  C    0.036860
    68  C    0.040237
    69  C   -0.019067
    70  C   -0.020042
    71  C   -0.005935
    72  C   -0.006272
    73  C   -0.005006
    74  C   -0.003887
    75  C   -0.000504
    76  C   -0.005226
    77  C   -0.042595
    78  C   -0.020767
    79  C   -0.362305
    80  C    0.013727
    81  C    0.004445
    82  C    0.073130
    83  C    0.123429
    84  C    0.084692
    85  Cl  -0.015985
    86  Cl  -0.016693
    87  Cl  -0.016523
    88  Cl  -0.017264
 Sum of Mulliken charges =  -0.00000
 Mulliken charges with hydrogens summed into heavy atoms:
               1
     1  C   -0.038191
     2  C   -0.363773
     3  C   -0.022209
     4  C   -0.019386
     5  C   -0.010972
     6  C    0.067432
     7  C   -0.018781
     8  C   -0.015889
     9  C    0.045327
    10  C    0.037723
    11  C   -0.000291
    12  C    0.054995
    13  C    0.001559
    14  C   -0.028574
    15  C    0.009739
    16  C   -0.023266
    17  C    0.075217
    18  C    0.058130
    19  C    0.128378
    20  C    0.056681
    21  C   -0.363375
    22  C   -0.021573
    23  C    0.074383
    24  C   -0.014744
    25  C   -0.002692
    26  C   -0.010332
    27  C   -0.017196
    28  C   -0.019150
    29  C   -0.018055
    30  C   -0.017182
    31  C   -0.010402
    32  C   -0.012638
    33  C   -0.021678
    34  C   -0.023849
    35  C    0.039732
    36  C    0.043184
    37  C    0.069469
    38  C    0.044107
    39  C    0.119612
    40  C    0.077637
    41  C    0.001870
    42  C    0.045718
    43  C    0.078586
    44  C    0.121441
    45  C    0.044147
    46  C   -0.027276
    47  C    0.064007
    48  C    0.041153
    49  C   -0.012051
    50  C   -0.022498
    51  C    0.076265
    52  C    0.004533
    53  C    0.074451
    54  C   -0.015753
    55  C   -0.360135
    56  C   -0.038348
    57  C    0.078767
    58  C   -0.022707
    59  C    0.018291
    60  C   -0.023406
    61  C    0.015590
    62  C   -0.018700
    63  C    0.028653
    64  C    0.044050
    65  C    0.039474
    66  C    0.036322
    67  C    0.036860
    68  C    0.040237
    69  C   -0.019067
    70  C   -0.020042
    71  C   -0.005935
    72  C   -0.006272
    73  C   -0.005006
    74  C   -0.003887
    75  C   -0.000504
    76  C   -0.005226
    77  C   -0.042595
    78  C   -0.020767
    79  C   -0.362305
    80  C    0.013727
    81  C    0.004445
    82  C    0.073130
    83  C    0.123429
    84  C    0.084692
    85  Cl  -0.015985
    86  Cl  -0.016693
    87  Cl  -0.016523
    88  Cl  -0.017264
 Electronic spatial extent (au):  <R**2>=          42313.3685
 Charge=              0.0000 electrons
 Dipole moment (field-independent basis, Debye):
    X=              3.0070    Y=             -3.9402    Z=             -0.0513  Tot=              4.9568
 Quadrupole moment (field-independent basis, Debye-Ang):
   XX=           -525.6792   YY=           -523.2563   ZZ=           -500.1743
   XY=             -1.6857   XZ=              3.3548   YZ=              3.0907
 Traceless Quadrupole moment (field-independent basis, Debye-Ang):
   XX=             -9.3093   YY=             -6.8864   ZZ=             16.1956
   XY=             -1.6857   XZ=              3.3548   YZ=              3.0907
 Octapole moment (field-independent basis, Debye-Ang**2):
  XXX=             78.5448  YYY=            -48.3954  ZZZ=             -7.9998  XYY=            -46.3857
  XXY=             -8.7447  XXZ=             -9.7900  XZZ=             -3.2145  YZZ=             29.5926
  YYZ=             15.6226  XYZ=             -0.8431
 Hexadecapole moment (field-independent basis, Debye-Ang**3):
 XXXX=         -24345.1997 YYYY=         -21566.0191 ZZZZ=         -16873.1911 XXXY=             49.6426
 XXXZ=             13.6852 YYYX=            -61.7538 YYYZ=              4.8534 ZZZX=            -20.9843
 ZZZY=            -44.5436 XXYY=          -7529.0894 XXZZ=          -6832.2785 YYZZ=          -6288.7558
 XXYZ=             20.2224 YYXZ=             -3.0705 ZZXY=             17.5534
 N-N= 1.713104906095D+04 E-N=-4.604039816987D+04  KE= 5.006203840144D+03
 No NMR shielding tensors so no spin-rotation constants.
 Leave Link  601 at Thu Jun 30 11:15:56 2022, MaxMem=  1342177280 cpu:              22.9 elap:               1.2
 (Enter /home/mkliu/g16/l9999.exe)
 1\1\GINC-NODE04\FOpt\RB3LYP\6-31G(d,p)\C84Cl4\MKLIU\30-Jun-2022\0\\#P 
 opt b3lyp/6-31G(d, p) empiricaldispersion=GD3\\force\\0,1\C,8.26544620
 88,18.8544816759,10.5288453264\C,12.4853574295,19.9920509755,8.8817351
 878\C,8.2531684976,26.9332930209,10.5423718955\C,12.280983313,25.61033
 81306,8.958283302\C,7.9471243969,18.9002162087,9.1543747182\C,11.86429
 75362,19.5619591318,10.1873195045\C,7.9414208158,26.8825788044,9.15121
 24452\C,11.8549393845,26.1950274739,10.2080543337\C,8.9438864956,19.08
 61391164,8.138424244\C,12.0994300395,20.2271097571,11.3562296324\C,12.
 1193552766,25.5463189699,11.3824105623\C,8.9431761459,26.7056191657,8.
 1545732264\C,10.2761516219,19.0477674098,8.5858019323\C,10.2771838184,
 26.7663687867,8.6247224695\C,10.603476257,18.9498232186,9.9802359144\C
 ,10.5923557828,26.8825945088,10.0062753164\C,9.6039230442,18.956564393
 4,10.9928802538\C,9.5884082827,26.8653478992,11.0148083548\C,9.8975841
 297,19.6288178958,12.2452609697\C,9.8639934254,26.1652277025,12.278503
 3384\C,8.7722463126,20.0740161306,13.1625239992\C,8.7891632679,25.5623
 891843,12.9719057924\C,7.457500882,20.2202399416,12.411848274\C,7.4463
 731917,25.5680735128,12.4115466703\C,7.2005617723,19.5565284032,11.251
 1066813\C,7.1847710177,26.2375748076,11.2458998314\C,6.2851463606,20.1
 178284115,10.3012763652\C,6.2680930618,25.6758258615,10.2936928328\C,6
 .6699835343,19.5786397536,9.0269255685\C,6.6668917747,26.2043837188,9.
 0208702352\C,6.3589215207,20.2451275958,7.8816887521\C,6.3664062011,25
 .5299278266,7.8740456156\C,7.2958402924,20.2906239121,6.7636535923\C,7
 .3105182181,25.4819279635,6.7706738156\C,8.6370190725,19.8438858771,6.
 9331095188\C,8.6415435574,25.9379699282,6.9386674623\C,9.7037471167,20
 .5846222878,6.2662901992\C,9.70827842,25.1876954543,6.2731765357\C,11.
 0543896701,20.5494681214,6.8221148658\C,12.7779388266,22.15061947,7.74
 47200278\C,12.7346273052,23.5865110642,7.7480577632\C,11.0477472316,25
 .1863456363,6.8498767351\C,11.3173729291,19.7711761398,7.9143898346\C,
 12.9285970773,21.4448531053,8.9047482744\C,12.9149166831,24.3321628911
 ,8.9310710821\C,11.327910195,25.9889399438,7.9755635673\C,13.138563912
 4,22.1628311653,10.1598254444\C,13.1549460806,23.613050075,10.16886781
 11\C,12.8087817885,21.5026634436,11.3723441546\C,12.8298269822,24.2812
 527672,11.3831180515\C,12.4026694481,22.1957557481,12.5288349407\C,12.
 3847583144,23.572227983,12.5265996089\C,11.1292002665,20.2201769469,12
 .4102942651\C,11.139744251,25.542635874,12.4626854433\C,11.4287644605,
 21.3781042612,13.362612327\C,11.2954302314,24.3245744321,13.1655446812
 \C,8.9776662035,21.49780587,13.6752680736\C,8.9485658314,24.3212840833
 ,13.6656113219\C,7.7444604747,22.2155876967,13.5064817257\C,7.71676518
 15,23.5861428059,13.5228444491\C,6.869511419,21.4961579296,12.62325208
 83\C,6.8224734098,24.2952954532,12.6485907392\C,6.0812570675,22.165473
 525,11.6378698248\C,6.0660008641,23.6256669216,11.6469174309\C,5.76878
 47161,21.4368915772,10.4215979148\C,5.7600842203,24.3518200468,10.4192
 665114\C,5.4371259974,22.1604135749,9.1936079147\C,5.4393641833,23.621
 3302492,9.1934839315\C,5.6337807941,21.4912753556,7.9519047441\C,5.641
 7464576,24.2836468755,7.9474159519\C,5.9480953981,22.1949894983,6.7415
 996971\C,5.9518653994,23.572676978,6.7411293397\C,6.982433807,21.45563
 44705,6.0222815853\C,6.9963861637,24.3020268651,6.0275654357\C,8.00255
 43552,22.1486943642,5.3656008012\C,8.0030570786,23.6072504794,5.375564
 7068\C,9.3433155089,21.6903027452,5.45310816\C,9.35389805,24.063676209
 3,5.4834815523\C,12.0784867128,21.6245888484,6.4893409703\C,11.8704635
 013,24.0289807145,6.7012572943\C,10.1979271941,22.8845656083,5.4075971
 509\C,11.431966392,22.8857572534,5.9724418801\C,10.1784524569,22.16264
 53186,13.7234792581\C,10.1863977555,23.626990584,13.7138430062\Cl,8.59
 33825992,18.8846904166,14.5805814134\Cl,12.2532686638,20.7564740576,14
 .9111874937\Cl,13.9216463797,18.886601302,8.4536720362\Cl,13.316259495
 4,20.9797155572,5.2574375037\\Version=ES64L-G16RevA.03\State=1-A\HF=-5
 041.8166808\RMSD=4.666e-09\RMSF=8.754e-05\Dipole=-1.2506464,1.3918485,
 -0.549311\Quadrupole=1.6967097,4.4085404,-6.10525,7.5601554,4.3116481,
 4.1331607\PG=C01 [X(C84Cl4)]\\@


 AND THIS OUR LIFE, EXEMPT FROM PUBLIC HAUNT,
 FINDS TONGUES IN TREES, BOOKS IN THE RUNNING BROOKS,
 SERMONS IN STONES, AND GOOD IN EVERYTHING.
 I WOULD NOT CHANGE IT. -- W. SHAKESPEARE
 AS YOU LIKE IT, ACT II, SCENE 1.
 Job cpu time:       1 days  0 hours 29 minutes 32.4 seconds.
 Elapsed time:       0 days  1 hours  1 minutes 19.4 seconds.
 File lengths (MBytes):  RWF=   1098 Int=      0 D2E=      0 Chk=    138 Scr=      1
 Normal termination of Gaussian 16 at Thu Jun 30 11:15:58 2022.
