 Entering Gaussian System, Link 0=g16
 Input=4_addons_C84_14_Cl22_rank_3.gjf
 Output=4_addons_C84_14_Cl22_rank_3.log
 Initial command:
 /home/mkliu/g16/l1.exe "/data/scratch/Gau-71022.inp" -scrdir="/data/scratch/"
 Entering Link 1 = /home/mkliu/g16/l1.exe PID=     71023.
  
 Copyright (c) 1988,1990,1992,1993,1995,1998,2003,2009,2016,
            Gaussian, Inc.  All Rights Reserved.
  
 This is part of the Gaussian(R) 16 program.  It is based on
 the Gaussian(R) 09 system (copyright 2009, Gaussian, Inc.),
 the Gaussian(R) 03 system (copyright 2003, Gaussian, Inc.),
 the Gaussian(R) 98 system (copyright 1998, Gaussian, Inc.),
 the Gaussian(R) 94 system (copyright 1995, Gaussian, Inc.),
 the Gaussian 92(TM) system (copyright 1992, Gaussian, Inc.),
 the Gaussian 90(TM) system (copyright 1990, Gaussian, Inc.),
 the Gaussian 88(TM) system (copyright 1988, Gaussian, Inc.),
 the Gaussian 86(TM) system (copyright 1986, Carnegie Mellon
 University), and the Gaussian 82(TM) system (copyright 1983,
 Carnegie Mellon University). Gaussian is a federally registered
 trademark of Gaussian, Inc.
  
 This software contains proprietary and confidential information,
 including trade secrets, belonging to Gaussian, Inc.
  
 This software is provided under written license and may be
 used, copied, transmitted, or stored only in accord with that
 written license.
  
 The following legend is applicable only to US Government
 contracts under FAR:
  
                    RESTRICTED RIGHTS LEGEND
  
 Use, reproduction and disclosure by the US Government is
 subject to restrictions as set forth in subparagraphs (a)
 and (c) of the Commercial Computer Software - Restricted
 Rights clause in FAR 52.227-19.
  
 Gaussian, Inc.
 340 Quinnipiac St., Bldg. 40, Wallingford CT 06492
  
  
 ---------------------------------------------------------------
 Warning -- This program may not be used in any manner that
 competes with the business of Gaussian, Inc. or will provide
 assistance to any competitor of Gaussian, Inc.  The licensee
 of this program is prohibited from giving any competitor of
 Gaussian, Inc. access to this program.  By using this program,
 the user acknowledges that Gaussian, Inc. is engaged in the
 business of creating and licensing software in the field of
 computational chemistry and represents and warrants to the
 licensee that it is not a competitor of Gaussian, Inc. and that
 it will not use this program in any manner prohibited above.
 ---------------------------------------------------------------
  

 Cite this work as:
 Gaussian 16, Revision A.03,
 M. J. Frisch, G. W. Trucks, H. B. Schlegel, G. E. Scuseria, 
 M. A. Robb, J. R. Cheeseman, G. Scalmani, V. Barone, 
 G. A. Petersson, H. Nakatsuji, X. Li, M. Caricato, A. V. Marenich, 
 J. Bloino, B. G. Janesko, R. Gomperts, B. Mennucci, H. P. Hratchian, 
 J. V. Ortiz, A. F. Izmaylov, J. L. Sonnenberg, D. Williams-Young, 
 F. Ding, F. Lipparini, F. Egidi, J. Goings, B. Peng, A. Petrone, 
 T. Henderson, D. Ranasinghe, V. G. Zakrzewski, J. Gao, N. Rega, 
 G. Zheng, W. Liang, M. Hada, M. Ehara, K. Toyota, R. Fukuda, 
 J. Hasegawa, M. Ishida, T. Nakajima, Y. Honda, O. Kitao, H. Nakai, 
 T. Vreven, K. Throssell, J. A. Montgomery, Jr., J. E. Peralta, 
 F. Ogliaro, M. J. Bearpark, J. J. Heyd, E. N. Brothers, K. N. Kudin, 
 V. N. Staroverov, T. A. Keith, R. Kobayashi, J. Normand, 
 K. Raghavachari, A. P. Rendell, J. C. Burant, S. S. Iyengar, 
 J. Tomasi, M. Cossi, J. M. Millam, M. Klene, C. Adamo, R. Cammi, 
 J. W. Ochterski, R. L. Martin, K. Morokuma, O. Farkas, 
 J. B. Foresman, and D. J. Fox, Gaussian, Inc., Wallingford CT, 2016.
 
 ******************************************
 Gaussian 16:  ES64L-G16RevA.03 25-Dec-2016
                28-Jun-2022 
 ******************************************
 %mem=10GB
 %chk=4_addons_C84_14_Cl22_rank_3.chk
 %nprocshared=24
 Will use up to   24 processors via shared memory.
 ------------------------------------------------
 #P opt b3lyp/6-31G(d, p) empiricaldispersion=GD3
 ------------------------------------------------
 1/18=20,19=15,26=3,38=1/1,3;
 2/9=110,12=2,17=6,18=5,40=1/2;
 3/5=1,6=6,7=101,11=2,25=1,30=1,71=1,74=-5,124=31/1,2,3;
 4//1;
 5/5=2,38=5/2;
 6/7=2,8=2,9=2,10=2,28=1/1;
 7//1,2,3,16;
 1/18=20,19=15,26=3/3(2);
 2/9=110/2;
 99//99;
 2/9=110/2;
 3/5=1,6=6,7=101,11=2,25=1,30=1,71=1,74=-5,124=31/1,2,3;
 4/5=5,16=3,69=1/1;
 5/5=2,38=5/2;
 7//1,2,3,16;
 1/18=20,19=15,26=3/3(-5);
 2/9=110/2;
 6/7=2,8=2,9=2,10=2,19=2,28=1/1;
 99/9=1/99;
 Leave Link    1 at Tue Jun 28 09:54:55 2022, MaxMem=  1342177280 cpu:               0.7 elap:               0.0
 (Enter /home/mkliu/g16/l101.exe)
 -----
 force
 -----
 Symbolic Z-matrix:
 Charge =  0 Multiplicity = 1
 C                     8.26252   18.88687   10.53348 
 C                     12.46511   20.00791   8.91166 
 C                     8.26096   26.89198   10.54091 
 C                     12.25266   25.58269   8.97374 
 C                     7.94724   18.9298   9.1519 
 C                     11.85974   19.58437   10.2149 
 C                     7.95303   26.84453   9.15625 
 C                     11.83553   26.1689   10.22172 
 C                     8.93618   19.12389   8.16017 
 C                     12.12303   20.22131   11.38239 
 C                     12.11317   25.54166   11.39873 
 C                     8.94432   26.66626   8.16196 
 C                     10.26348   19.09158   8.62651 
 C                     10.26603   26.71958   8.63659 
 C                     10.58743   18.97935   10.00327 
 C                     10.57919   26.83278   10.01593 
 C                     9.58839   18.97008   11.00318 
 C                     9.58613   26.8255   11.01822 
 C                     9.8612    19.65507   12.24182 
 C                     9.86071   26.12389   12.25426 
 C                     8.79272   20.24996   12.94799 
 C                     8.79364   25.51838   12.95027 
 C                     7.46264   20.23572   12.39662 
 C                     7.46414   25.52975   12.39802 
 C                     7.20189   19.5639   11.23434 
 C                     7.20393   26.20165   11.23595 
 C                     6.2846    20.12613   10.29284 
 C                     6.29102   25.63707   10.29239 
 C                     6.67929   19.58925   9.02752 
 C                     6.6897    26.17347   9.03036 
 C                     6.37332   20.25992   7.881 
 C                     6.38796   25.50138   7.88351 
 C                     7.30834   20.30465   6.78551 
 C                     7.32543   25.45893   6.7907 
 C                     8.63935   19.8695   6.96249 
 C                     8.64624   25.90934   6.9572 
 C                     9.69652   20.60592   6.30755 
 C                     9.7007    25.16712   6.2943 
 C                     11.02798   20.57616   6.86651 
 C                     12.70885   22.15671   7.78447 
 C                     12.6648   23.56241   7.78963 
 C                     11.02324   25.15937   6.86375 
 C                     11.2978   19.80814   7.96109 
 C                     12.85779   21.46157   8.95831 
 C                     12.83915   24.29113   8.97474 
 C                     11.30473   25.94859   7.99983 
 C                     13.06304   22.17831   10.17241 
 C                     13.07467   23.56949   10.18156 
 C                     13.04828   21.40333   11.47956 
 C                     13.03775   24.35278   11.482 
 C                     12.37814   22.20257   12.56186 
 C                     12.37662   23.55732   12.56742 
 C                     11.12117   20.27584   12.3984 
 C                     11.1223   25.49767   12.41789 
 C                     11.27453   21.4903   13.11642 
 C                     11.27451   24.27203   13.12286 
 C                     8.94375   21.47013   13.6515 
 C                     8.94513   24.29294   13.64862 
 C                     7.70977   22.19788   13.51382 
 C                     7.70957   23.56521   13.51186 
 C                     6.82804   21.49621   12.63028 
 C                     6.83062   24.26693   12.62911 
 C                     6.07935   22.1582   11.63474 
 C                     6.08001   23.60543   11.63407 
 C                     5.78568   21.43829   10.4136 
 C                     5.78921   24.32449   10.41337 
 C                     5.46803   22.15855   9.1967 
 C                     5.47212   23.60512   9.19782 
 C                     5.65625   21.49824   7.96238 
 C                     5.66829   24.26509   7.96356 
 C                     5.96262   22.19442   6.75104 
 C                     5.96884   23.56792   6.75322 
 C                     6.98765   21.46675   6.0403 
 C                     7.00114   24.28882   6.04435 
 C                     8.00097   22.15328   5.38757 
 C                     8.00229   23.59661   5.39407 
 C                     9.33992   21.69493   5.48625 
 C                     9.34952   24.05014   5.50817 
 C                     12.05369   21.62814   6.52647 
 C                     11.83895   24.01843   6.71486 
 C                     10.17993   22.87807   5.43267 
 C                     11.42005   22.87861   5.99377 
 C                     10.17444   22.15931   13.70049 
 C                     10.17345   23.60122   13.70264 
 Cl                    14.74164   20.93511   11.89734 
 Cl                    14.72355   24.85429   11.90948 
 Cl                    13.88366   18.99219   8.44 
 Cl                    13.27779   20.94488   5.38089 
 
 ITRead=  0  0  0  0  0  0  0  0  0  0  0  0  0  0  0  0  0  0  0  0
 ITRead=  0  0  0  0  0  0  0  0  0  0  0  0  0  0  0  0  0  0  0  0
 ITRead=  0  0  0  0  0  0  0  0  0  0  0  0  0  0  0  0  0  0  0  0
 ITRead=  0  0  0  0  0  0  0  0  0  0  0  0  0  0  0  0  0  0  0  0
 ITRead=  0  0  0  0  0  0  0  0
 MicOpt= -1 -1 -1 -1 -1 -1 -1 -1 -1 -1 -1 -1 -1 -1 -1 -1 -1 -1 -1 -1
 MicOpt= -1 -1 -1 -1 -1 -1 -1 -1 -1 -1 -1 -1 -1 -1 -1 -1 -1 -1 -1 -1
 MicOpt= -1 -1 -1 -1 -1 -1 -1 -1 -1 -1 -1 -1 -1 -1 -1 -1 -1 -1 -1 -1
 MicOpt= -1 -1 -1 -1 -1 -1 -1 -1 -1 -1 -1 -1 -1 -1 -1 -1 -1 -1 -1 -1
 MicOpt= -1 -1 -1 -1 -1 -1 -1 -1
 NAtoms=     88 NQM=       88 NQMF=       0 NMMI=      0 NMMIF=      0
                NMic=       0 NMicF=      0.
                    Isotopes and Nuclear Properties:
 (Nuclear quadrupole moments (NQMom) in fm**2, nuclear magnetic moments (NMagM)
  in nuclear magnetons)

  Atom         1           2           3           4           5           6           7           8           9          10
 IAtWgt=          12          12          12          12          12          12          12          12          12          12
 AtmWgt=  12.0000000  12.0000000  12.0000000  12.0000000  12.0000000  12.0000000  12.0000000  12.0000000  12.0000000  12.0000000
 NucSpn=           0           0           0           0           0           0           0           0           0           0
 AtZEff=  -0.0000000  -0.0000000  -0.0000000  -0.0000000  -0.0000000  -0.0000000  -0.0000000  -0.0000000  -0.0000000  -0.0000000
 NQMom=    0.0000000   0.0000000   0.0000000   0.0000000   0.0000000   0.0000000   0.0000000   0.0000000   0.0000000   0.0000000
 NMagM=    0.0000000   0.0000000   0.0000000   0.0000000   0.0000000   0.0000000   0.0000000   0.0000000   0.0000000   0.0000000
 AtZNuc=   6.0000000   6.0000000   6.0000000   6.0000000   6.0000000   6.0000000   6.0000000   6.0000000   6.0000000   6.0000000

  Atom        11          12          13          14          15          16          17          18          19          20
 IAtWgt=          12          12          12          12          12          12          12          12          12          12
 AtmWgt=  12.0000000  12.0000000  12.0000000  12.0000000  12.0000000  12.0000000  12.0000000  12.0000000  12.0000000  12.0000000
 NucSpn=           0           0           0           0           0           0           0           0           0           0
 AtZEff=  -0.0000000  -0.0000000  -0.0000000  -0.0000000  -0.0000000  -0.0000000  -0.0000000  -0.0000000  -0.0000000  -0.0000000
 NQMom=    0.0000000   0.0000000   0.0000000   0.0000000   0.0000000   0.0000000   0.0000000   0.0000000   0.0000000   0.0000000
 NMagM=    0.0000000   0.0000000   0.0000000   0.0000000   0.0000000   0.0000000   0.0000000   0.0000000   0.0000000   0.0000000
 AtZNuc=   6.0000000   6.0000000   6.0000000   6.0000000   6.0000000   6.0000000   6.0000000   6.0000000   6.0000000   6.0000000

  Atom        21          22          23          24          25          26          27          28          29          30
 IAtWgt=          12          12          12          12          12          12          12          12          12          12
 AtmWgt=  12.0000000  12.0000000  12.0000000  12.0000000  12.0000000  12.0000000  12.0000000  12.0000000  12.0000000  12.0000000
 NucSpn=           0           0           0           0           0           0           0           0           0           0
 AtZEff=  -0.0000000  -0.0000000  -0.0000000  -0.0000000  -0.0000000  -0.0000000  -0.0000000  -0.0000000  -0.0000000  -0.0000000
 NQMom=    0.0000000   0.0000000   0.0000000   0.0000000   0.0000000   0.0000000   0.0000000   0.0000000   0.0000000   0.0000000
 NMagM=    0.0000000   0.0000000   0.0000000   0.0000000   0.0000000   0.0000000   0.0000000   0.0000000   0.0000000   0.0000000
 AtZNuc=   6.0000000   6.0000000   6.0000000   6.0000000   6.0000000   6.0000000   6.0000000   6.0000000   6.0000000   6.0000000

  Atom        31          32          33          34          35          36          37          38          39          40
 IAtWgt=          12          12          12          12          12          12          12          12          12          12
 AtmWgt=  12.0000000  12.0000000  12.0000000  12.0000000  12.0000000  12.0000000  12.0000000  12.0000000  12.0000000  12.0000000
 NucSpn=           0           0           0           0           0           0           0           0           0           0
 AtZEff=  -0.0000000  -0.0000000  -0.0000000  -0.0000000  -0.0000000  -0.0000000  -0.0000000  -0.0000000  -0.0000000  -0.0000000
 NQMom=    0.0000000   0.0000000   0.0000000   0.0000000   0.0000000   0.0000000   0.0000000   0.0000000   0.0000000   0.0000000
 NMagM=    0.0000000   0.0000000   0.0000000   0.0000000   0.0000000   0.0000000   0.0000000   0.0000000   0.0000000   0.0000000
 AtZNuc=   6.0000000   6.0000000   6.0000000   6.0000000   6.0000000   6.0000000   6.0000000   6.0000000   6.0000000   6.0000000

  Atom        41          42          43          44          45          46          47          48          49          50
 IAtWgt=          12          12          12          12          12          12          12          12          12          12
 AtmWgt=  12.0000000  12.0000000  12.0000000  12.0000000  12.0000000  12.0000000  12.0000000  12.0000000  12.0000000  12.0000000
 NucSpn=           0           0           0           0           0           0           0           0           0           0
 AtZEff=  -0.0000000  -0.0000000  -0.0000000  -0.0000000  -0.0000000  -0.0000000  -0.0000000  -0.0000000  -0.0000000  -0.0000000
 NQMom=    0.0000000   0.0000000   0.0000000   0.0000000   0.0000000   0.0000000   0.0000000   0.0000000   0.0000000   0.0000000
 NMagM=    0.0000000   0.0000000   0.0000000   0.0000000   0.0000000   0.0000000   0.0000000   0.0000000   0.0000000   0.0000000
 AtZNuc=   6.0000000   6.0000000   6.0000000   6.0000000   6.0000000   6.0000000   6.0000000   6.0000000   6.0000000   6.0000000

  Atom        51          52          53          54          55          56          57          58          59          60
 IAtWgt=          12          12          12          12          12          12          12          12          12          12
 AtmWgt=  12.0000000  12.0000000  12.0000000  12.0000000  12.0000000  12.0000000  12.0000000  12.0000000  12.0000000  12.0000000
 NucSpn=           0           0           0           0           0           0           0           0           0           0
 AtZEff=  -0.0000000  -0.0000000  -0.0000000  -0.0000000  -0.0000000  -0.0000000  -0.0000000  -0.0000000  -0.0000000  -0.0000000
 NQMom=    0.0000000   0.0000000   0.0000000   0.0000000   0.0000000   0.0000000   0.0000000   0.0000000   0.0000000   0.0000000
 NMagM=    0.0000000   0.0000000   0.0000000   0.0000000   0.0000000   0.0000000   0.0000000   0.0000000   0.0000000   0.0000000
 AtZNuc=   6.0000000   6.0000000   6.0000000   6.0000000   6.0000000   6.0000000   6.0000000   6.0000000   6.0000000   6.0000000

  Atom        61          62          63          64          65          66          67          68          69          70
 IAtWgt=          12          12          12          12          12          12          12          12          12          12
 AtmWgt=  12.0000000  12.0000000  12.0000000  12.0000000  12.0000000  12.0000000  12.0000000  12.0000000  12.0000000  12.0000000
 NucSpn=           0           0           0           0           0           0           0           0           0           0
 AtZEff=  -0.0000000  -0.0000000  -0.0000000  -0.0000000  -0.0000000  -0.0000000  -0.0000000  -0.0000000  -0.0000000  -0.0000000
 NQMom=    0.0000000   0.0000000   0.0000000   0.0000000   0.0000000   0.0000000   0.0000000   0.0000000   0.0000000   0.0000000
 NMagM=    0.0000000   0.0000000   0.0000000   0.0000000   0.0000000   0.0000000   0.0000000   0.0000000   0.0000000   0.0000000
 AtZNuc=   6.0000000   6.0000000   6.0000000   6.0000000   6.0000000   6.0000000   6.0000000   6.0000000   6.0000000   6.0000000

  Atom        71          72          73          74          75          76          77          78          79          80
 IAtWgt=          12          12          12          12          12          12          12          12          12          12
 AtmWgt=  12.0000000  12.0000000  12.0000000  12.0000000  12.0000000  12.0000000  12.0000000  12.0000000  12.0000000  12.0000000
 NucSpn=           0           0           0           0           0           0           0           0           0           0
 AtZEff=  -0.0000000  -0.0000000  -0.0000000  -0.0000000  -0.0000000  -0.0000000  -0.0000000  -0.0000000  -0.0000000  -0.0000000
 NQMom=    0.0000000   0.0000000   0.0000000   0.0000000   0.0000000   0.0000000   0.0000000   0.0000000   0.0000000   0.0000000
 NMagM=    0.0000000   0.0000000   0.0000000   0.0000000   0.0000000   0.0000000   0.0000000   0.0000000   0.0000000   0.0000000
 AtZNuc=   6.0000000   6.0000000   6.0000000   6.0000000   6.0000000   6.0000000   6.0000000   6.0000000   6.0000000   6.0000000

  Atom        81          82          83          84          85          86          87          88
 IAtWgt=          12          12          12          12          35          35          35          35
 AtmWgt=  12.0000000  12.0000000  12.0000000  12.0000000  34.9688527  34.9688527  34.9688527  34.9688527
 NucSpn=           0           0           0           0           3           3           3           3
 AtZEff=  -0.0000000  -0.0000000  -0.0000000  -0.0000000  -0.0000000  -0.0000000  -0.0000000  -0.0000000
 NQMom=    0.0000000   0.0000000   0.0000000   0.0000000  -8.1650000  -8.1650000  -8.1650000  -8.1650000
 NMagM=    0.0000000   0.0000000   0.0000000   0.0000000   0.8218740   0.8218740   0.8218740   0.8218740
 AtZNuc=   6.0000000   6.0000000   6.0000000   6.0000000  17.0000000  17.0000000  17.0000000  17.0000000
 Leave Link  101 at Tue Jun 28 09:54:55 2022, MaxMem=  1342177280 cpu:               6.5 elap:               0.3
 (Enter /home/mkliu/g16/l103.exe)

 GradGradGradGradGradGradGradGradGradGradGradGradGradGradGradGradGradGrad
 Berny optimization.
 Initialization pass.
                           ----------------------------
                           !    Initial Parameters    !
                           ! (Angstroms and Degrees)  !
 --------------------------                            --------------------------
 ! Name  Definition              Value          Derivative Info.                !
 --------------------------------------------------------------------------------
 ! R1    R(1,5)                  1.4178         estimate D2E/DX2                !
 ! R2    R(1,17)                 1.4091         estimate D2E/DX2                !
 ! R3    R(1,25)                 1.4403         estimate D2E/DX2                !
 ! R4    R(2,6)                  1.4981         estimate D2E/DX2                !
 ! R5    R(2,43)                 1.5186         estimate D2E/DX2                !
 ! R6    R(2,44)                 1.5065         estimate D2E/DX2                !
 ! R7    R(2,87)                 1.8073         estimate D2E/DX2                !
 ! R8    R(3,7)                  1.4193         estimate D2E/DX2                !
 ! R9    R(3,18)                 1.4101         estimate D2E/DX2                !
 ! R10   R(3,26)                 1.4412         estimate D2E/DX2                !
 ! R11   R(4,8)                  1.4405         estimate D2E/DX2                !
 ! R12   R(4,45)                 1.4185         estimate D2E/DX2                !
 ! R13   R(4,46)                 1.4075         estimate D2E/DX2                !
 ! R14   R(5,9)                  1.4139         estimate D2E/DX2                !
 ! R15   R(5,29)                 1.4346         estimate D2E/DX2                !
 ! R16   R(6,10)                 1.3557         estimate D2E/DX2                !
 ! R17   R(6,15)                 1.4246         estimate D2E/DX2                !
 ! R18   R(7,12)                 1.4153         estimate D2E/DX2                !
 ! R19   R(7,30)                 1.436          estimate D2E/DX2                !
 ! R20   R(8,11)                 1.3623         estimate D2E/DX2                !
 ! R21   R(8,16)                 1.4358         estimate D2E/DX2                !
 ! R22   R(9,13)                 1.4072         estimate D2E/DX2                !
 ! R23   R(9,35)                 1.4417         estimate D2E/DX2                !
 ! R24   R(10,49)                1.5042         estimate D2E/DX2                !
 ! R25   R(10,53)                1.4279         estimate D2E/DX2                !
 ! R26   R(11,50)                1.5084         estimate D2E/DX2                !
 ! R27   R(11,54)                1.4221         estimate D2E/DX2                !
 ! R28   R(12,14)                1.4054         estimate D2E/DX2                !
 ! R29   R(12,36)                1.4537         estimate D2E/DX2                !
 ! R30   R(13,15)                1.4188         estimate D2E/DX2                !
 ! R31   R(13,43)                1.4234         estimate D2E/DX2                !
 ! R32   R(14,16)                1.419          estimate D2E/DX2                !
 ! R33   R(14,46)                1.4418         estimate D2E/DX2                !
 ! R34   R(15,17)                1.4135         estimate D2E/DX2                !
 ! R35   R(16,18)                1.411          estimate D2E/DX2                !
 ! R36   R(17,19)                1.4415         estimate D2E/DX2                !
 ! R37   R(18,20)                1.4476         estimate D2E/DX2                !
 ! R38   R(19,21)                1.4122         estimate D2E/DX2                !
 ! R39   R(19,53)                1.4133         estimate D2E/DX2                !
 ! R40   R(20,22)                1.4106         estimate D2E/DX2                !
 ! R41   R(20,54)                1.4179         estimate D2E/DX2                !
 ! R42   R(21,23)                1.4399         estimate D2E/DX2                !
 ! R43   R(21,57)                1.4165         estimate D2E/DX2                !
 ! R44   R(22,24)                1.4397         estimate D2E/DX2                !
 ! R45   R(22,58)                1.4186         estimate D2E/DX2                !
 ! R46   R(23,25)                1.3676         estimate D2E/DX2                !
 ! R47   R(23,61)                1.4304         estimate D2E/DX2                !
 ! R48   R(24,26)                1.3673         estimate D2E/DX2                !
 ! R49   R(24,62)                1.4316         estimate D2E/DX2                !
 ! R50   R(25,27)                1.4297         estimate D2E/DX2                !
 ! R51   R(26,28)                1.4291         estimate D2E/DX2                !
 ! R52   R(27,29)                1.4301         estimate D2E/DX2                !
 ! R53   R(27,65)                1.409          estimate D2E/DX2                !
 ! R54   R(28,30)                1.4281         estimate D2E/DX2                !
 ! R55   R(28,66)                1.4104         estimate D2E/DX2                !
 ! R56   R(29,31)                1.3631         estimate D2E/DX2                !
 ! R57   R(30,32)                1.3631         estimate D2E/DX2                !
 ! R58   R(31,33)                1.441          estimate D2E/DX2                !
 ! R59   R(31,69)                1.4333         estimate D2E/DX2                !
 ! R60   R(32,34)                1.4404         estimate D2E/DX2                !
 ! R61   R(32,70)                1.4327         estimate D2E/DX2                !
 ! R62   R(33,35)                1.4115         estimate D2E/DX2                !
 ! R63   R(33,73)                1.4173         estimate D2E/DX2                !
 ! R64   R(34,36)                1.4054         estimate D2E/DX2                !
 ! R65   R(34,74)                1.4253         estimate D2E/DX2                !
 ! R66   R(35,37)                1.4453         estimate D2E/DX2                !
 ! R67   R(36,38)                1.4499         estimate D2E/DX2                !
 ! R68   R(37,39)                1.4443         estimate D2E/DX2                !
 ! R69   R(37,77)                1.4098         estimate D2E/DX2                !
 ! R70   R(38,42)                1.4399         estimate D2E/DX2                !
 ! R71   R(38,78)                1.4103         estimate D2E/DX2                !
 ! R72   R(39,43)                1.3641         estimate D2E/DX2                !
 ! R73   R(39,79)                1.5081         estimate D2E/DX2                !
 ! R74   R(40,41)                1.4064         estimate D2E/DX2                !
 ! R75   R(40,44)                1.3723         estimate D2E/DX2                !
 ! R76   R(40,79)                1.5137         estimate D2E/DX2                !
 ! R77   R(41,45)                1.4021         estimate D2E/DX2                !
 ! R78   R(41,80)                1.4301         estimate D2E/DX2                !
 ! R79   R(42,46)                1.4117         estimate D2E/DX2                !
 ! R80   R(42,80)                1.4104         estimate D2E/DX2                !
 ! R81   R(44,47)                1.4247         estimate D2E/DX2                !
 ! R82   R(45,48)                1.4257         estimate D2E/DX2                !
 ! R83   R(47,48)                1.3913         estimate D2E/DX2                !
 ! R84   R(47,49)                1.5197         estimate D2E/DX2                !
 ! R85   R(48,50)                1.5186         estimate D2E/DX2                !
 ! R86   R(49,51)                1.5031         estimate D2E/DX2                !
 ! R87   R(49,85)                1.8059         estimate D2E/DX2                !
 ! R88   R(50,52)                1.4993         estimate D2E/DX2                !
 ! R89   R(50,86)                1.81           estimate D2E/DX2                !
 ! R90   R(51,52)                1.3548         estimate D2E/DX2                !
 ! R91   R(51,55)                1.4258         estimate D2E/DX2                !
 ! R92   R(52,56)                1.4262         estimate D2E/DX2                !
 ! R93   R(53,55)                1.4191         estimate D2E/DX2                !
 ! R94   R(54,56)                1.4221         estimate D2E/DX2                !
 ! R95   R(55,83)                1.4138         estimate D2E/DX2                !
 ! R96   R(56,84)                1.4137         estimate D2E/DX2                !
 ! R97   R(57,59)                1.4392         estimate D2E/DX2                !
 ! R98   R(57,83)                1.4114         estimate D2E/DX2                !
 ! R99   R(58,60)                1.4405         estimate D2E/DX2                !
 ! R100  R(58,84)                1.4107         estimate D2E/DX2                !
 ! R101  R(59,60)                1.3673         estimate D2E/DX2                !
 ! R102  R(59,61)                1.4319         estimate D2E/DX2                !
 ! R103  R(60,62)                1.4298         estimate D2E/DX2                !
 ! R104  R(61,63)                1.4106         estimate D2E/DX2                !
 ! R105  R(62,64)                1.4111         estimate D2E/DX2                !
 ! R106  R(63,64)                1.4472         estimate D2E/DX2                !
 ! R107  R(63,65)                1.4477         estimate D2E/DX2                !
 ! R108  R(64,66)                1.4463         estimate D2E/DX2                !
 ! R109  R(65,67)                1.4493         estimate D2E/DX2                !
 ! R110  R(66,68)                1.4476         estimate D2E/DX2                !
 ! R111  R(67,68)                1.4466         estimate D2E/DX2                !
 ! R112  R(67,69)                1.4124         estimate D2E/DX2                !
 ! R113  R(68,70)                1.4133         estimate D2E/DX2                !
 ! R114  R(69,71)                1.4303         estimate D2E/DX2                !
 ! R115  R(70,72)                1.4287         estimate D2E/DX2                !
 ! R116  R(71,72)                1.3735         estimate D2E/DX2                !
 ! R117  R(71,73)                1.4441         estimate D2E/DX2                !
 ! R118  R(72,74)                1.4449         estimate D2E/DX2                !
 ! R119  R(73,75)                1.3871         estimate D2E/DX2                !
 ! R120  R(74,76)                1.38           estimate D2E/DX2                !
 ! R121  R(75,76)                1.4433         estimate D2E/DX2                !
 ! R122  R(75,77)                1.4187         estimate D2E/DX2                !
 ! R123  R(76,78)                1.4261         estimate D2E/DX2                !
 ! R124  R(77,81)                1.452          estimate D2E/DX2                !
 ! R125  R(78,81)                1.4384         estimate D2E/DX2                !
 ! R126  R(79,82)                1.4997         estimate D2E/DX2                !
 ! R127  R(79,88)                1.8104         estimate D2E/DX2                !
 ! R128  R(80,82)                1.4123         estimate D2E/DX2                !
 ! R129  R(81,82)                1.3611         estimate D2E/DX2                !
 ! R130  R(83,84)                1.4419         estimate D2E/DX2                !
 ! A1    A(5,1,17)             122.1609         estimate D2E/DX2                !
 ! A2    A(5,1,25)             107.2291         estimate D2E/DX2                !
 ! A3    A(17,1,25)            120.195          estimate D2E/DX2                !
 ! A4    A(6,2,43)             101.3453         estimate D2E/DX2                !
 ! A5    A(6,2,44)             110.5606         estimate D2E/DX2                !
 ! A6    A(6,2,87)             112.6626         estimate D2E/DX2                !
 ! A7    A(43,2,44)            110.2849         estimate D2E/DX2                !
 ! A8    A(43,2,87)            111.4717         estimate D2E/DX2                !
 ! A9    A(44,2,87)            110.2301         estimate D2E/DX2                !
 ! A10   A(7,3,18)             122.1789         estimate D2E/DX2                !
 ! A11   A(7,3,26)             107.1789         estimate D2E/DX2                !
 ! A12   A(18,3,26)            120.2291         estimate D2E/DX2                !
 ! A13   A(8,4,45)             119.3175         estimate D2E/DX2                !
 ! A14   A(8,4,46)             107.3768         estimate D2E/DX2                !
 ! A15   A(45,4,46)            121.0418         estimate D2E/DX2                !
 ! A16   A(1,5,9)              122.1492         estimate D2E/DX2                !
 ! A17   A(1,5,29)             107.155          estimate D2E/DX2                !
 ! A18   A(9,5,29)             119.6218         estimate D2E/DX2                !
 ! A19   A(2,6,10)             122.536          estimate D2E/DX2                !
 ! A20   A(2,6,15)             110.5931         estimate D2E/DX2                !
 ! A21   A(10,6,15)            120.0582         estimate D2E/DX2                !
 ! A22   A(3,7,12)             122.5234         estimate D2E/DX2                !
 ! A23   A(3,7,30)             106.9794         estimate D2E/DX2                !
 ! A24   A(12,7,30)            119.718          estimate D2E/DX2                !
 ! A25   A(4,8,11)             120.1407         estimate D2E/DX2                !
 ! A26   A(4,8,16)             108.5043         estimate D2E/DX2                !
 ! A27   A(11,8,16)            121.0011         estimate D2E/DX2                !
 ! A28   A(5,9,13)             115.0947         estimate D2E/DX2                !
 ! A29   A(5,9,35)             120.6417         estimate D2E/DX2                !
 ! A30   A(13,9,35)            118.7753         estimate D2E/DX2                !
 ! A31   A(6,10,49)            122.974          estimate D2E/DX2                !
 ! A32   A(6,10,53)            119.6307         estimate D2E/DX2                !
 ! A33   A(49,10,53)           110.8298         estimate D2E/DX2                !
 ! A34   A(8,11,50)            122.3786         estimate D2E/DX2                !
 ! A35   A(8,11,54)            119.4338         estimate D2E/DX2                !
 ! A36   A(50,11,54)           111.2931         estimate D2E/DX2                !
 ! A37   A(7,12,14)            114.6248         estimate D2E/DX2                !
 ! A38   A(7,12,36)            120.2778         estimate D2E/DX2                !
 ! A39   A(14,12,36)           119.5052         estimate D2E/DX2                !
 ! A40   A(9,13,15)            122.5987         estimate D2E/DX2                !
 ! A41   A(9,13,43)            121.2594         estimate D2E/DX2                !
 ! A42   A(15,13,43)           109.1194         estimate D2E/DX2                !
 ! A43   A(12,14,16)           122.6081         estimate D2E/DX2                !
 ! A44   A(12,14,46)           120.5369         estimate D2E/DX2                !
 ! A45   A(16,14,46)           108.2383         estimate D2E/DX2                !
 ! A46   A(6,15,13)            108.3285         estimate D2E/DX2                !
 ! A47   A(6,15,17)            121.9322         estimate D2E/DX2                !
 ! A48   A(13,15,17)           121.707          estimate D2E/DX2                !
 ! A49   A(8,16,14)            107.1908         estimate D2E/DX2                !
 ! A50   A(8,16,18)            120.7746         estimate D2E/DX2                !
 ! A51   A(14,16,18)           122.3289         estimate D2E/DX2                !
 ! A52   A(1,17,15)            115.4444         estimate D2E/DX2                !
 ! A53   A(1,17,19)            119.5106         estimate D2E/DX2                !
 ! A54   A(15,17,19)           118.0973         estimate D2E/DX2                !
 ! A55   A(3,18,16)            114.8815         estimate D2E/DX2                !
 ! A56   A(3,18,20)            119.3503         estimate D2E/DX2                !
 ! A57   A(16,18,20)           118.3953         estimate D2E/DX2                !
 ! A58   A(17,19,21)           119.1223         estimate D2E/DX2                !
 ! A59   A(17,19,53)           118.2067         estimate D2E/DX2                !
 ! A60   A(21,19,53)           115.7286         estimate D2E/DX2                !
 ! A61   A(18,20,22)           119.0706         estimate D2E/DX2                !
 ! A62   A(18,20,54)           118.7746         estimate D2E/DX2                !
 ! A63   A(22,20,54)           115.2486         estimate D2E/DX2                !
 ! A64   A(19,21,23)           120.2161         estimate D2E/DX2                !
 ! A65   A(19,21,57)           122.0422         estimate D2E/DX2                !
 ! A66   A(23,21,57)           107.2884         estimate D2E/DX2                !
 ! A67   A(20,22,24)           120.3926         estimate D2E/DX2                !
 ! A68   A(20,22,58)           122.2045         estimate D2E/DX2                !
 ! A69   A(24,22,58)           107.1148         estimate D2E/DX2                !
 ! A70   A(21,23,25)           120.4263         estimate D2E/DX2                !
 ! A71   A(21,23,61)           109.7881         estimate D2E/DX2                !
 ! A72   A(25,23,61)           119.152          estimate D2E/DX2                !
 ! A73   A(22,24,26)           120.3736         estimate D2E/DX2                !
 ! A74   A(22,24,62)           109.8629         estimate D2E/DX2                !
 ! A75   A(26,24,62)           119.107          estimate D2E/DX2                !
 ! A76   A(1,25,23)            120.2693         estimate D2E/DX2                !
 ! A77   A(1,25,27)            109.6872         estimate D2E/DX2                !
 ! A78   A(23,25,27)           119.2638         estimate D2E/DX2                !
 ! A79   A(3,26,24)            120.3768         estimate D2E/DX2                !
 ! A80   A(3,26,28)            109.8369         estimate D2E/DX2                !
 ! A81   A(24,26,28)           119.2458         estimate D2E/DX2                !
 ! A82   A(25,27,29)           104.949          estimate D2E/DX2                !
 ! A83   A(25,27,65)           122.4787         estimate D2E/DX2                !
 ! A84   A(29,27,65)           121.5464         estimate D2E/DX2                !
 ! A85   A(26,28,30)           104.877          estimate D2E/DX2                !
 ! A86   A(26,28,66)           122.5667         estimate D2E/DX2                !
 ! A87   A(30,28,66)           121.6465         estimate D2E/DX2                !
 ! A88   A(5,29,27)            109.8645         estimate D2E/DX2                !
 ! A89   A(5,29,31)            119.8348         estimate D2E/DX2                !
 ! A90   A(27,29,31)           119.8392         estimate D2E/DX2                !
 ! A91   A(7,30,28)            110.0995         estimate D2E/DX2                !
 ! A92   A(7,30,32)            119.9284         estimate D2E/DX2                !
 ! A93   A(28,30,32)           119.7712         estimate D2E/DX2                !
 ! A94   A(29,31,33)           120.6032         estimate D2E/DX2                !
 ! A95   A(29,31,69)           119.3178         estimate D2E/DX2                !
 ! A96   A(33,31,69)           109.9377         estimate D2E/DX2                !
 ! A97   A(30,32,34)           120.5814         estimate D2E/DX2                !
 ! A98   A(30,32,70)           119.3168         estimate D2E/DX2                !
 ! A99   A(34,32,70)           110.1129         estimate D2E/DX2                !
 ! A100  A(31,33,35)           120.4647         estimate D2E/DX2                !
 ! A101  A(31,33,73)           106.1627         estimate D2E/DX2                !
 ! A102  A(35,33,73)           122.1467         estimate D2E/DX2                !
 ! A103  A(32,34,36)           120.8193         estimate D2E/DX2                !
 ! A104  A(32,34,74)           105.8661         estimate D2E/DX2                !
 ! A105  A(36,34,74)           122.6151         estimate D2E/DX2                !
 ! A106  A(9,35,33)            117.2425         estimate D2E/DX2                !
 ! A107  A(9,35,37)            119.2992         estimate D2E/DX2                !
 ! A108  A(33,35,37)           118.4155         estimate D2E/DX2                !
 ! A109  A(12,36,34)           117.2432         estimate D2E/DX2                !
 ! A110  A(12,36,38)           119.7573         estimate D2E/DX2                !
 ! A111  A(34,36,38)           117.7274         estimate D2E/DX2                !
 ! A112  A(35,37,39)           119.2372         estimate D2E/DX2                !
 ! A113  A(35,37,77)           118.1996         estimate D2E/DX2                !
 ! A114  A(39,37,77)           118.3289         estimate D2E/DX2                !
 ! A115  A(36,38,42)           119.3349         estimate D2E/DX2                !
 ! A116  A(36,38,78)           118.6328         estimate D2E/DX2                !
 ! A117  A(42,38,78)           116.4159         estimate D2E/DX2                !
 ! A118  A(37,39,43)           120.2973         estimate D2E/DX2                !
 ! A119  A(37,39,79)           121.6917         estimate D2E/DX2                !
 ! A120  A(43,39,79)           116.0484         estimate D2E/DX2                !
 ! A121  A(41,40,44)           120.4343         estimate D2E/DX2                !
 ! A122  A(41,40,79)           109.7864         estimate D2E/DX2                !
 ! A123  A(44,40,79)           125.5194         estimate D2E/DX2                !
 ! A124  A(40,41,45)           121.2437         estimate D2E/DX2                !
 ! A125  A(40,41,80)           109.515          estimate D2E/DX2                !
 ! A126  A(45,41,80)           122.7728         estimate D2E/DX2                !
 ! A127  A(38,42,46)           119.8946         estimate D2E/DX2                !
 ! A128  A(38,42,80)           119.5904         estimate D2E/DX2                !
 ! A129  A(46,42,80)           114.9533         estimate D2E/DX2                !
 ! A130  A(2,43,13)            109.4006         estimate D2E/DX2                !
 ! A131  A(2,43,39)            125.469          estimate D2E/DX2                !
 ! A132  A(13,43,39)           120.9851         estimate D2E/DX2                !
 ! A133  A(2,44,40)            115.7215         estimate D2E/DX2                !
 ! A134  A(2,44,47)            123.3236         estimate D2E/DX2                !
 ! A135  A(40,44,47)           119.3216         estimate D2E/DX2                !
 ! A136  A(4,45,41)            114.9117         estimate D2E/DX2                !
 ! A137  A(4,45,48)            121.9897         estimate D2E/DX2                !
 ! A138  A(41,45,48)           118.2251         estimate D2E/DX2                !
 ! A139  A(4,46,14)            108.5795         estimate D2E/DX2                !
 ! A140  A(4,46,42)            123.082          estimate D2E/DX2                !
 ! A141  A(14,46,42)           120.7121         estimate D2E/DX2                !
 ! A142  A(44,47,48)           120.6538         estimate D2E/DX2                !
 ! A143  A(44,47,49)           118.3616         estimate D2E/DX2                !
 ! A144  A(48,47,49)           120.2884         estimate D2E/DX2                !
 ! A145  A(45,48,47)           119.9459         estimate D2E/DX2                !
 ! A146  A(45,48,50)           117.3732         estimate D2E/DX2                !
 ! A147  A(47,48,50)           121.4134         estimate D2E/DX2                !
 ! A148  A(10,49,47)           110.5569         estimate D2E/DX2                !
 ! A149  A(10,49,51)           100.9593         estimate D2E/DX2                !
 ! A150  A(10,49,85)           112.8284         estimate D2E/DX2                !
 ! A151  A(47,49,51)           110.6418         estimate D2E/DX2                !
 ! A152  A(47,49,85)           108.79           estimate D2E/DX2                !
 ! A153  A(51,49,85)           112.9138         estimate D2E/DX2                !
 ! A154  A(11,50,48)           111.9739         estimate D2E/DX2                !
 ! A155  A(11,50,52)           100.8269         estimate D2E/DX2                !
 ! A156  A(11,50,86)           111.4412         estimate D2E/DX2                !
 ! A157  A(48,50,52)           110.9168         estimate D2E/DX2                !
 ! A158  A(48,50,86)           108.8157         estimate D2E/DX2                !
 ! A159  A(52,50,86)           112.7499         estimate D2E/DX2                !
 ! A160  A(49,51,52)           122.3559         estimate D2E/DX2                !
 ! A161  A(49,51,55)           111.0717         estimate D2E/DX2                !
 ! A162  A(52,51,55)           119.8084         estimate D2E/DX2                !
 ! A163  A(50,52,51)           121.8082         estimate D2E/DX2                !
 ! A164  A(50,52,56)           110.9055         estimate D2E/DX2                !
 ! A165  A(51,52,56)           120.2381         estimate D2E/DX2                !
 ! A166  A(10,53,19)           121.9987         estimate D2E/DX2                !
 ! A167  A(10,53,55)           108.473          estimate D2E/DX2                !
 ! A168  A(19,53,55)           121.889          estimate D2E/DX2                !
 ! A169  A(11,54,20)           121.5714         estimate D2E/DX2                !
 ! A170  A(11,54,56)           107.8997         estimate D2E/DX2                !
 ! A171  A(20,54,56)           122.213          estimate D2E/DX2                !
 ! A172  A(51,55,53)           108.3229         estimate D2E/DX2                !
 ! A173  A(51,55,83)           121.7741         estimate D2E/DX2                !
 ! A174  A(53,55,83)           121.9969         estimate D2E/DX2                !
 ! A175  A(52,56,54)           108.7566         estimate D2E/DX2                !
 ! A176  A(52,56,84)           121.5886         estimate D2E/DX2                !
 ! A177  A(54,56,84)           121.9323         estimate D2E/DX2                !
 ! A178  A(21,57,59)           107.2563         estimate D2E/DX2                !
 ! A179  A(21,57,83)           122.0614         estimate D2E/DX2                !
 ! A180  A(59,57,83)           120.268          estimate D2E/DX2                !
 ! A181  A(22,58,60)           107.3423         estimate D2E/DX2                !
 ! A182  A(22,58,84)           122.3716         estimate D2E/DX2                !
 ! A183  A(60,58,84)           120.1831         estimate D2E/DX2                !
 ! A184  A(57,59,60)           120.3932         estimate D2E/DX2                !
 ! A185  A(57,59,61)           109.828          estimate D2E/DX2                !
 ! A186  A(60,59,61)           119.2777         estimate D2E/DX2                !
 ! A187  A(58,60,59)           120.3276         estimate D2E/DX2                !
 ! A188  A(58,60,62)           109.7536         estimate D2E/DX2                !
 ! A189  A(59,60,62)           119.4573         estimate D2E/DX2                !
 ! A190  A(23,61,59)           105.0352         estimate D2E/DX2                !
 ! A191  A(23,61,63)           122.2571         estimate D2E/DX2                !
 ! A192  A(59,61,63)           122.1617         estimate D2E/DX2                !
 ! A193  A(24,62,60)           105.1031         estimate D2E/DX2                !
 ! A194  A(24,62,64)           122.3505         estimate D2E/DX2                !
 ! A195  A(60,62,64)           122.1616         estimate D2E/DX2                !
 ! A196  A(61,63,64)           117.9941         estimate D2E/DX2                !
 ! A197  A(61,63,65)           118.0085         estimate D2E/DX2                !
 ! A198  A(64,63,65)           119.8015         estimate D2E/DX2                !
 ! A199  A(62,64,63)           117.9506         estimate D2E/DX2                !
 ! A200  A(62,64,66)           117.9737         estimate D2E/DX2                !
 ! A201  A(63,64,66)           119.8333         estimate D2E/DX2                !
 ! A202  A(27,65,63)           117.6187         estimate D2E/DX2                !
 ! A203  A(27,65,67)           117.9339         estimate D2E/DX2                !
 ! A204  A(63,65,67)           120.3703         estimate D2E/DX2                !
 ! A205  A(28,66,64)           117.6159         estimate D2E/DX2                !
 ! A206  A(28,66,68)           117.9285         estimate D2E/DX2                !
 ! A207  A(64,66,68)           120.3776         estimate D2E/DX2                !
 ! A208  A(65,67,68)           119.7151         estimate D2E/DX2                !
 ! A209  A(65,67,69)           118.1785         estimate D2E/DX2                !
 ! A210  A(68,67,69)           117.8913         estimate D2E/DX2                !
 ! A211  A(66,68,67)           119.8814         estimate D2E/DX2                !
 ! A212  A(66,68,70)           118.0895         estimate D2E/DX2                !
 ! A213  A(67,68,70)           117.8191         estimate D2E/DX2                !
 ! A214  A(31,69,67)           121.3457         estimate D2E/DX2                !
 ! A215  A(31,69,71)           105.3828         estimate D2E/DX2                !
 ! A216  A(67,69,71)           122.758          estimate D2E/DX2                !
 ! A217  A(32,70,68)           121.4302         estimate D2E/DX2                !
 ! A218  A(32,70,72)           105.5489         estimate D2E/DX2                !
 ! A219  A(68,70,72)           122.7617         estimate D2E/DX2                !
 ! A220  A(69,71,72)           119.1004         estimate D2E/DX2                !
 ! A221  A(69,71,73)           108.8809         estimate D2E/DX2                !
 ! A222  A(72,71,73)           120.0971         estimate D2E/DX2                !
 ! A223  A(70,72,71)           119.2324         estimate D2E/DX2                !
 ! A224  A(70,72,74)           108.8099         estimate D2E/DX2                !
 ! A225  A(71,72,74)           120.0902         estimate D2E/DX2                !
 ! A226  A(33,73,71)           108.3608         estimate D2E/DX2                !
 ! A227  A(33,73,75)           119.205          estimate D2E/DX2                !
 ! A228  A(71,73,75)           120.0485         estimate D2E/DX2                !
 ! A229  A(34,74,72)           108.376          estimate D2E/DX2                !
 ! A230  A(34,74,76)           119.5712         estimate D2E/DX2                !
 ! A231  A(72,74,76)           119.9488         estimate D2E/DX2                !
 ! A232  A(73,75,76)           119.5686         estimate D2E/DX2                !
 ! A233  A(73,75,77)           119.7904         estimate D2E/DX2                !
 ! A234  A(76,75,77)           108.7777         estimate D2E/DX2                !
 ! A235  A(74,76,75)           120.2026         estimate D2E/DX2                !
 ! A236  A(74,76,78)           119.2184         estimate D2E/DX2                !
 ! A237  A(75,76,78)           108.6172         estimate D2E/DX2                !
 ! A238  A(37,77,75)           121.9251         estimate D2E/DX2                !
 ! A239  A(37,77,81)           120.3031         estimate D2E/DX2                !
 ! A240  A(75,77,81)           106.2717         estimate D2E/DX2                !
 ! A241  A(38,78,76)           122.1216         estimate D2E/DX2                !
 ! A242  A(38,78,81)           122.0635         estimate D2E/DX2                !
 ! A243  A(76,78,81)           106.3828         estimate D2E/DX2                !
 ! A244  A(39,79,40)           110.5223         estimate D2E/DX2                !
 ! A245  A(39,79,82)           111.9853         estimate D2E/DX2                !
 ! A246  A(39,79,88)           109.8334         estimate D2E/DX2                !
 ! A247  A(40,79,82)           100.7733         estimate D2E/DX2                !
 ! A248  A(40,79,88)           111.4091         estimate D2E/DX2                !
 ! A249  A(82,79,88)           112.0622         estimate D2E/DX2                !
 ! A250  A(41,80,42)           120.8372         estimate D2E/DX2                !
 ! A251  A(41,80,82)           107.3169         estimate D2E/DX2                !
 ! A252  A(42,80,82)           122.3581         estimate D2E/DX2                !
 ! A253  A(77,81,78)           109.1491         estimate D2E/DX2                !
 ! A254  A(77,81,82)           120.8101         estimate D2E/DX2                !
 ! A255  A(78,81,82)           120.2663         estimate D2E/DX2                !
 ! A256  A(79,82,80)           111.4857         estimate D2E/DX2                !
 ! A257  A(79,82,81)           122.0765         estimate D2E/DX2                !
 ! A258  A(80,82,81)           118.7524         estimate D2E/DX2                !
 ! A259  A(55,83,57)           115.6633         estimate D2E/DX2                !
 ! A260  A(55,83,84)           118.3164         estimate D2E/DX2                !
 ! A261  A(57,83,84)           119.1933         estimate D2E/DX2                !
 ! A262  A(56,84,58)           115.4536         estimate D2E/DX2                !
 ! A263  A(56,84,83)           118.2533         estimate D2E/DX2                !
 ! A264  A(58,84,83)           119.3977         estimate D2E/DX2                !
 ! D1    D(17,1,5,9)            -3.1336         estimate D2E/DX2                !
 ! D2    D(17,1,5,29)         -146.7421         estimate D2E/DX2                !
 ! D3    D(25,1,5,9)           141.6528         estimate D2E/DX2                !
 ! D4    D(25,1,5,29)           -1.9558         estimate D2E/DX2                !
 ! D5    D(5,1,17,15)           -5.3841         estimate D2E/DX2                !
 ! D6    D(5,1,17,19)          144.9139         estimate D2E/DX2                !
 ! D7    D(25,1,17,15)        -145.8            estimate D2E/DX2                !
 ! D8    D(25,1,17,19)           4.498          estimate D2E/DX2                !
 ! D9    D(5,1,25,23)         -148.9118         estimate D2E/DX2                !
 ! D10   D(5,1,25,27)           -4.8198         estimate D2E/DX2                !
 ! D11   D(17,1,25,23)          -3.2987         estimate D2E/DX2                !
 ! D12   D(17,1,25,27)         140.7933         estimate D2E/DX2                !
 ! D13   D(43,2,6,10)         -141.2151         estimate D2E/DX2                !
 ! D14   D(43,2,6,15)            9.757          estimate D2E/DX2                !
 ! D15   D(44,2,6,10)          -24.2843         estimate D2E/DX2                !
 ! D16   D(44,2,6,15)          126.6877         estimate D2E/DX2                !
 ! D17   D(87,2,6,10)           99.5527         estimate D2E/DX2                !
 ! D18   D(87,2,6,15)         -109.4753         estimate D2E/DX2                !
 ! D19   D(6,2,43,13)          -10.9377         estimate D2E/DX2                !
 ! D20   D(6,2,43,39)          146.1471         estimate D2E/DX2                !
 ! D21   D(44,2,43,13)        -128.0696         estimate D2E/DX2                !
 ! D22   D(44,2,43,39)          29.0151         estimate D2E/DX2                !
 ! D23   D(87,2,43,13)         109.1425         estimate D2E/DX2                !
 ! D24   D(87,2,43,39)         -93.7728         estimate D2E/DX2                !
 ! D25   D(6,2,44,40)         -145.0066         estimate D2E/DX2                !
 ! D26   D(6,2,44,47)           20.2898         estimate D2E/DX2                !
 ! D27   D(43,2,44,40)         -33.7445         estimate D2E/DX2                !
 ! D28   D(43,2,44,47)         131.552          estimate D2E/DX2                !
 ! D29   D(87,2,44,40)          89.7675         estimate D2E/DX2                !
 ! D30   D(87,2,44,47)        -104.936          estimate D2E/DX2                !
 ! D31   D(18,3,7,12)            2.9579         estimate D2E/DX2                !
 ! D32   D(18,3,7,30)          146.9981         estimate D2E/DX2                !
 ! D33   D(26,3,7,12)         -141.8407         estimate D2E/DX2                !
 ! D34   D(26,3,7,30)            2.1995         estimate D2E/DX2                !
 ! D35   D(7,3,18,16)            5.5513         estimate D2E/DX2                !
 ! D36   D(7,3,18,20)         -144.0142         estimate D2E/DX2                !
 ! D37   D(26,3,18,16)         145.9522         estimate D2E/DX2                !
 ! D38   D(26,3,18,20)          -3.6133         estimate D2E/DX2                !
 ! D39   D(7,3,26,24)          148.752          estimate D2E/DX2                !
 ! D40   D(7,3,26,28)            4.315          estimate D2E/DX2                !
 ! D41   D(18,3,26,24)           3.1328         estimate D2E/DX2                !
 ! D42   D(18,3,26,28)        -141.3042         estimate D2E/DX2                !
 ! D43   D(45,4,8,11)            5.9554         estimate D2E/DX2                !
 ! D44   D(45,4,8,16)         -139.3677         estimate D2E/DX2                !
 ! D45   D(46,4,8,11)          148.6514         estimate D2E/DX2                !
 ! D46   D(46,4,8,16)            3.3283         estimate D2E/DX2                !
 ! D47   D(8,4,45,41)          152.5092         estimate D2E/DX2                !
 ! D48   D(8,4,45,48)           -2.3023         estimate D2E/DX2                !
 ! D49   D(46,4,45,41)          14.968          estimate D2E/DX2                !
 ! D50   D(46,4,45,48)        -139.8435         estimate D2E/DX2                !
 ! D51   D(8,4,46,14)           -2.1388         estimate D2E/DX2                !
 ! D52   D(8,4,46,42)         -151.6837         estimate D2E/DX2                !
 ! D53   D(45,4,46,14)         139.7824         estimate D2E/DX2                !
 ! D54   D(45,4,46,42)          -9.7625         estimate D2E/DX2                !
 ! D55   D(1,5,9,13)             8.1144         estimate D2E/DX2                !
 ! D56   D(1,5,9,35)          -145.4249         estimate D2E/DX2                !
 ! D57   D(29,5,9,13)          147.4118         estimate D2E/DX2                !
 ! D58   D(29,5,9,35)           -6.1275         estimate D2E/DX2                !
 ! D59   D(1,5,29,27)            8.0887         estimate D2E/DX2                !
 ! D60   D(1,5,29,31)          152.8827         estimate D2E/DX2                !
 ! D61   D(9,5,29,27)         -136.6121         estimate D2E/DX2                !
 ! D62   D(9,5,29,31)            8.1819         estimate D2E/DX2                !
 ! D63   D(2,6,10,49)           -0.2959         estimate D2E/DX2                !
 ! D64   D(2,6,10,53)          148.6463         estimate D2E/DX2                !
 ! D65   D(15,6,10,49)        -148.6406         estimate D2E/DX2                !
 ! D66   D(15,6,10,53)           0.3017         estimate D2E/DX2                !
 ! D67   D(2,6,15,13)           -5.2729         estimate D2E/DX2                !
 ! D68   D(2,6,15,17)         -154.4597         estimate D2E/DX2                !
 ! D69   D(10,6,15,13)         146.5211         estimate D2E/DX2                !
 ! D70   D(10,6,15,17)          -2.6656         estimate D2E/DX2                !
 ! D71   D(3,7,12,14)           -8.1036         estimate D2E/DX2                !
 ! D72   D(3,7,12,36)          145.3991         estimate D2E/DX2                !
 ! D73   D(30,7,12,14)        -147.8124         estimate D2E/DX2                !
 ! D74   D(30,7,12,36)           5.6904         estimate D2E/DX2                !
 ! D75   D(3,7,30,28)           -8.0108         estimate D2E/DX2                !
 ! D76   D(3,7,30,32)         -153.1718         estimate D2E/DX2                !
 ! D77   D(12,7,30,28)         137.2314         estimate D2E/DX2                !
 ! D78   D(12,7,30,32)          -7.9295         estimate D2E/DX2                !
 ! D79   D(4,8,11,50)            9.9694         estimate D2E/DX2                !
 ! D80   D(4,8,11,54)         -138.4064         estimate D2E/DX2                !
 ! D81   D(16,8,11,50)         150.9603         estimate D2E/DX2                !
 ! D82   D(16,8,11,54)           2.5844         estimate D2E/DX2                !
 ! D83   D(4,8,16,14)           -3.2224         estimate D2E/DX2                !
 ! D84   D(4,8,16,18)          143.4735         estimate D2E/DX2                !
 ! D85   D(11,8,16,14)        -148.1916         estimate D2E/DX2                !
 ! D86   D(11,8,16,18)          -1.4956         estimate D2E/DX2                !
 ! D87   D(5,9,13,15)           -4.7999         estimate D2E/DX2                !
 ! D88   D(5,9,13,43)         -152.2591         estimate D2E/DX2                !
 ! D89   D(35,9,13,15)         149.2634         estimate D2E/DX2                !
 ! D90   D(35,9,13,43)           1.8042         estimate D2E/DX2                !
 ! D91   D(5,9,35,33)           -4.4827         estimate D2E/DX2                !
 ! D92   D(5,9,35,37)          150.028          estimate D2E/DX2                !
 ! D93   D(13,9,35,33)        -157.0714         estimate D2E/DX2                !
 ! D94   D(13,9,35,37)          -2.5607         estimate D2E/DX2                !
 ! D95   D(6,10,49,47)          28.4941         estimate D2E/DX2                !
 ! D96   D(6,10,49,51)         145.6307         estimate D2E/DX2                !
 ! D97   D(6,10,49,85)         -93.5858         estimate D2E/DX2                !
 ! D98   D(53,10,49,47)       -122.8338         estimate D2E/DX2                !
 ! D99   D(53,10,49,51)         -5.6972         estimate D2E/DX2                !
 ! D100  D(53,10,49,85)        115.0863         estimate D2E/DX2                !
 ! D101  D(6,10,53,19)           1.5576         estimate D2E/DX2                !
 ! D102  D(6,10,53,55)        -148.3826         estimate D2E/DX2                !
 ! D103  D(49,10,53,19)        153.9726         estimate D2E/DX2                !
 ! D104  D(49,10,53,55)          4.0323         estimate D2E/DX2                !
 ! D105  D(8,11,50,48)         -26.9995         estimate D2E/DX2                !
 ! D106  D(8,11,50,52)        -144.9769         estimate D2E/DX2                !
 ! D107  D(8,11,50,86)          95.1488         estimate D2E/DX2                !
 ! D108  D(54,11,50,48)        123.6519         estimate D2E/DX2                !
 ! D109  D(54,11,50,52)          5.6745         estimate D2E/DX2                !
 ! D110  D(54,11,50,86)       -114.1999         estimate D2E/DX2                !
 ! D111  D(8,11,54,20)          -1.7624         estimate D2E/DX2                !
 ! D112  D(8,11,54,56)         147.106          estimate D2E/DX2                !
 ! D113  D(50,11,54,20)       -153.3856         estimate D2E/DX2                !
 ! D114  D(50,11,54,56)         -4.5172         estimate D2E/DX2                !
 ! D115  D(7,12,14,16)           4.937          estimate D2E/DX2                !
 ! D116  D(7,12,14,46)         148.9103         estimate D2E/DX2                !
 ! D117  D(36,12,14,16)       -148.7861         estimate D2E/DX2                !
 ! D118  D(36,12,14,46)         -4.8127         estimate D2E/DX2                !
 ! D119  D(7,12,36,34)           4.4625         estimate D2E/DX2                !
 ! D120  D(7,12,36,38)        -149.3264         estimate D2E/DX2                !
 ! D121  D(14,12,36,34)        156.6864         estimate D2E/DX2                !
 ! D122  D(14,12,36,38)          2.8975         estimate D2E/DX2                !
 ! D123  D(9,13,15,6)         -152.9775         estimate D2E/DX2                !
 ! D124  D(9,13,15,17)          -3.7076         estimate D2E/DX2                !
 ! D125  D(43,13,15,6)          -2.0985         estimate D2E/DX2                !
 ! D126  D(43,13,15,17)        147.1714         estimate D2E/DX2                !
 ! D127  D(9,13,43,2)          159.8797         estimate D2E/DX2                !
 ! D128  D(9,13,43,39)           1.589          estimate D2E/DX2                !
 ! D129  D(15,13,43,2)           8.5401         estimate D2E/DX2                !
 ! D130  D(15,13,43,39)       -149.7505         estimate D2E/DX2                !
 ! D131  D(12,14,16,8)         149.6599         estimate D2E/DX2                !
 ! D132  D(12,14,16,18)          3.5986         estimate D2E/DX2                !
 ! D133  D(46,14,16,8)           1.894          estimate D2E/DX2                !
 ! D134  D(46,14,16,18)       -144.1673         estimate D2E/DX2                !
 ! D135  D(12,14,46,4)        -148.3994         estimate D2E/DX2                !
 ! D136  D(12,14,46,42)          1.9982         estimate D2E/DX2                !
 ! D137  D(16,14,46,4)           0.157          estimate D2E/DX2                !
 ! D138  D(16,14,46,42)        150.5546         estimate D2E/DX2                !
 ! D139  D(6,15,17,1)          153.8134         estimate D2E/DX2                !
 ! D140  D(6,15,17,19)           3.0759         estimate D2E/DX2                !
 ! D141  D(13,15,17,1)           8.6727         estimate D2E/DX2                !
 ! D142  D(13,15,17,19)       -142.0648         estimate D2E/DX2                !
 ! D143  D(8,16,18,3)         -150.3483         estimate D2E/DX2                !
 ! D144  D(8,16,18,20)          -0.4753         estimate D2E/DX2                !
 ! D145  D(14,16,18,3)          -8.7212         estimate D2E/DX2                !
 ! D146  D(14,16,18,20)        141.1518         estimate D2E/DX2                !
 ! D147  D(1,17,19,21)          -1.0977         estimate D2E/DX2                !
 ! D148  D(1,17,19,53)        -150.7179         estimate D2E/DX2                !
 ! D149  D(15,17,19,21)        148.4247         estimate D2E/DX2                !
 ! D150  D(15,17,19,53)         -1.1955         estimate D2E/DX2                !
 ! D151  D(3,18,20,22)           0.2186         estimate D2E/DX2                !
 ! D152  D(3,18,20,54)         149.7693         estimate D2E/DX2                !
 ! D153  D(16,18,20,22)       -148.2891         estimate D2E/DX2                !
 ! D154  D(16,18,20,54)          1.2616         estimate D2E/DX2                !
 ! D155  D(17,19,21,23)         -3.4919         estimate D2E/DX2                !
 ! D156  D(17,19,21,57)       -143.8663         estimate D2E/DX2                !
 ! D157  D(53,19,21,23)        146.8568         estimate D2E/DX2                !
 ! D158  D(53,19,21,57)          6.4824         estimate D2E/DX2                !
 ! D159  D(17,19,53,10)         -1.0762         estimate D2E/DX2                !
 ! D160  D(17,19,53,55)        144.8996         estimate D2E/DX2                !
 ! D161  D(21,19,53,10)       -151.7082         estimate D2E/DX2                !
 ! D162  D(21,19,53,55)         -5.7324         estimate D2E/DX2                !
 ! D163  D(18,20,22,24)          3.681          estimate D2E/DX2                !
 ! D164  D(18,20,22,58)        144.2709         estimate D2E/DX2                !
 ! D165  D(54,20,22,24)       -146.9049         estimate D2E/DX2                !
 ! D166  D(54,20,22,58)         -6.315          estimate D2E/DX2                !
 ! D167  D(18,20,54,11)         -0.1849         estimate D2E/DX2                !
 ! D168  D(18,20,54,56)       -144.6295         estimate D2E/DX2                !
 ! D169  D(22,20,54,11)        150.4931         estimate D2E/DX2                !
 ! D170  D(22,20,54,56)          6.0484         estimate D2E/DX2                !
 ! D171  D(19,21,23,25)          4.7725         estimate D2E/DX2                !
 ! D172  D(19,21,23,61)       -139.4888         estimate D2E/DX2                !
 ! D173  D(57,21,23,25)        150.2876         estimate D2E/DX2                !
 ! D174  D(57,21,23,61)          6.0263         estimate D2E/DX2                !
 ! D175  D(19,21,57,59)        144.1967         estimate D2E/DX2                !
 ! D176  D(19,21,57,83)         -0.6243         estimate D2E/DX2                !
 ! D177  D(23,21,57,59)         -0.5498         estimate D2E/DX2                !
 ! D178  D(23,21,57,83)       -145.3709         estimate D2E/DX2                !
 ! D179  D(20,22,24,26)         -4.2469         estimate D2E/DX2                !
 ! D180  D(20,22,24,62)        139.9684         estimate D2E/DX2                !
 ! D181  D(58,22,24,26)       -150.0469         estimate D2E/DX2                !
 ! D182  D(58,22,24,62)         -5.8315         estimate D2E/DX2                !
 ! D183  D(20,22,58,60)       -144.8054         estimate D2E/DX2                !
 ! D184  D(20,22,58,84)          0.4382         estimate D2E/DX2                !
 ! D185  D(24,22,58,60)          0.2351         estimate D2E/DX2                !
 ! D186  D(24,22,58,84)        145.4787         estimate D2E/DX2                !
 ! D187  D(21,23,25,1)          -1.3485         estimate D2E/DX2                !
 ! D188  D(21,23,25,27)       -142.0777         estimate D2E/DX2                !
 ! D189  D(61,23,25,1)         139.6519         estimate D2E/DX2                !
 ! D190  D(61,23,25,27)         -1.0773         estimate D2E/DX2                !
 ! D191  D(21,23,61,59)         -8.9252         estimate D2E/DX2                !
 ! D192  D(21,23,61,63)        136.2896         estimate D2E/DX2                !
 ! D193  D(25,23,61,59)       -153.7064         estimate D2E/DX2                !
 ! D194  D(25,23,61,63)         -8.4916         estimate D2E/DX2                !
 ! D195  D(22,24,26,3)           0.806          estimate D2E/DX2                !
 ! D196  D(22,24,26,28)        141.976          estimate D2E/DX2                !
 ! D197  D(62,24,26,3)        -140.185          estimate D2E/DX2                !
 ! D198  D(62,24,26,28)          0.9851         estimate D2E/DX2                !
 ! D199  D(22,24,62,60)          8.9581         estimate D2E/DX2                !
 ! D200  D(22,24,62,64)       -136.4881         estimate D2E/DX2                !
 ! D201  D(26,24,62,60)        153.6902         estimate D2E/DX2                !
 ! D202  D(26,24,62,64)          8.244          estimate D2E/DX2                !
 ! D203  D(1,25,27,29)           9.5171         estimate D2E/DX2                !
 ! D204  D(1,25,27,65)        -134.7622         estimate D2E/DX2                !
 ! D205  D(23,25,27,29)        154.0224         estimate D2E/DX2                !
 ! D206  D(23,25,27,65)          9.7431         estimate D2E/DX2                !
 ! D207  D(3,26,28,30)          -8.9713         estimate D2E/DX2                !
 ! D208  D(3,26,28,66)         135.5005         estimate D2E/DX2                !
 ! D209  D(24,26,28,30)       -153.8677         estimate D2E/DX2                !
 ! D210  D(24,26,28,66)         -9.3959         estimate D2E/DX2                !
 ! D211  D(25,27,29,5)         -10.7881         estimate D2E/DX2                !
 ! D212  D(25,27,29,31)       -155.5804         estimate D2E/DX2                !
 ! D213  D(65,27,29,5)         133.9071         estimate D2E/DX2                !
 ! D214  D(65,27,29,31)        -10.8851         estimate D2E/DX2                !
 ! D215  D(25,27,65,63)         -8.6178         estimate D2E/DX2                !
 ! D216  D(25,27,65,67)        148.7914         estimate D2E/DX2                !
 ! D217  D(29,27,65,63)       -147.1736         estimate D2E/DX2                !
 ! D218  D(29,27,65,67)         10.2357         estimate D2E/DX2                !
 ! D219  D(26,28,30,7)          10.4097         estimate D2E/DX2                !
 ! D220  D(26,28,30,32)        155.6333         estimate D2E/DX2                !
 ! D221  D(66,28,30,7)        -134.4713         estimate D2E/DX2                !
 ! D222  D(66,28,30,32)         10.7523         estimate D2E/DX2                !
 ! D223  D(26,28,66,64)          8.3725         estimate D2E/DX2                !
 ! D224  D(26,28,66,68)       -149.0363         estimate D2E/DX2                !
 ! D225  D(30,28,66,64)        147.0937         estimate D2E/DX2                !
 ! D226  D(30,28,66,68)        -10.3152         estimate D2E/DX2                !
 ! D227  D(5,29,31,33)           0.4981         estimate D2E/DX2                !
 ! D228  D(5,29,31,69)        -141.3653         estimate D2E/DX2                !
 ! D229  D(27,29,31,33)        141.8097         estimate D2E/DX2                !
 ! D230  D(27,29,31,69)         -0.0537         estimate D2E/DX2                !
 ! D231  D(7,30,32,34)          -0.1231         estimate D2E/DX2                !
 ! D232  D(7,30,32,70)         142.0585         estimate D2E/DX2                !
 ! D233  D(28,30,32,34)       -141.9488         estimate D2E/DX2                !
 ! D234  D(28,30,32,70)          0.2328         estimate D2E/DX2                !
 ! D235  D(29,31,33,35)        -11.5194         estimate D2E/DX2                !
 ! D236  D(29,31,33,73)       -155.9285         estimate D2E/DX2                !
 ! D237  D(69,31,33,35)        133.5368         estimate D2E/DX2                !
 ! D238  D(69,31,33,73)        -10.8723         estimate D2E/DX2                !
 ! D239  D(29,31,69,67)         11.4462         estimate D2E/DX2                !
 ! D240  D(29,31,69,71)        157.0026         estimate D2E/DX2                !
 ! D241  D(33,31,69,67)       -134.1229         estimate D2E/DX2                !
 ! D242  D(33,31,69,71)         11.4336         estimate D2E/DX2                !
 ! D243  D(30,32,34,36)         10.7354         estimate D2E/DX2                !
 ! D244  D(30,32,34,74)        156.0243         estimate D2E/DX2                !
 ! D245  D(70,32,34,36)       -134.5596         estimate D2E/DX2                !
 ! D246  D(70,32,34,74)         10.7294         estimate D2E/DX2                !
 ! D247  D(30,32,70,68)        -11.4745         estimate D2E/DX2                !
 ! D248  D(30,32,70,72)       -157.4022         estimate D2E/DX2                !
 ! D249  D(34,32,70,68)        134.3204         estimate D2E/DX2                !
 ! D250  D(34,32,70,72)        -11.6074         estimate D2E/DX2                !
 ! D251  D(31,33,35,9)          13.1923         estimate D2E/DX2                !
 ! D252  D(31,33,35,37)       -141.5493         estimate D2E/DX2                !
 ! D253  D(73,33,35,9)         151.8766         estimate D2E/DX2                !
 ! D254  D(73,33,35,37)         -2.865          estimate D2E/DX2                !
 ! D255  D(31,33,73,71)          5.8582         estimate D2E/DX2                !
 ! D256  D(31,33,73,75)        148.0395         estimate D2E/DX2                !
 ! D257  D(35,33,73,71)       -137.8088         estimate D2E/DX2                !
 ! D258  D(35,33,73,75)          4.3725         estimate D2E/DX2                !
 ! D259  D(32,34,36,12)        -12.5905         estimate D2E/DX2                !
 ! D260  D(32,34,36,38)        141.74           estimate D2E/DX2                !
 ! D261  D(74,34,36,12)       -152.0273         estimate D2E/DX2                !
 ! D262  D(74,34,36,38)          2.3032         estimate D2E/DX2                !
 ! D263  D(32,34,74,72)         -5.5085         estimate D2E/DX2                !
 ! D264  D(32,34,74,76)       -148.0057         estimate D2E/DX2                !
 ! D265  D(36,34,74,72)        139.0004         estimate D2E/DX2                !
 ! D266  D(36,34,74,76)         -3.4968         estimate D2E/DX2                !
 ! D267  D(9,35,37,39)           0.12           estimate D2E/DX2                !
 ! D268  D(9,35,37,77)        -156.3959         estimate D2E/DX2                !
 ! D269  D(33,35,37,39)        154.3335         estimate D2E/DX2                !
 ! D270  D(33,35,37,77)         -2.1824         estimate D2E/DX2                !
 ! D271  D(12,36,38,42)          1.8174         estimate D2E/DX2                !
 ! D272  D(12,36,38,78)        154.4706         estimate D2E/DX2                !
 ! D273  D(34,36,38,42)       -151.8472         estimate D2E/DX2                !
 ! D274  D(34,36,38,78)          0.806          estimate D2E/DX2                !
 ! D275  D(35,37,39,43)          3.2523         estimate D2E/DX2                !
 ! D276  D(35,37,39,79)       -160.1773         estimate D2E/DX2                !
 ! D277  D(77,37,39,43)        159.738          estimate D2E/DX2                !
 ! D278  D(77,37,39,79)         -3.6917         estimate D2E/DX2                !
 ! D279  D(35,37,77,75)          5.8474         estimate D2E/DX2                !
 ! D280  D(35,37,77,81)        144.1355         estimate D2E/DX2                !
 ! D281  D(39,37,77,75)       -150.8842         estimate D2E/DX2                !
 ! D282  D(39,37,77,81)        -12.5961         estimate D2E/DX2                !
 ! D283  D(36,38,42,46)         -4.6434         estimate D2E/DX2                !
 ! D284  D(36,38,42,80)        147.741          estimate D2E/DX2                !
 ! D285  D(78,38,42,46)       -157.8866         estimate D2E/DX2                !
 ! D286  D(78,38,42,80)         -5.5022         estimate D2E/DX2                !
 ! D287  D(36,38,78,76)         -2.8008         estimate D2E/DX2                !
 ! D288  D(36,38,78,81)       -144.6378         estimate D2E/DX2                !
 ! D289  D(42,38,78,76)        150.6376         estimate D2E/DX2                !
 ! D290  D(42,38,78,81)          8.8006         estimate D2E/DX2                !
 ! D291  D(37,39,43,2)        -158.7566         estimate D2E/DX2                !
 ! D292  D(37,39,43,13)         -4.1222         estimate D2E/DX2                !
 ! D293  D(79,39,43,2)           5.573          estimate D2E/DX2                !
 ! D294  D(79,39,43,13)        160.2075         estimate D2E/DX2                !
 ! D295  D(37,39,79,40)        131.6194         estimate D2E/DX2                !
 ! D296  D(37,39,79,82)         20.1275         estimate D2E/DX2                !
 ! D297  D(37,39,79,88)       -105.0582         estimate D2E/DX2                !
 ! D298  D(43,39,79,40)        -32.4734         estimate D2E/DX2                !
 ! D299  D(43,39,79,82)       -143.9653         estimate D2E/DX2                !
 ! D300  D(43,39,79,88)         90.8491         estimate D2E/DX2                !
 ! D301  D(44,40,41,45)          3.2966         estimate D2E/DX2                !
 ! D302  D(44,40,41,80)       -149.1686         estimate D2E/DX2                !
 ! D303  D(79,40,41,45)        161.3386         estimate D2E/DX2                !
 ! D304  D(79,40,41,80)          8.8735         estimate D2E/DX2                !
 ! D305  D(41,40,44,2)         161.4826         estimate D2E/DX2                !
 ! D306  D(41,40,44,47)         -4.439          estimate D2E/DX2                !
 ! D307  D(79,40,44,2)           7.0956         estimate D2E/DX2                !
 ! D308  D(79,40,44,47)       -158.826          estimate D2E/DX2                !
 ! D309  D(41,40,79,39)       -129.1521         estimate D2E/DX2                !
 ! D310  D(41,40,79,82)        -10.5883         estimate D2E/DX2                !
 ! D311  D(41,40,79,88)        108.4434         estimate D2E/DX2                !
 ! D312  D(44,40,79,39)         27.5126         estimate D2E/DX2                !
 ! D313  D(44,40,79,82)        146.0764         estimate D2E/DX2                !
 ! D314  D(44,40,79,88)        -94.8919         estimate D2E/DX2                !
 ! D315  D(40,41,45,4)        -155.3108         estimate D2E/DX2                !
 ! D316  D(40,41,45,48)          0.5044         estimate D2E/DX2                !
 ! D317  D(80,41,45,4)          -6.5237         estimate D2E/DX2                !
 ! D318  D(80,41,45,48)        149.2915         estimate D2E/DX2                !
 ! D319  D(40,41,80,42)        144.1275         estimate D2E/DX2                !
 ! D320  D(40,41,80,82)         -2.9139         estimate D2E/DX2                !
 ! D321  D(45,41,80,42)         -7.834          estimate D2E/DX2                !
 ! D322  D(45,41,80,82)       -154.8754         estimate D2E/DX2                !
 ! D323  D(38,42,46,4)         148.837          estimate D2E/DX2                !
 ! D324  D(38,42,46,14)          2.8116         estimate D2E/DX2                !
 ! D325  D(80,42,46,4)          -4.7663         estimate D2E/DX2                !
 ! D326  D(80,42,46,14)       -150.7917         estimate D2E/DX2                !
 ! D327  D(38,42,80,41)       -140.5096         estimate D2E/DX2                !
 ! D328  D(38,42,80,82)          1.5496         estimate D2E/DX2                !
 ! D329  D(46,42,80,41)         13.1798         estimate D2E/DX2                !
 ! D330  D(46,42,80,82)        155.239          estimate D2E/DX2                !
 ! D331  D(2,44,47,48)        -162.9338         estimate D2E/DX2                !
 ! D332  D(2,44,47,49)           7.5325         estimate D2E/DX2                !
 ! D333  D(40,44,47,48)          1.8615         estimate D2E/DX2                !
 ! D334  D(40,44,47,49)        172.3278         estimate D2E/DX2                !
 ! D335  D(4,45,48,47)         150.9659         estimate D2E/DX2                !
 ! D336  D(4,45,48,50)         -16.3594         estimate D2E/DX2                !
[...]
 Alpha virt. eigenvalues --    1.16707   1.16998   1.17108   1.17391   1.17587
 Alpha virt. eigenvalues --    1.17618   1.18104   1.18391   1.18892   1.19030
 Alpha virt. eigenvalues --    1.19321   1.19375   1.19650   1.20262   1.20775
 Alpha virt. eigenvalues --    1.21156   1.21448   1.21562   1.21970   1.22505
 Alpha virt. eigenvalues --    1.22856   1.23069   1.23284   1.23501   1.23715
 Alpha virt. eigenvalues --    1.24015   1.24129   1.24233   1.24875   1.25136
 Alpha virt. eigenvalues --    1.25358   1.25438   1.25700   1.26522   1.26791
 Alpha virt. eigenvalues --    1.27060   1.27328   1.27439   1.27696   1.28019
 Alpha virt. eigenvalues --    1.28112   1.28351   1.28811   1.29237   1.29584
 Alpha virt. eigenvalues --    1.29873   1.30294   1.30799   1.31053   1.31351
 Alpha virt. eigenvalues --    1.31531   1.31710   1.31952   1.32222   1.32397
 Alpha virt. eigenvalues --    1.32694   1.33496   1.33776   1.34078   1.34804
 Alpha virt. eigenvalues --    1.35266   1.35454   1.35853   1.36046   1.36296
 Alpha virt. eigenvalues --    1.36688   1.37155   1.37551   1.38443   1.39174
 Alpha virt. eigenvalues --    1.39817   1.40034   1.40541   1.40909   1.41331
 Alpha virt. eigenvalues --    1.41666   1.42529   1.42901   1.43943   1.44241
 Alpha virt. eigenvalues --    1.44871   1.45499   1.45953   1.46746   1.47179
 Alpha virt. eigenvalues --    1.47464   1.47635   1.48512   1.49048   1.49189
 Alpha virt. eigenvalues --    1.49777   1.50167   1.51604   1.51765   1.52100
 Alpha virt. eigenvalues --    1.52557   1.52745   1.52999   1.53662   1.54212
 Alpha virt. eigenvalues --    1.54649   1.54839   1.55225   1.55467   1.55631
 Alpha virt. eigenvalues --    1.56051   1.57086   1.57336   1.58009   1.58350
 Alpha virt. eigenvalues --    1.58676   1.59977   1.60618   1.60851   1.61655
 Alpha virt. eigenvalues --    1.62384   1.62691   1.63432   1.63745   1.63993
 Alpha virt. eigenvalues --    1.64355   1.64508   1.64773   1.65042   1.65198
 Alpha virt. eigenvalues --    1.65426   1.65696   1.66100   1.66279   1.66687
 Alpha virt. eigenvalues --    1.67039   1.67148   1.67221   1.67334   1.67699
 Alpha virt. eigenvalues --    1.68182   1.68314   1.68736   1.69094   1.69286
 Alpha virt. eigenvalues --    1.69574   1.69945   1.70241   1.70320   1.70552
 Alpha virt. eigenvalues --    1.70670   1.70878   1.71193   1.71583   1.71693
 Alpha virt. eigenvalues --    1.72031   1.72246   1.72427   1.72572   1.72906
 Alpha virt. eigenvalues --    1.73154   1.73400   1.73699   1.73784   1.74213
 Alpha virt. eigenvalues --    1.74339   1.74585   1.74862   1.75185   1.75360
 Alpha virt. eigenvalues --    1.75713   1.75995   1.76220   1.76426   1.76614
 Alpha virt. eigenvalues --    1.76913   1.77049   1.77297   1.77378   1.77547
 Alpha virt. eigenvalues --    1.77740   1.78054   1.78310   1.78517   1.78718
 Alpha virt. eigenvalues --    1.79164   1.79217   1.79463   1.79710   1.80154
 Alpha virt. eigenvalues --    1.80427   1.81184   1.81553   1.81907   1.82260
 Alpha virt. eigenvalues --    1.82286   1.82941   1.83235   1.83845   1.84529
 Alpha virt. eigenvalues --    1.84646   1.85174   1.86075   1.86412   1.87338
 Alpha virt. eigenvalues --    1.87574   1.87857   1.88727   1.88911   1.89475
 Alpha virt. eigenvalues --    1.89717   1.90127   1.90198   1.90781   1.91068
 Alpha virt. eigenvalues --    1.91815   1.92373   1.92941   1.93224   1.93956
 Alpha virt. eigenvalues --    1.94072   1.94371   1.94730   1.94753   1.95219
 Alpha virt. eigenvalues --    1.95488   1.95519   1.95893   1.96059   1.96589
 Alpha virt. eigenvalues --    1.96913   1.97139   1.97545   1.97612   1.98188
 Alpha virt. eigenvalues --    1.98277   1.98383   1.98727   1.98995   1.99222
 Alpha virt. eigenvalues --    1.99668   1.99869   1.99920   2.00207   2.00471
 Alpha virt. eigenvalues --    2.00538   2.00757   2.00951   2.01043   2.01354
 Alpha virt. eigenvalues --    2.01506   2.02007   2.02277   2.02763   2.02975
 Alpha virt. eigenvalues --    2.03047   2.03370   2.03412   2.03620   2.03727
 Alpha virt. eigenvalues --    2.04022   2.04507   2.04635   2.04800   2.05546
 Alpha virt. eigenvalues --    2.05748   2.06127   2.06381   2.06682   2.06890
 Alpha virt. eigenvalues --    2.07162   2.07679   2.08620   2.09303   2.09401
 Alpha virt. eigenvalues --    2.10018   2.10433   2.10637   2.11234   2.11789
 Alpha virt. eigenvalues --    2.12140   2.12189   2.12418   2.13288   2.13521
 Alpha virt. eigenvalues --    2.13790   2.14134   2.15042   2.15379   2.15517
 Alpha virt. eigenvalues --    2.16753   2.16815   2.17323   2.17827   2.18783
 Alpha virt. eigenvalues --    2.19065   2.19419   2.20016   2.20158   2.20459
 Alpha virt. eigenvalues --    2.20843   2.21461   2.21894   2.22128   2.22440
 Alpha virt. eigenvalues --    2.22538   2.23232   2.23445   2.24104   2.24346
 Alpha virt. eigenvalues --    2.24607   2.24810   2.25051   2.25369   2.26284
 Alpha virt. eigenvalues --    2.26788   2.26956   2.27587   2.28037   2.28341
 Alpha virt. eigenvalues --    2.28542   2.28750   2.29145   2.29197   2.29591
 Alpha virt. eigenvalues --    2.29857   2.30522   2.30897   2.31343   2.31713
 Alpha virt. eigenvalues --    2.32218   2.32506   2.32997   2.33570   2.33904
 Alpha virt. eigenvalues --    2.34388   2.35270   2.35698   2.36690   2.37666
 Alpha virt. eigenvalues --    2.38731   2.38905   2.39525   2.40021   2.40159
 Alpha virt. eigenvalues --    2.41211   2.41398   2.41930   2.42437   2.42519
 Alpha virt. eigenvalues --    2.43082   2.43471   2.43649   2.44894   2.45538
 Alpha virt. eigenvalues --    2.45726   2.46057   2.46856   2.47404   2.47617
 Alpha virt. eigenvalues --    2.47870   2.48656   2.49163   2.49519   2.50678
 Alpha virt. eigenvalues --    2.50886   2.51224   2.52427   2.52760   2.53124
 Alpha virt. eigenvalues --    2.53385   2.53740   2.54385   2.54500   2.54875
 Alpha virt. eigenvalues --    2.55024   2.55325   2.55799   2.56050   2.56444
 Alpha virt. eigenvalues --    2.56918   2.57297   2.57620   2.57917   2.58147
 Alpha virt. eigenvalues --    2.58255   2.58451   2.58643   2.58831   2.59366
 Alpha virt. eigenvalues --    2.59588   2.59849   2.60344   2.60483   2.61150
 Alpha virt. eigenvalues --    2.61277   2.61818   2.62383   2.62544   2.62640
 Alpha virt. eigenvalues --    2.63045   2.63675   2.63955   2.64356   2.64611
 Alpha virt. eigenvalues --    2.64743   2.65334   2.65663   2.65905   2.66007
 Alpha virt. eigenvalues --    2.66255   2.66638   2.66988   2.67136   2.67453
 Alpha virt. eigenvalues --    2.67816   2.68226   2.68991   2.69157   2.69625
 Alpha virt. eigenvalues --    2.69763   2.70206   2.70602   2.71057   2.71408
 Alpha virt. eigenvalues --    2.71846   2.72207   2.72321   2.72590   2.73518
 Alpha virt. eigenvalues --    2.74057   2.74585   2.75087   2.75316   2.76106
 Alpha virt. eigenvalues --    2.76940   2.77255   2.77579   2.78615   2.78801
 Alpha virt. eigenvalues --    2.79138   2.79516   2.79783   2.80290   2.80867
 Alpha virt. eigenvalues --    2.81134   2.81853   2.82175   2.82545   2.82798
 Alpha virt. eigenvalues --    2.83228   2.83464   2.83753   2.84357   2.84548
 Alpha virt. eigenvalues --    2.85365   2.85766   2.86514   2.86923   2.87810
 Alpha virt. eigenvalues --    2.88275   2.88827   2.89324   2.89787   2.89921
 Alpha virt. eigenvalues --    2.90075   2.90221   2.91002   2.91281   2.91550
 Alpha virt. eigenvalues --    2.91879   2.92091   2.92669   2.92895   2.93518
 Alpha virt. eigenvalues --    2.94328   2.94665   2.94972   2.95566   2.95758
 Alpha virt. eigenvalues --    2.96415   2.96733   2.97259   2.97988   2.98818
 Alpha virt. eigenvalues --    2.99813   3.00453   3.01520   3.03433   3.04035
 Alpha virt. eigenvalues --    3.04894   3.05314   3.06320   3.08890   3.10412
 Alpha virt. eigenvalues --    3.11202   3.13428   3.14721   3.15910   3.17598
 Alpha virt. eigenvalues --    3.18977   3.19381   3.21041   3.21966   3.23113
 Alpha virt. eigenvalues --    3.24125   3.26849   3.27616   3.29159   3.31671
 Alpha virt. eigenvalues --    3.33035   3.34450   3.35485   3.37697   3.38401
 Alpha virt. eigenvalues --    3.38976   3.41348   3.43458   3.45135   3.46239
 Alpha virt. eigenvalues --    3.49164   3.51336   3.52821   3.53500   3.54890
 Alpha virt. eigenvalues --    3.61376   3.64134   3.99913   4.01525   4.02271
 Alpha virt. eigenvalues --    4.02454   4.03211   4.04004   4.04597   4.04930
 Alpha virt. eigenvalues --    4.05207   4.05784   4.06416   4.06995   4.07432
 Alpha virt. eigenvalues --    4.07997   4.08516   4.09101   4.09961   4.10141
 Alpha virt. eigenvalues --    4.10882   4.11429   4.12049   4.12853   4.14793
 Alpha virt. eigenvalues --    4.15900   4.16344   4.17212   4.17630   4.18863
 Alpha virt. eigenvalues --    4.20396   4.20673   4.21114   4.21392   4.22168
 Alpha virt. eigenvalues --    4.23476   4.24093   4.25852   4.26342   4.27249
 Alpha virt. eigenvalues --    4.28103   4.28337   4.29025   4.29705   4.30630
 Alpha virt. eigenvalues --    4.31107   4.33020   4.34245   4.35173   4.36888
 Alpha virt. eigenvalues --    4.38385   4.39356   4.40775   4.41714   4.44397
 Alpha virt. eigenvalues --    4.45770   4.47241   4.48610   4.48789   4.49272
 Alpha virt. eigenvalues --    4.50882   4.54102   4.54394   4.57099   4.57730
 Alpha virt. eigenvalues --    4.58663   4.60170   4.60766   4.64679   4.66311
 Alpha virt. eigenvalues --    4.67552   4.68075   4.69516   4.75031   4.78126
 Alpha virt. eigenvalues --    4.80773   4.82212   4.83856   4.87203   4.88468
 Alpha virt. eigenvalues --    4.92262   4.94970   4.99417   5.02936   5.05200
 Alpha virt. eigenvalues --    5.09596   5.14980   5.17959   5.23808   5.29617
          Condensed to atoms (all electrons):
 Mulliken charges:
               1
     1  C   -0.019854
     2  C   -0.378580
     3  C   -0.022644
     4  C   -0.039805
     5  C   -0.017358
     6  C    0.089032
     7  C   -0.019706
     8  C   -0.002478
     9  C    0.047432
    10  C    0.086928
    11  C    0.077975
    12  C    0.055718
    13  C    0.004469
    14  C   -0.029838
    15  C    0.007720
    16  C   -0.024344
    17  C    0.049082
    18  C    0.057392
    19  C    0.049435
    20  C    0.047651
    21  C   -0.019133
    22  C   -0.018292
    23  C   -0.013486
    24  C   -0.016530
    25  C   -0.010927
    26  C   -0.009915
    27  C   -0.020353
    28  C   -0.019580
    29  C   -0.018804
    30  C   -0.019366
    31  C   -0.010841
    32  C   -0.012346
    33  C   -0.022249
    34  C   -0.024972
    35  C    0.038705
    36  C    0.043510
    37  C    0.069574
    38  C    0.043627
    39  C    0.118344
    40  C    0.081616
    41  C   -0.000828
    42  C    0.044989
    43  C    0.075844
    44  C    0.147411
    45  C    0.081435
    46  C   -0.020667
    47  C    0.124202
    48  C    0.100909
    49  C   -0.373967
    50  C   -0.359432
    51  C    0.087720
    52  C    0.090245
    53  C    0.005808
    54  C    0.010046
    55  C    0.006216
    56  C    0.004319
    57  C   -0.019225
    58  C   -0.016928
    59  C   -0.012266
    60  C   -0.011525
    61  C   -0.019716
    62  C   -0.019369
    63  C    0.040590
    64  C    0.039964
    65  C    0.040691
    66  C    0.038883
    67  C    0.038710
    68  C    0.037681
    69  C   -0.019874
    70  C   -0.019834
    71  C   -0.006638
    72  C   -0.005949
    73  C   -0.004801
    74  C   -0.003783
    75  C   -0.000124
    76  C   -0.004578
    77  C   -0.044158
    78  C   -0.020853
    79  C   -0.366088
    80  C    0.010754
    81  C    0.004168
    82  C    0.071937
    83  C    0.048459
    84  C    0.048794
    85  Cl  -0.000393
    86  Cl  -0.010822
    87  Cl  -0.001998
    88  Cl  -0.012770
 Sum of Mulliken charges =  -0.00000
 Mulliken charges with hydrogens summed into heavy atoms:
               1
     1  C   -0.019854
     2  C   -0.378580
     3  C   -0.022644
     4  C   -0.039805
     5  C   -0.017358
     6  C    0.089032
     7  C   -0.019706
     8  C   -0.002478
     9  C    0.047432
    10  C    0.086928
    11  C    0.077975
    12  C    0.055718
    13  C    0.004469
    14  C   -0.029838
    15  C    0.007720
    16  C   -0.024344
    17  C    0.049082
    18  C    0.057392
    19  C    0.049435
    20  C    0.047651
    21  C   -0.019133
    22  C   -0.018292
    23  C   -0.013486
    24  C   -0.016530
    25  C   -0.010927
    26  C   -0.009915
    27  C   -0.020353
    28  C   -0.019580
    29  C   -0.018804
    30  C   -0.019366
    31  C   -0.010841
    32  C   -0.012346
    33  C   -0.022249
    34  C   -0.024972
    35  C    0.038705
    36  C    0.043510
    37  C    0.069574
    38  C    0.043627
    39  C    0.118344
    40  C    0.081616
    41  C   -0.000828
    42  C    0.044989
    43  C    0.075844
    44  C    0.147411
    45  C    0.081435
    46  C   -0.020667
    47  C    0.124202
    48  C    0.100909
    49  C   -0.373967
    50  C   -0.359432
    51  C    0.087720
    52  C    0.090245
    53  C    0.005808
    54  C    0.010046
    55  C    0.006216
    56  C    0.004319
    57  C   -0.019225
    58  C   -0.016928
    59  C   -0.012266
    60  C   -0.011525
    61  C   -0.019716
    62  C   -0.019369
    63  C    0.040590
    64  C    0.039964
    65  C    0.040691
    66  C    0.038883
    67  C    0.038710
    68  C    0.037681
    69  C   -0.019874
    70  C   -0.019834
    71  C   -0.006638
    72  C   -0.005949
    73  C   -0.004801
    74  C   -0.003783
    75  C   -0.000124
    76  C   -0.004578
    77  C   -0.044158
    78  C   -0.020853
    79  C   -0.366088
    80  C    0.010754
    81  C    0.004168
    82  C    0.071937
    83  C    0.048459
    84  C    0.048794
    85  Cl  -0.000393
    86  Cl  -0.010822
    87  Cl  -0.001998
    88  Cl  -0.012770
 Electronic spatial extent (au):  <R**2>=          41862.7558
 Charge=              0.0000 electrons
 Dipole moment (field-independent basis, Debye):
    X=              5.3571    Y=             -1.6190    Z=              1.4635  Tot=              5.7845
 Quadrupole moment (field-independent basis, Debye-Ang):
   XX=           -529.5369   YY=           -511.6124   ZZ=           -501.5196
   XY=              4.9833   XZ=             -4.2920   YZ=             -0.8658
 Traceless Quadrupole moment (field-independent basis, Debye-Ang):
   XX=            -15.3140   YY=              2.6106   ZZ=             12.7034
   XY=              4.9833   XZ=             -4.2920   YZ=             -0.8658
 Octapole moment (field-independent basis, Debye-Ang**2):
  XXX=             16.3316  YYY=            -25.2698  ZZZ=             -3.6223  XYY=             12.9009
  XXY=              5.5622  XXZ=              2.6346  XZZ=            -29.7470  YZZ=             11.4355
  YYZ=             19.1732  XYZ=              6.1898
 Hexadecapole moment (field-independent basis, Debye-Ang**3):
 XXXX=         -23998.5020 YYYY=         -20603.5884 ZZZZ=         -16991.1986 XXXY=            -71.8319
 XXXZ=             54.6877 YYYX=             53.2045 YYYZ=             51.0763 ZZZX=              0.9556
 ZZZY=             -8.2709 XXYY=          -7502.6449 XXZZ=          -6791.2696 YYZZ=          -6285.6459
 XXYZ=            -49.3583 YYXZ=            -53.2722 ZZXY=            -24.7749
 N-N= 1.717823078680D+04 E-N=-4.613525226537D+04  KE= 5.006222034503D+03
 No NMR shielding tensors so no spin-rotation constants.
 Leave Link  601 at Tue Jun 28 10:56:13 2022, MaxMem=  1342177280 cpu:              22.7 elap:               1.2
 (Enter /home/mkliu/g16/l9999.exe)
 1\1\GINC-NODE02\FOpt\RB3LYP\6-31G(d,p)\C84Cl4\MKLIU\28-Jun-2022\0\\#P 
 opt b3lyp/6-31G(d, p) empiricaldispersion=GD3\\force\\0,1\C,8.25036837
 6,18.8630523941,10.5383511736\C,12.4841251629,19.9967712023,8.90640047
 2\C,8.2486822934,26.9182175845,10.5486491791\C,12.2773732648,25.605075
 2854,8.9672814877\C,7.9313783048,18.9022684615,9.1520349257\C,11.87209
 95326,19.5731321969,10.2184448463\C,7.9381149781,26.8724069925,9.15803
 72062\C,11.8548841847,26.1911971621,10.2241079243\C,8.9319435726,19.09
 33454259,8.1543081866\C,12.1370398632,20.2071218306,11.388364915\C,12.
 1239025704,25.5607779147,11.4024510746\C,8.9445639389,26.6932153427,8.
 162496846\C,10.26844556,19.063117793,8.616490799\C,10.2761004446,26.75
 11460836,8.6316490495\C,10.5937577043,18.9619413799,10.0014177577\C,10
 .5904745622,26.8621625882,10.0183028842\C,9.5866467613,18.9520260977,1
 1.0049965817\C,9.5852302237,26.8476627761,11.0207124489\C,9.8627437314
 ,19.6441513575,12.2586645056\C,9.8602318021,26.1382079719,12.272476802
 3\C,8.7843010014,20.2360206123,12.972323042\C,8.7831314051,25.53554638
 24,12.9756025964\C,7.4431864846,20.2191331246,12.413189893\C,7.4430796
 787,25.5486406415,12.4169106793\C,7.1819220986,19.5464083957,11.249240
 1842\C,7.1845520346,26.2200695929,11.2514887989\C,6.2591015692,20.1016
 189598,10.2993093005\C,6.2660478247,25.6619147384,10.2984324907\C,6.65
 42750912,19.5671362926,9.0232577625\C,6.6661896839,26.1951603835,9.026
 4305365\C,6.3477543261,20.2386045424,7.8766657853\C,6.3653635251,25.52
 16275033,7.8789555167\C,7.2874597374,20.286492609,6.7672393517\C,7.309
 9007417,25.4746740324,6.7751914466\C,8.6290038502,19.8452820411,6.9431
 288043\C,8.6395697774,25.9277919227,6.9425179377\C,9.6969601153,20.585
 4696754,6.2780966143\C,9.7062457693,25.1788216399,6.2722673311\C,11.04
 36453143,20.5538240217,6.8428073259\C,12.7552453733,22.156289889,7.762
 5058974\C,12.7051737536,23.5683792822,7.7679627438\C,11.0420790272,25.
 1733643038,6.8489189992\C,11.3071702841,19.7857240074,7.9431179303\C,1
 2.9067118306,21.4542239505,8.9377574327\C,12.8747965501,24.3052927334,
 8.9569226998\C,11.327087969,25.9744978106,7.9890220383\C,13.1075360465
 ,22.1778253645,10.165600292\C,13.1140548319,23.5790915048,10.174992421
 \C,13.06919868,21.400449151,11.4860831984\C,13.0592070827,24.361754007
 9,11.4898799636\C,12.3991974112,22.2051985253,12.5833195614\C,12.39964
 94805,23.5608108094,12.5893637684\C,11.1327419422,20.263897171,12.4154
 419113\C,11.1325190478,25.514080144,12.4341541629\C,11.2886380205,21.4
 833758172,13.1380451655\C,11.2883245452,24.2828250732,13.1430531134\C,
 8.9363808045,21.4599752679,13.679270073\C,8.9374688817,24.3033508604,1
 3.6739501504\C,7.6927021593,22.1971306489,13.5407031399\C,7.6918610265
 ,23.5659390712,13.5391510983\C,6.8061236581,21.484400348,12.6578373174
 \C,6.8090596008,24.278702757,12.6563137983\C,6.0471045044,22.150736161
 2,11.6560211109\C,6.0477127958,23.6132634179,11.6552816081\C,5.7503533
 132,21.4224037831,10.423412339\C,5.7549243819,24.3404039406,10.4227039
 981\C,5.430162724,22.1509959723,9.193809515\C,5.4355162005,23.61217214
 44,9.1951717043\C,5.6259019698,21.484778742,7.9499647356\C,5.641826137
 6,24.2767115651,7.9509832036\C,5.9406403036,22.1908264943,6.737841921\
 C,5.9488633628,23.5675734105,6.7407714572\C,6.9742493452,21.453344754,
 6.0207023318\C,6.9919182056,24.2958984988,6.0267464792\C,7.9941167302,
 22.1432146235,5.3659793368\C,7.9959571027,23.6014609945,5.3737739995\C
 ,9.3384035431,21.6854432589,5.4554610994\C,9.3499032608,24.0560350029,
 5.4778573903\C,12.0693984431,21.6228628115,6.5017806743\C,11.855290927
 5,24.0225045745,6.6963565099\C,10.1900869964,22.8783559081,5.401203415
 \C,11.4269592049,22.8827139342,5.9699759649\C,10.1771487146,22.1523162
 632,13.7227811432\C,10.1763242924,23.6105262207,13.7245673917\Cl,14.78
 41132166,20.8894063305,11.953278224\Cl,14.7681661592,24.9106383382,11.
 9597979616\Cl,13.9099513778,18.9041793437,8.4538082787\Cl,13.311036513
 5,20.9630103957,5.2878278121\\Version=ES64L-G16RevA.03\State=1-A\HF=-5
 041.8289615\RMSD=4.562e-09\RMSF=7.365e-05\Dipole=-2.1878649,0.4913353,
 0.3888044\Quadrupole=-10.9680313,5.4948542,5.473177,5.523134,0.1066921
 ,-3.8579362\PG=C01 [X(C84Cl4)]\\@


 LOVE IS BLIND, THAT'S WHY ALL THE WORLD LOVES A LOUVER.
 Job cpu time:       1 days  0 hours 22 minutes 50.7 seconds.
 Elapsed time:       0 days  1 hours  1 minutes  2.7 seconds.
 File lengths (MBytes):  RWF=   1098 Int=      0 D2E=      0 Chk=    138 Scr=      1
 Normal termination of Gaussian 16 at Tue Jun 28 10:56:15 2022.
