 Entering Gaussian System, Link 0=g16
 Input=4_addons_C84_14_Cl22_rank_4.gjf
 Output=4_addons_C84_14_Cl22_rank_4.log
 Initial command:
 /home/mkliu/g16/l1.exe "/data/scratch/Gau-222663.inp" -scrdir="/data/scratch/"
 Entering Link 1 = /home/mkliu/g16/l1.exe PID=    222664.
  
 Copyright (c) 1988,1990,1992,1993,1995,1998,2003,2009,2016,
            Gaussian, Inc.  All Rights Reserved.
  
 This is part of the Gaussian(R) 16 program.  It is based on
 the Gaussian(R) 09 system (copyright 2009, Gaussian, Inc.),
 the Gaussian(R) 03 system (copyright 2003, Gaussian, Inc.),
 the Gaussian(R) 98 system (copyright 1998, Gaussian, Inc.),
 the Gaussian(R) 94 system (copyright 1995, Gaussian, Inc.),
 the Gaussian 92(TM) system (copyright 1992, Gaussian, Inc.),
 the Gaussian 90(TM) system (copyright 1990, Gaussian, Inc.),
 the Gaussian 88(TM) system (copyright 1988, Gaussian, Inc.),
 the Gaussian 86(TM) system (copyright 1986, Carnegie Mellon
 University), and the Gaussian 82(TM) system (copyright 1983,
 Carnegie Mellon University). Gaussian is a federally registered
 trademark of Gaussian, Inc.
  
 This software contains proprietary and confidential information,
 including trade secrets, belonging to Gaussian, Inc.
  
 This software is provided under written license and may be
 used, copied, transmitted, or stored only in accord with that
 written license.
  
 The following legend is applicable only to US Government
 contracts under FAR:
  
                    RESTRICTED RIGHTS LEGEND
  
 Use, reproduction and disclosure by the US Government is
 subject to restrictions as set forth in subparagraphs (a)
 and (c) of the Commercial Computer Software - Restricted
 Rights clause in FAR 52.227-19.
  
 Gaussian, Inc.
 340 Quinnipiac St., Bldg. 40, Wallingford CT 06492
  
  
 ---------------------------------------------------------------
 Warning -- This program may not be used in any manner that
 competes with the business of Gaussian, Inc. or will provide
 assistance to any competitor of Gaussian, Inc.  The licensee
 of this program is prohibited from giving any competitor of
 Gaussian, Inc. access to this program.  By using this program,
 the user acknowledges that Gaussian, Inc. is engaged in the
 business of creating and licensing software in the field of
 computational chemistry and represents and warrants to the
 licensee that it is not a competitor of Gaussian, Inc. and that
 it will not use this program in any manner prohibited above.
 ---------------------------------------------------------------
  

 Cite this work as:
 Gaussian 16, Revision A.03,
 M. J. Frisch, G. W. Trucks, H. B. Schlegel, G. E. Scuseria, 
 M. A. Robb, J. R. Cheeseman, G. Scalmani, V. Barone, 
 G. A. Petersson, H. Nakatsuji, X. Li, M. Caricato, A. V. Marenich, 
 J. Bloino, B. G. Janesko, R. Gomperts, B. Mennucci, H. P. Hratchian, 
 J. V. Ortiz, A. F. Izmaylov, J. L. Sonnenberg, D. Williams-Young, 
 F. Ding, F. Lipparini, F. Egidi, J. Goings, B. Peng, A. Petrone, 
 T. Henderson, D. Ranasinghe, V. G. Zakrzewski, J. Gao, N. Rega, 
 G. Zheng, W. Liang, M. Hada, M. Ehara, K. Toyota, R. Fukuda, 
 J. Hasegawa, M. Ishida, T. Nakajima, Y. Honda, O. Kitao, H. Nakai, 
 T. Vreven, K. Throssell, J. A. Montgomery, Jr., J. E. Peralta, 
 F. Ogliaro, M. J. Bearpark, J. J. Heyd, E. N. Brothers, K. N. Kudin, 
 V. N. Staroverov, T. A. Keith, R. Kobayashi, J. Normand, 
 K. Raghavachari, A. P. Rendell, J. C. Burant, S. S. Iyengar, 
 J. Tomasi, M. Cossi, J. M. Millam, M. Klene, C. Adamo, R. Cammi, 
 J. W. Ochterski, R. L. Martin, K. Morokuma, O. Farkas, 
 J. B. Foresman, and D. J. Fox, Gaussian, Inc., Wallingford CT, 2016.
 
 ******************************************
 Gaussian 16:  ES64L-G16RevA.03 25-Dec-2016
                27-Jun-2022 
 ******************************************
 %mem=10GB
 %chk=4_addons_C84_14_Cl22_rank_4.chk
 %nprocshared=24
 Will use up to   24 processors via shared memory.
 ------------------------------------------------
 #P opt b3lyp/6-31G(d, p) empiricaldispersion=GD3
 ------------------------------------------------
 1/18=20,19=15,26=3,38=1/1,3;
 2/9=110,12=2,17=6,18=5,40=1/2;
 3/5=1,6=6,7=101,11=2,25=1,30=1,71=1,74=-5,124=31/1,2,3;
 4//1;
 5/5=2,38=5/2;
 6/7=2,8=2,9=2,10=2,28=1/1;
 7//1,2,3,16;
 1/18=20,19=15,26=3/3(2);
 2/9=110/2;
 99//99;
 2/9=110/2;
 3/5=1,6=6,7=101,11=2,25=1,30=1,71=1,74=-5,124=31/1,2,3;
 4/5=5,16=3,69=1/1;
 5/5=2,38=5/2;
 7//1,2,3,16;
 1/18=20,19=15,26=3/3(-5);
 2/9=110/2;
 6/7=2,8=2,9=2,10=2,19=2,28=1/1;
 99/9=1/99;
 Leave Link    1 at Mon Jun 27 19:53:05 2022, MaxMem=  1342177280 cpu:               0.7 elap:               0.0
 (Enter /home/mkliu/g16/l101.exe)
 -----
 force
 -----
 Symbolic Z-matrix:
 Charge =  0 Multiplicity = 1
 C                     8.28098   18.8523   10.51525 
 C                     12.26134   20.17067   8.93244 
 C                     8.28082   26.89895   10.51695 
 C                     12.26124   25.58142   8.93357 
 C                     7.97199   18.90733   9.141 
 C                     11.8285   19.59504   10.17087 
 C                     7.97183   26.84449   9.14267 
 C                     11.82837   26.1565   10.17224 
 C                     8.95758   19.08144   8.12994 
 C                     12.07014   20.24997   11.35133 
 C                     12.07005   25.50109   11.35243 
 C                     8.95743   26.67086   8.13154 
 C                     10.27757   19.02009   8.58908 
 C                     10.27741   26.73206   8.5907 
 C                     10.5902   18.91918   9.97503 
 C                     10.59005   26.83239   9.9767 
 C                     9.60707   18.94542   10.98677 
 C                     9.60691   26.80568   10.98842 
 C                     9.89664   19.62546   12.22925 
 C                     9.89651   26.12512   12.2306 
 C                     8.7776    20.06113   13.13904 
 C                     8.77748   25.68902   13.14022 
 C                     7.47426   20.20431   12.3917 
 C                     7.47414   25.5461   12.39281 
 C                     7.2227    19.55138   11.22642 
 C                     7.22256   26.19952   11.22782 
 C                     6.31848   20.12265   10.28204 
 C                     6.31835   25.62864   10.2832 
 C                     6.70858   19.58557   9.0187 
 C                     6.70844   26.16627   9.02009 
 C                     6.40097   20.25486   7.87348 
 C                     6.40087   25.49745   7.87458 
 C                     7.33359   20.29654   6.7733 
 C                     7.33348   25.45628   6.77439 
 C                     8.65636   19.84434   6.93106 
 C                     8.65624   25.90846   6.93234 
 C                     9.70994   20.58215   6.26119 
 C                     9.70986   25.17097   6.26216 
 C                     11.04782   20.57328   6.81886 
 C                     12.73282   22.15561   7.72141 
 C                     12.73278   23.597    7.72172 
 C                     11.04773   25.17965   6.81984 
 C                     11.31954   19.78122   7.94595 
 C                     12.89414   21.43452   8.91346 
 C                     12.89411   24.31761   8.91406 
 C                     11.31942   25.97125   7.94725 
 C                     13.10799   22.15776   10.1498 
 C                     13.10799   23.59386   10.1501 
 C                     12.75925   21.50958   11.35239 
 C                     12.75923   24.24152   11.35297 
 C                     12.36378   22.19447   12.52342 
 C                     12.36382   23.55613   12.52374 
 C                     11.11704   20.2213   12.41188 
 C                     11.11693   25.52925   12.41299 
 C                     11.42132   21.36867   13.35695 
 C                     11.42127   24.38153   13.3576 
 C                     8.98616   21.47758   13.6256 
 C                     8.9861    24.27237   13.62619 
 C                     7.7813    22.18806   13.445 
 C                     7.78124   23.56193   13.44531 
 C                     6.88792   21.47894   12.58529 
 C                     6.88784   24.27138   12.58589 
 C                     6.12484   22.15184   11.60356 
 C                     6.12472   23.59887   11.60389 
 C                     5.81127   21.43489   10.39823 
 C                     5.81115   24.31633   10.39886 
 C                     5.48473   22.15284   9.18441 
 C                     5.48467   23.59891   9.18472 
 C                     5.67858   21.49145   7.95194 
 C                     5.67853   24.2608   7.95252 
 C                     5.97787   22.18869   6.74291 
 C                     5.9779    23.56407   6.74322 
 C                     7.00424   21.46414   6.02979 
 C                     7.0042    24.28897   6.03039 
 C                     8.00498   22.15464   5.37375 
 C                     8.00497   23.59878   5.37405 
 C                     9.34938   21.69624   5.47645 
 C                     9.34935   24.05719   5.47694 
 C                     11.8824   21.70602   6.67753 
 C                     11.88235   24.04699   6.67803 
 C                     10.17719   22.87674   5.4163 
 C                     11.41127   22.87664   6.00127 
 C                     10.18119   22.16085   13.67432 
 C                     10.18118   23.58914   13.67461 
 Cl                    8.63147   18.9079   14.52907 
 Cl                    12.18561   20.77492   14.88483 
 Cl                    12.18542   24.97475   14.88577 
 Cl                    8.63129   26.84165   14.53071 
 
 ITRead=  0  0  0  0  0  0  0  0  0  0  0  0  0  0  0  0  0  0  0  0
 ITRead=  0  0  0  0  0  0  0  0  0  0  0  0  0  0  0  0  0  0  0  0
 ITRead=  0  0  0  0  0  0  0  0  0  0  0  0  0  0  0  0  0  0  0  0
 ITRead=  0  0  0  0  0  0  0  0  0  0  0  0  0  0  0  0  0  0  0  0
 ITRead=  0  0  0  0  0  0  0  0
 MicOpt= -1 -1 -1 -1 -1 -1 -1 -1 -1 -1 -1 -1 -1 -1 -1 -1 -1 -1 -1 -1
 MicOpt= -1 -1 -1 -1 -1 -1 -1 -1 -1 -1 -1 -1 -1 -1 -1 -1 -1 -1 -1 -1
 MicOpt= -1 -1 -1 -1 -1 -1 -1 -1 -1 -1 -1 -1 -1 -1 -1 -1 -1 -1 -1 -1
 MicOpt= -1 -1 -1 -1 -1 -1 -1 -1 -1 -1 -1 -1 -1 -1 -1 -1 -1 -1 -1 -1
 MicOpt= -1 -1 -1 -1 -1 -1 -1 -1
 NAtoms=     88 NQM=       88 NQMF=       0 NMMI=      0 NMMIF=      0
                NMic=       0 NMicF=      0.
                    Isotopes and Nuclear Properties:
 (Nuclear quadrupole moments (NQMom) in fm**2, nuclear magnetic moments (NMagM)
  in nuclear magnetons)

  Atom         1           2           3           4           5           6           7           8           9          10
 IAtWgt=          12          12          12          12          12          12          12          12          12          12
 AtmWgt=  12.0000000  12.0000000  12.0000000  12.0000000  12.0000000  12.0000000  12.0000000  12.0000000  12.0000000  12.0000000
 NucSpn=           0           0           0           0           0           0           0           0           0           0
 AtZEff=  -0.0000000  -0.0000000  -0.0000000  -0.0000000  -0.0000000  -0.0000000  -0.0000000  -0.0000000  -0.0000000  -0.0000000
 NQMom=    0.0000000   0.0000000   0.0000000   0.0000000   0.0000000   0.0000000   0.0000000   0.0000000   0.0000000   0.0000000
 NMagM=    0.0000000   0.0000000   0.0000000   0.0000000   0.0000000   0.0000000   0.0000000   0.0000000   0.0000000   0.0000000
 AtZNuc=   6.0000000   6.0000000   6.0000000   6.0000000   6.0000000   6.0000000   6.0000000   6.0000000   6.0000000   6.0000000

  Atom        11          12          13          14          15          16          17          18          19          20
 IAtWgt=          12          12          12          12          12          12          12          12          12          12
 AtmWgt=  12.0000000  12.0000000  12.0000000  12.0000000  12.0000000  12.0000000  12.0000000  12.0000000  12.0000000  12.0000000
 NucSpn=           0           0           0           0           0           0           0           0           0           0
 AtZEff=  -0.0000000  -0.0000000  -0.0000000  -0.0000000  -0.0000000  -0.0000000  -0.0000000  -0.0000000  -0.0000000  -0.0000000
 NQMom=    0.0000000   0.0000000   0.0000000   0.0000000   0.0000000   0.0000000   0.0000000   0.0000000   0.0000000   0.0000000
 NMagM=    0.0000000   0.0000000   0.0000000   0.0000000   0.0000000   0.0000000   0.0000000   0.0000000   0.0000000   0.0000000
 AtZNuc=   6.0000000   6.0000000   6.0000000   6.0000000   6.0000000   6.0000000   6.0000000   6.0000000   6.0000000   6.0000000

  Atom        21          22          23          24          25          26          27          28          29          30
 IAtWgt=          12          12          12          12          12          12          12          12          12          12
 AtmWgt=  12.0000000  12.0000000  12.0000000  12.0000000  12.0000000  12.0000000  12.0000000  12.0000000  12.0000000  12.0000000
 NucSpn=           0           0           0           0           0           0           0           0           0           0
 AtZEff=  -0.0000000  -0.0000000  -0.0000000  -0.0000000  -0.0000000  -0.0000000  -0.0000000  -0.0000000  -0.0000000  -0.0000000
 NQMom=    0.0000000   0.0000000   0.0000000   0.0000000   0.0000000   0.0000000   0.0000000   0.0000000   0.0000000   0.0000000
 NMagM=    0.0000000   0.0000000   0.0000000   0.0000000   0.0000000   0.0000000   0.0000000   0.0000000   0.0000000   0.0000000
 AtZNuc=   6.0000000   6.0000000   6.0000000   6.0000000   6.0000000   6.0000000   6.0000000   6.0000000   6.0000000   6.0000000

  Atom        31          32          33          34          35          36          37          38          39          40
 IAtWgt=          12          12          12          12          12          12          12          12          12          12
 AtmWgt=  12.0000000  12.0000000  12.0000000  12.0000000  12.0000000  12.0000000  12.0000000  12.0000000  12.0000000  12.0000000
 NucSpn=           0           0           0           0           0           0           0           0           0           0
 AtZEff=  -0.0000000  -0.0000000  -0.0000000  -0.0000000  -0.0000000  -0.0000000  -0.0000000  -0.0000000  -0.0000000  -0.0000000
 NQMom=    0.0000000   0.0000000   0.0000000   0.0000000   0.0000000   0.0000000   0.0000000   0.0000000   0.0000000   0.0000000
 NMagM=    0.0000000   0.0000000   0.0000000   0.0000000   0.0000000   0.0000000   0.0000000   0.0000000   0.0000000   0.0000000
 AtZNuc=   6.0000000   6.0000000   6.0000000   6.0000000   6.0000000   6.0000000   6.0000000   6.0000000   6.0000000   6.0000000

  Atom        41          42          43          44          45          46          47          48          49          50
 IAtWgt=          12          12          12          12          12          12          12          12          12          12
 AtmWgt=  12.0000000  12.0000000  12.0000000  12.0000000  12.0000000  12.0000000  12.0000000  12.0000000  12.0000000  12.0000000
 NucSpn=           0           0           0           0           0           0           0           0           0           0
 AtZEff=  -0.0000000  -0.0000000  -0.0000000  -0.0000000  -0.0000000  -0.0000000  -0.0000000  -0.0000000  -0.0000000  -0.0000000
 NQMom=    0.0000000   0.0000000   0.0000000   0.0000000   0.0000000   0.0000000   0.0000000   0.0000000   0.0000000   0.0000000
 NMagM=    0.0000000   0.0000000   0.0000000   0.0000000   0.0000000   0.0000000   0.0000000   0.0000000   0.0000000   0.0000000
 AtZNuc=   6.0000000   6.0000000   6.0000000   6.0000000   6.0000000   6.0000000   6.0000000   6.0000000   6.0000000   6.0000000

  Atom        51          52          53          54          55          56          57          58          59          60
 IAtWgt=          12          12          12          12          12          12          12          12          12          12
 AtmWgt=  12.0000000  12.0000000  12.0000000  12.0000000  12.0000000  12.0000000  12.0000000  12.0000000  12.0000000  12.0000000
 NucSpn=           0           0           0           0           0           0           0           0           0           0
 AtZEff=  -0.0000000  -0.0000000  -0.0000000  -0.0000000  -0.0000000  -0.0000000  -0.0000000  -0.0000000  -0.0000000  -0.0000000
 NQMom=    0.0000000   0.0000000   0.0000000   0.0000000   0.0000000   0.0000000   0.0000000   0.0000000   0.0000000   0.0000000
 NMagM=    0.0000000   0.0000000   0.0000000   0.0000000   0.0000000   0.0000000   0.0000000   0.0000000   0.0000000   0.0000000
 AtZNuc=   6.0000000   6.0000000   6.0000000   6.0000000   6.0000000   6.0000000   6.0000000   6.0000000   6.0000000   6.0000000

  Atom        61          62          63          64          65          66          67          68          69          70
 IAtWgt=          12          12          12          12          12          12          12          12          12          12
 AtmWgt=  12.0000000  12.0000000  12.0000000  12.0000000  12.0000000  12.0000000  12.0000000  12.0000000  12.0000000  12.0000000
 NucSpn=           0           0           0           0           0           0           0           0           0           0
 AtZEff=  -0.0000000  -0.0000000  -0.0000000  -0.0000000  -0.0000000  -0.0000000  -0.0000000  -0.0000000  -0.0000000  -0.0000000
 NQMom=    0.0000000   0.0000000   0.0000000   0.0000000   0.0000000   0.0000000   0.0000000   0.0000000   0.0000000   0.0000000
 NMagM=    0.0000000   0.0000000   0.0000000   0.0000000   0.0000000   0.0000000   0.0000000   0.0000000   0.0000000   0.0000000
 AtZNuc=   6.0000000   6.0000000   6.0000000   6.0000000   6.0000000   6.0000000   6.0000000   6.0000000   6.0000000   6.0000000

  Atom        71          72          73          74          75          76          77          78          79          80
 IAtWgt=          12          12          12          12          12          12          12          12          12          12
 AtmWgt=  12.0000000  12.0000000  12.0000000  12.0000000  12.0000000  12.0000000  12.0000000  12.0000000  12.0000000  12.0000000
 NucSpn=           0           0           0           0           0           0           0           0           0           0
 AtZEff=  -0.0000000  -0.0000000  -0.0000000  -0.0000000  -0.0000000  -0.0000000  -0.0000000  -0.0000000  -0.0000000  -0.0000000
 NQMom=    0.0000000   0.0000000   0.0000000   0.0000000   0.0000000   0.0000000   0.0000000   0.0000000   0.0000000   0.0000000
 NMagM=    0.0000000   0.0000000   0.0000000   0.0000000   0.0000000   0.0000000   0.0000000   0.0000000   0.0000000   0.0000000
 AtZNuc=   6.0000000   6.0000000   6.0000000   6.0000000   6.0000000   6.0000000   6.0000000   6.0000000   6.0000000   6.0000000

  Atom        81          82          83          84          85          86          87          88
 IAtWgt=          12          12          12          12          35          35          35          35
 AtmWgt=  12.0000000  12.0000000  12.0000000  12.0000000  34.9688527  34.9688527  34.9688527  34.9688527
 NucSpn=           0           0           0           0           3           3           3           3
 AtZEff=  -0.0000000  -0.0000000  -0.0000000  -0.0000000  -0.0000000  -0.0000000  -0.0000000  -0.0000000
 NQMom=    0.0000000   0.0000000   0.0000000   0.0000000  -8.1650000  -8.1650000  -8.1650000  -8.1650000
 NMagM=    0.0000000   0.0000000   0.0000000   0.0000000   0.8218740   0.8218740   0.8218740   0.8218740
 AtZNuc=   6.0000000   6.0000000   6.0000000   6.0000000  17.0000000  17.0000000  17.0000000  17.0000000
 Leave Link  101 at Mon Jun 27 19:53:05 2022, MaxMem=  1342177280 cpu:               6.5 elap:               0.3
 (Enter /home/mkliu/g16/l103.exe)

 GradGradGradGradGradGradGradGradGradGradGradGradGradGradGradGradGradGrad
 Berny optimization.
 Initialization pass.
                           ----------------------------
                           !    Initial Parameters    !
                           ! (Angstroms and Degrees)  !
 --------------------------                            --------------------------
 ! Name  Definition              Value          Derivative Info.                !
 --------------------------------------------------------------------------------
 ! R1    R(1,5)                  1.4096         estimate D2E/DX2                !
 ! R2    R(1,17)                 1.4105         estimate D2E/DX2                !
 ! R3    R(1,25)                 1.4541         estimate D2E/DX2                !
 ! R4    R(2,6)                  1.4326         estimate D2E/DX2                !
 ! R5    R(2,43)                 1.4184         estimate D2E/DX2                !
 ! R6    R(2,44)                 1.4135         estimate D2E/DX2                !
 ! R7    R(3,7)                  1.4096         estimate D2E/DX2                !
 ! R8    R(3,18)                 1.4105         estimate D2E/DX2                !
 ! R9    R(3,26)                 1.4541         estimate D2E/DX2                !
 ! R10   R(4,8)                  1.4326         estimate D2E/DX2                !
 ! R11   R(4,45)                 1.4136         estimate D2E/DX2                !
 ! R12   R(4,46)                 1.4184         estimate D2E/DX2                !
 ! R13   R(5,9)                  1.4227         estimate D2E/DX2                !
 ! R14   R(5,29)                 1.4392         estimate D2E/DX2                !
 ! R15   R(6,10)                 1.3714         estimate D2E/DX2                !
 ! R16   R(6,15)                 1.4243         estimate D2E/DX2                !
 ! R17   R(7,12)                 1.4227         estimate D2E/DX2                !
 ! R18   R(7,30)                 1.4392         estimate D2E/DX2                !
 ! R19   R(8,11)                 1.3714         estimate D2E/DX2                !
 ! R20   R(8,16)                 1.4243         estimate D2E/DX2                !
 ! R21   R(9,13)                 1.3989         estimate D2E/DX2                !
 ! R22   R(9,35)                 1.4526         estimate D2E/DX2                !
 ! R23   R(10,49)                1.4358         estimate D2E/DX2                !
 ! R24   R(10,53)                1.4262         estimate D2E/DX2                !
 ! R25   R(11,50)                1.4358         estimate D2E/DX2                !
 ! R26   R(11,54)                1.4262         estimate D2E/DX2                !
 ! R27   R(12,14)                1.3989         estimate D2E/DX2                !
 ! R28   R(12,36)                1.4526         estimate D2E/DX2                !
 ! R29   R(13,15)                1.4244         estimate D2E/DX2                !
 ! R30   R(13,43)                1.4417         estimate D2E/DX2                !
 ! R31   R(14,16)                1.4244         estimate D2E/DX2                !
 ! R32   R(14,46)                1.4417         estimate D2E/DX2                !
 ! R33   R(15,17)                1.411          estimate D2E/DX2                !
 ! R34   R(16,18)                1.411          estimate D2E/DX2                !
 ! R35   R(17,19)                1.4457         estimate D2E/DX2                !
 ! R36   R(18,20)                1.4457         estimate D2E/DX2                !
 ! R37   R(19,21)                1.5066         estimate D2E/DX2                !
 ! R38   R(19,53)                1.3703         estimate D2E/DX2                !
 ! R39   R(20,22)                1.5066         estimate D2E/DX2                !
 ! R40   R(20,54)                1.3703         estimate D2E/DX2                !
 ! R41   R(21,23)                1.5092         estimate D2E/DX2                !
 ! R42   R(21,57)                1.5121         estimate D2E/DX2                !
 ! R43   R(21,85)                1.812          estimate D2E/DX2                !
 ! R44   R(22,24)                1.5092         estimate D2E/DX2                !
 ! R45   R(22,58)                1.5121         estimate D2E/DX2                !
 ! R46   R(22,88)                1.812          estimate D2E/DX2                !
 ! R47   R(23,25)                1.3592         estimate D2E/DX2                !
 ! R48   R(23,61)                1.4163         estimate D2E/DX2                !
 ! R49   R(24,26)                1.3592         estimate D2E/DX2                !
 ! R50   R(24,62)                1.4163         estimate D2E/DX2                !
 ! R51   R(25,27)                1.4268         estimate D2E/DX2                !
 ! R52   R(26,28)                1.4268         estimate D2E/DX2                !
 ! R53   R(27,29)                1.4271         estimate D2E/DX2                !
 ! R54   R(27,65)                1.4116         estimate D2E/DX2                !
 ! R55   R(28,30)                1.4271         estimate D2E/DX2                !
 ! R56   R(28,66)                1.4117         estimate D2E/DX2                !
 ! R57   R(29,31)                1.3617         estimate D2E/DX2                !
 ! R58   R(30,32)                1.3617         estimate D2E/DX2                !
 ! R59   R(31,33)                1.4429         estimate D2E/DX2                !
 ! R60   R(31,69)                1.4343         estimate D2E/DX2                !
 ! R61   R(32,34)                1.4429         estimate D2E/DX2                !
 ! R62   R(32,70)                1.4343         estimate D2E/DX2                !
 ! R63   R(33,35)                1.4068         estimate D2E/DX2                !
 ! R64   R(33,73)                1.4229         estimate D2E/DX2                !
 ! R65   R(34,36)                1.4068         estimate D2E/DX2                !
 ! R66   R(34,74)                1.4229         estimate D2E/DX2                !
 ! R67   R(35,37)                1.4502         estimate D2E/DX2                !
 ! R68   R(36,38)                1.4502         estimate D2E/DX2                !
 ! R69   R(37,39)                1.4495         estimate D2E/DX2                !
 ! R70   R(37,77)                1.4096         estimate D2E/DX2                !
 ! R71   R(38,42)                1.4495         estimate D2E/DX2                !
 ! R72   R(38,78)                1.4096         estimate D2E/DX2                !
 ! R73   R(39,43)                1.4041         estimate D2E/DX2                !
 ! R74   R(39,79)                1.4141         estimate D2E/DX2                !
 ! R75   R(40,41)                1.4414         estimate D2E/DX2                !
 ! R76   R(40,44)                1.4025         estimate D2E/DX2                !
 ! R77   R(40,79)                1.4195         estimate D2E/DX2                !
 ! R78   R(41,45)                1.4025         estimate D2E/DX2                !
 ! R79   R(41,80)                1.4195         estimate D2E/DX2                !
 ! R80   R(42,46)                1.4041         estimate D2E/DX2                !
 ! R81   R(42,80)                1.4141         estimate D2E/DX2                !
 ! R82   R(44,47)                1.4482         estimate D2E/DX2                !
 ! R83   R(45,48)                1.4482         estimate D2E/DX2                !
 ! R84   R(47,48)                1.4361         estimate D2E/DX2                !
 ! R85   R(47,49)                1.41           estimate D2E/DX2                !
 ! R86   R(48,50)                1.41           estimate D2E/DX2                !
 ! R87   R(49,51)                1.4131         estimate D2E/DX2                !
 ! R88   R(50,52)                1.4131         estimate D2E/DX2                !
 ! R89   R(51,52)                1.3617         estimate D2E/DX2                !
 ! R90   R(51,55)                1.505          estimate D2E/DX2                !
 ! R91   R(52,56)                1.505          estimate D2E/DX2                !
 ! R92   R(53,55)                1.5173         estimate D2E/DX2                !
 ! R93   R(54,56)                1.5173         estimate D2E/DX2                !
 ! R94   R(55,83)                1.5054         estimate D2E/DX2                !
 ! R95   R(55,86)                1.8086         estimate D2E/DX2                !
 ! R96   R(56,84)                1.5054         estimate D2E/DX2                !
 ! R97   R(56,87)                1.8086         estimate D2E/DX2                !
 ! R98   R(57,59)                1.4104         estimate D2E/DX2                !
 ! R99   R(57,83)                1.3774         estimate D2E/DX2                !
 ! R100  R(58,60)                1.4104         estimate D2E/DX2                !
 ! R101  R(58,84)                1.3774         estimate D2E/DX2                !
 ! R102  R(59,60)                1.3739         estimate D2E/DX2                !
 ! R103  R(59,61)                1.4283         estimate D2E/DX2                !
 ! R104  R(60,62)                1.4283         estimate D2E/DX2                !
 ! R105  R(61,63)                1.4138         estimate D2E/DX2                !
 ! R106  R(62,64)                1.4138         estimate D2E/DX2                !
 ! R107  R(63,64)                1.447          estimate D2E/DX2                !
 ! R108  R(63,65)                1.4371         estimate D2E/DX2                !
 ! R109  R(64,66)                1.4371         estimate D2E/DX2                !
 ! R110  R(65,67)                1.4476         estimate D2E/DX2                !
 ! R111  R(66,68)                1.4476         estimate D2E/DX2                !
 ! R112  R(67,68)                1.4461         estimate D2E/DX2                !
 ! R113  R(67,69)                1.4121         estimate D2E/DX2                !
 ! R114  R(68,70)                1.4121         estimate D2E/DX2                !
 ! R115  R(69,71)                1.4274         estimate D2E/DX2                !
 ! R116  R(70,72)                1.4274         estimate D2E/DX2                !
 ! R117  R(71,72)                1.3754         estimate D2E/DX2                !
 ! R118  R(71,73)                1.4446         estimate D2E/DX2                !
 ! R119  R(72,74)                1.4446         estimate D2E/DX2                !
 ! R120  R(73,75)                1.3815         estimate D2E/DX2                !
 ! R121  R(74,76)                1.3816         estimate D2E/DX2                !
 ! R122  R(75,76)                1.4441         estimate D2E/DX2                !
 ! R123  R(75,77)                1.4241         estimate D2E/DX2                !
 ! R124  R(76,78)                1.4241         estimate D2E/DX2                !
 ! R125  R(77,81)                1.4431         estimate D2E/DX2                !
 ! R126  R(78,81)                1.4431         estimate D2E/DX2                !
 ! R127  R(79,82)                1.4317         estimate D2E/DX2                !
 ! R128  R(80,82)                1.4317         estimate D2E/DX2                !
 ! R129  R(81,82)                1.3657         estimate D2E/DX2                !
 ! R130  R(83,84)                1.4283         estimate D2E/DX2                !
 ! A1    A(5,1,17)             121.9652         estimate D2E/DX2                !
 ! A2    A(5,1,25)             107.3673         estimate D2E/DX2                !
 ! A3    A(17,1,25)            119.2749         estimate D2E/DX2                !
 ! A4    A(6,2,43)             106.8751         estimate D2E/DX2                !
 ! A5    A(6,2,44)             120.4053         estimate D2E/DX2                !
 ! A6    A(43,2,44)            122.2363         estimate D2E/DX2                !
 ! A7    A(7,3,18)             121.965          estimate D2E/DX2                !
 ! A8    A(7,3,26)             107.3675         estimate D2E/DX2                !
 ! A9    A(18,3,26)            119.275          estimate D2E/DX2                !
 ! A10   A(8,4,45)             120.4049         estimate D2E/DX2                !
 ! A11   A(8,4,46)             106.8748         estimate D2E/DX2                !
 ! A12   A(45,4,46)            122.2366         estimate D2E/DX2                !
 ! A13   A(1,5,9)              123.0771         estimate D2E/DX2                !
 ! A14   A(1,5,29)             107.0785         estimate D2E/DX2                !
 ! A15   A(9,5,29)             119.3479         estimate D2E/DX2                !
 ! A16   A(2,6,10)             119.9311         estimate D2E/DX2                !
 ! A17   A(2,6,15)             109.5416         estimate D2E/DX2                !
 ! A18   A(10,6,15)            119.8782         estimate D2E/DX2                !
 ! A19   A(3,7,12)             123.077          estimate D2E/DX2                !
 ! A20   A(3,7,30)             107.0781         estimate D2E/DX2                !
 ! A21   A(12,7,30)            119.3487         estimate D2E/DX2                !
 ! A22   A(4,8,11)             119.9314         estimate D2E/DX2                !
 ! A23   A(4,8,16)             109.5417         estimate D2E/DX2                !
 ! A24   A(11,8,16)            119.8782         estimate D2E/DX2                !
 ! A25   A(5,9,13)             114.5242         estimate D2E/DX2                !
 ! A26   A(5,9,35)             120.4751         estimate D2E/DX2                !
 ! A27   A(13,9,35)            119.3132         estimate D2E/DX2                !
 ! A28   A(6,10,49)            120.2754         estimate D2E/DX2                !
 ! A29   A(6,10,53)            120.846          estimate D2E/DX2                !
 ! A30   A(49,10,53)           109.7446         estimate D2E/DX2                !
 ! A31   A(8,11,50)            120.2757         estimate D2E/DX2                !
 ! A32   A(8,11,54)            120.8458         estimate D2E/DX2                !
 ! A33   A(50,11,54)           109.7447         estimate D2E/DX2                !
 ! A34   A(7,12,14)            114.5244         estimate D2E/DX2                !
 ! A35   A(7,12,36)            120.4749         estimate D2E/DX2                !
 ! A36   A(14,12,36)           119.313          estimate D2E/DX2                !
 ! A37   A(9,13,15)            121.9771         estimate D2E/DX2                !
 ! A38   A(9,13,43)            120.823          estimate D2E/DX2                !
 ! A39   A(15,13,43)           108.229          estimate D2E/DX2                !
 ! A40   A(12,14,16)           121.9769         estimate D2E/DX2                !
 ! A41   A(12,14,46)           120.8234         estimate D2E/DX2                !
 ! A42   A(16,14,46)           108.2288         estimate D2E/DX2                !
 ! A43   A(6,15,13)            106.9182         estimate D2E/DX2                !
 ! A44   A(6,15,17)            119.8931         estimate D2E/DX2                !
 ! A45   A(13,15,17)           122.9194         estimate D2E/DX2                !
 ! A46   A(8,16,14)            106.9183         estimate D2E/DX2                !
 ! A47   A(8,16,18)            119.8933         estimate D2E/DX2                !
 ! A48   A(14,16,18)           122.9194         estimate D2E/DX2                !
 ! A49   A(1,17,15)            114.4657         estimate D2E/DX2                !
 ! A50   A(1,17,19)            120.4419         estimate D2E/DX2                !
 ! A51   A(15,17,19)           119.0408         estimate D2E/DX2                !
 ! A52   A(3,18,16)            114.466          estimate D2E/DX2                !
 ! A53   A(3,18,20)            120.4419         estimate D2E/DX2                !
 ! A54   A(16,18,20)           119.0406         estimate D2E/DX2                !
 ! A55   A(17,19,21)           120.4135         estimate D2E/DX2                !
 ! A56   A(17,19,53)           119.8326         estimate D2E/DX2                !
 ! A57   A(21,19,53)           117.0833         estimate D2E/DX2                !
 ! A58   A(18,20,22)           120.4136         estimate D2E/DX2                !
 ! A59   A(18,20,54)           119.8328         estimate D2E/DX2                !
 ! A60   A(22,20,54)           117.0832         estimate D2E/DX2                !
 ! A61   A(19,21,23)           111.7066         estimate D2E/DX2                !
 ! A62   A(19,21,57)           111.2689         estimate D2E/DX2                !
 ! A63   A(19,21,85)           109.822          estimate D2E/DX2                !
 ! A64   A(23,21,57)           100.9283         estimate D2E/DX2                !
 ! A65   A(23,21,85)           111.7525         estimate D2E/DX2                !
 ! A66   A(57,21,85)           111.1271         estimate D2E/DX2                !
 ! A67   A(20,22,24)           111.7062         estimate D2E/DX2                !
 ! A68   A(20,22,58)           111.2685         estimate D2E/DX2                !
 ! A69   A(20,22,88)           109.8225         estimate D2E/DX2                !
 ! A70   A(24,22,58)           100.9284         estimate D2E/DX2                !
 ! A71   A(24,22,88)           111.752          estimate D2E/DX2                !
 ! A72   A(58,22,88)           111.1276         estimate D2E/DX2                !
 ! A73   A(21,23,25)           122.6013         estimate D2E/DX2                !
 ! A74   A(21,23,61)           112.0372         estimate D2E/DX2                !
 ! A75   A(25,23,61)           118.2214         estimate D2E/DX2                !
 ! A76   A(22,24,26)           122.601          estimate D2E/DX2                !
 ! A77   A(22,24,62)           112.0377         estimate D2E/DX2                !
 ! A78   A(26,24,62)           118.2221         estimate D2E/DX2                !
 ! A79   A(1,25,23)            121.0335         estimate D2E/DX2                !
 ! A80   A(1,25,27)            109.2687         estimate D2E/DX2                !
 ! A81   A(23,25,27)           119.4984         estimate D2E/DX2                !
 ! A82   A(3,26,24)            121.0337         estimate D2E/DX2                !
 ! A83   A(3,26,28)            109.2691         estimate D2E/DX2                !
 ! A84   A(24,26,28)           119.4984         estimate D2E/DX2                !
 ! A85   A(25,27,29)           105.1896         estimate D2E/DX2                !
 ! A86   A(25,27,65)           123.0525         estimate D2E/DX2                !
 ! A87   A(29,27,65)           121.3943         estimate D2E/DX2                !
 ! A88   A(26,28,30)           105.1891         estimate D2E/DX2                !
 ! A89   A(26,28,66)           123.0519         estimate D2E/DX2                !
 ! A90   A(30,28,66)           121.3953         estimate D2E/DX2                !
 ! A91   A(5,29,27)            110.0047         estimate D2E/DX2                !
 ! A92   A(5,29,31)            120.0951         estimate D2E/DX2                !
 ! A93   A(27,29,31)           119.8543         estimate D2E/DX2                !
 ! A94   A(7,30,28)            110.0052         estimate D2E/DX2                !
 ! A95   A(7,30,32)            120.0943         estimate D2E/DX2                !
 ! A96   A(28,30,32)           119.8545         estimate D2E/DX2                !
 ! A97   A(29,31,33)           120.6288         estimate D2E/DX2                !
 ! A98   A(29,31,69)           119.4429         estimate D2E/DX2                !
 ! A99   A(33,31,69)           110.0202         estimate D2E/DX2                !
 ! A100  A(30,32,34)           120.6291         estimate D2E/DX2                !
 ! A101  A(30,32,70)           119.4423         estimate D2E/DX2                !
 ! A102  A(34,32,70)           110.0202         estimate D2E/DX2                !
 ! A103  A(31,33,35)           120.8609         estimate D2E/DX2                !
 ! A104  A(31,33,73)           105.8145         estimate D2E/DX2                !
 ! A105  A(35,33,73)           122.6843         estimate D2E/DX2                !
 ! A106  A(32,34,36)           120.8614         estimate D2E/DX2                !
 ! A107  A(32,34,74)           105.8147         estimate D2E/DX2                !
 ! A108  A(36,34,74)           122.6832         estimate D2E/DX2                !
 ! A109  A(9,35,33)            117.152          estimate D2E/DX2                !
 ! A110  A(9,35,37)            119.8527         estimate D2E/DX2                !
 ! A111  A(33,35,37)           117.8896         estimate D2E/DX2                !
 ! A112  A(12,36,34)           117.1516         estimate D2E/DX2                !
 ! A113  A(12,36,38)           119.8526         estimate D2E/DX2                !
 ! A114  A(34,36,38)           117.89           estimate D2E/DX2                !
 ! A115  A(35,37,39)           119.3233         estimate D2E/DX2                !
 ! A116  A(35,37,77)           118.2562         estimate D2E/DX2                !
 ! A117  A(39,37,77)           117.0725         estimate D2E/DX2                !
 ! A118  A(36,38,42)           119.3233         estimate D2E/DX2                !
 ! A119  A(36,38,78)           118.2567         estimate D2E/DX2                !
 ! A120  A(42,38,78)           117.0718         estimate D2E/DX2                !
 ! A121  A(37,39,43)           119.3998         estimate D2E/DX2                !
 ! A122  A(37,39,79)           120.0922         estimate D2E/DX2                !
 ! A123  A(43,39,79)           114.7016         estimate D2E/DX2                !
 ! A124  A(41,40,44)           120.9286         estimate D2E/DX2                !
 ! A125  A(41,40,79)           108.4733         estimate D2E/DX2                !
 ! A126  A(44,40,79)           122.0801         estimate D2E/DX2                !
 ! A127  A(40,41,45)           120.9297         estimate D2E/DX2                !
 ! A128  A(40,41,80)           108.4732         estimate D2E/DX2                !
 ! A129  A(45,41,80)           122.0809         estimate D2E/DX2                !
 ! A130  A(38,42,46)           119.4            estimate D2E/DX2                !
 ! A131  A(38,42,80)           120.0922         estimate D2E/DX2                !
 ! A132  A(46,42,80)           114.7016         estimate D2E/DX2                !
 ! A133  A(2,43,13)            108.3361         estimate D2E/DX2                !
 ! A134  A(2,43,39)            122.1331         estimate D2E/DX2                !
 ! A135  A(13,43,39)           121.065          estimate D2E/DX2                !
 ! A136  A(2,44,40)            114.8103         estimate D2E/DX2                !
 ! A137  A(2,44,47)            120.0765         estimate D2E/DX2                !
 ! A138  A(40,44,47)           119.0661         estimate D2E/DX2                !
 ! A139  A(4,45,41)            114.8098         estimate D2E/DX2                !
 ! A140  A(4,45,48)            120.0764         estimate D2E/DX2                !
 ! A141  A(41,45,48)           119.0659         estimate D2E/DX2                !
 ! A142  A(4,46,14)            108.3363         estimate D2E/DX2                !
 ! A143  A(4,46,42)            122.1331         estimate D2E/DX2                !
 ! A144  A(14,46,42)           121.0648         estimate D2E/DX2                !
 ! A145  A(44,47,48)           119.9723         estimate D2E/DX2                !
 ! A146  A(44,47,49)           117.5186         estimate D2E/DX2                !
 ! A147  A(48,47,49)           117.3569         estimate D2E/DX2                !
 ! A148  A(45,48,47)           119.9713         estimate D2E/DX2                !
 ! A149  A(45,48,50)           117.519          estimate D2E/DX2                !
 ! A150  A(47,48,50)           117.3564         estimate D2E/DX2                !
 ! A151  A(10,49,47)           121.4252         estimate D2E/DX2                !
 ! A152  A(10,49,51)           106.9475         estimate D2E/DX2                !
 ! A153  A(47,49,51)           123.5897         estimate D2E/DX2                !
 ! A154  A(11,50,48)           121.4247         estimate D2E/DX2                !
 ! A155  A(11,50,52)           106.9475         estimate D2E/DX2                !
 ! A156  A(48,50,52)           123.5905         estimate D2E/DX2                !
 ! A157  A(49,51,52)           119.0036         estimate D2E/DX2                !
 ! A158  A(49,51,55)           111.6105         estimate D2E/DX2                !
 ! A159  A(52,51,55)           123.2713         estimate D2E/DX2                !
 ! A160  A(50,52,51)           119.002          estimate D2E/DX2                !
 ! A161  A(50,52,56)           111.6103         estimate D2E/DX2                !
 ! A162  A(51,52,56)           123.2675         estimate D2E/DX2                !
 ! A163  A(10,53,19)           120.3185         estimate D2E/DX2                !
 ! A164  A(10,53,55)           108.2981         estimate D2E/DX2                !
 ! A165  A(19,53,55)           126.1874         estimate D2E/DX2                !
 ! A166  A(11,54,20)           120.3186         estimate D2E/DX2                !
 ! A167  A(11,54,56)           108.2989         estimate D2E/DX2                !
 ! A168  A(20,54,56)           126.1874         estimate D2E/DX2                !
 ! A169  A(51,55,53)           101.2764         estimate D2E/DX2                !
 ! A170  A(51,55,83)           110.1143         estimate D2E/DX2                !
 ! A171  A(51,55,86)           112.5438         estimate D2E/DX2                !
 ! A172  A(53,55,83)           111.348          estimate D2E/DX2                !
 ! A173  A(53,55,86)           111.2648         estimate D2E/DX2                !
 ! A174  A(83,55,86)           110.0466         estimate D2E/DX2                !
 ! A175  A(52,56,54)           101.2759         estimate D2E/DX2                !
 ! A176  A(52,56,84)           110.1152         estimate D2E/DX2                !
 ! A177  A(52,56,87)           112.5461         estimate D2E/DX2                !
 ! A178  A(54,56,84)           111.3476         estimate D2E/DX2                !
 ! A179  A(54,56,87)           111.2642         estimate D2E/DX2                !
 ! A180  A(84,56,87)           110.045          estimate D2E/DX2                !
 ! A181  A(21,57,59)           108.2314         estimate D2E/DX2                !
 ! A182  A(21,57,83)           126.5621         estimate D2E/DX2                !
 ! A183  A(59,57,83)           119.7226         estimate D2E/DX2                !
 ! A184  A(22,58,60)           108.2305         estimate D2E/DX2                !
 ! A185  A(22,58,84)           126.5615         estimate D2E/DX2                !
 ! A186  A(60,58,84)           119.7248         estimate D2E/DX2                !
 ! A187  A(57,59,60)           120.2499         estimate D2E/DX2                !
 ! A188  A(57,59,61)           111.1806         estimate D2E/DX2                !
 ! A189  A(60,59,61)           119.7746         estimate D2E/DX2                !
 ! A190  A(58,60,59)           120.2467         estimate D2E/DX2                !
 ! A191  A(58,60,62)           111.1811         estimate D2E/DX2                !
 ! A192  A(59,60,62)           119.7748         estimate D2E/DX2                !
 ! A193  A(23,61,59)           105.6729         estimate D2E/DX2                !
 ! A194  A(23,61,63)           123.839          estimate D2E/DX2                !
 ! A195  A(59,61,63)           121.2815         estimate D2E/DX2                !
 ! A196  A(24,62,60)           105.6723         estimate D2E/DX2                !
 ! A197  A(24,62,64)           123.8393         estimate D2E/DX2                !
 ! A198  A(60,62,64)           121.2829         estimate D2E/DX2                !
 ! A199  A(61,63,64)           118.4135         estimate D2E/DX2                !
 ! A200  A(61,63,65)           117.5635         estimate D2E/DX2                !
 ! A201  A(64,63,65)           119.9387         estimate D2E/DX2                !
 ! A202  A(62,64,63)           118.4101         estimate D2E/DX2                !
 ! A203  A(62,64,66)           117.5619         estimate D2E/DX2                !
 ! A204  A(63,64,66)           119.9391         estimate D2E/DX2                !
 ! A205  A(27,65,63)           117.0265         estimate D2E/DX2                !
 ! A206  A(27,65,67)           118.2338         estimate D2E/DX2                !
 ! A207  A(63,65,67)           120.3375         estimate D2E/DX2                !
 ! A208  A(28,66,64)           117.0279         estimate D2E/DX2                !
 ! A209  A(28,66,68)           118.232          estimate D2E/DX2                !
 ! A210  A(64,66,68)           120.3377         estimate D2E/DX2                !
 ! A211  A(65,67,68)           119.7225         estimate D2E/DX2                !
 ! A212  A(65,67,69)           117.944          estimate D2E/DX2                !
 ! A213  A(68,67,69)           117.941          estimate D2E/DX2                !
 ! A214  A(66,68,67)           119.7212         estimate D2E/DX2                !
 ! A215  A(66,68,70)           117.9455         estimate D2E/DX2                !
 ! A216  A(67,68,70)           117.9395         estimate D2E/DX2                !
 ! A217  A(31,69,67)           121.3789         estimate D2E/DX2                !
 ! A218  A(31,69,71)           105.6169         estimate D2E/DX2                !
 ! A219  A(67,69,71)           122.6345         estimate D2E/DX2                !
 ! A220  A(32,70,68)           121.3791         estimate D2E/DX2                !
 ! A221  A(32,70,72)           105.6165         estimate D2E/DX2                !
 ! A222  A(68,70,72)           122.6343         estimate D2E/DX2                !
 ! A223  A(69,71,72)           119.2275         estimate D2E/DX2                !
 ! A224  A(69,71,73)           108.7896         estimate D2E/DX2                !
 ! A225  A(72,71,73)           120.1089         estimate D2E/DX2                !
 ! A226  A(70,72,71)           119.2292         estimate D2E/DX2                !
 ! A227  A(70,72,74)           108.7906         estimate D2E/DX2                !
 ! A228  A(71,72,74)           120.1126         estimate D2E/DX2                !
 ! A229  A(33,73,71)           108.5465         estimate D2E/DX2                !
 ! A230  A(33,73,75)           119.3804         estimate D2E/DX2                !
 ! A231  A(71,73,75)           119.8924         estimate D2E/DX2                !
 ! A232  A(34,74,72)           108.5461         estimate D2E/DX2                !
 ! A233  A(34,74,76)           119.3812         estimate D2E/DX2                !
 ! A234  A(72,74,76)           119.8916         estimate D2E/DX2                !
 ! A235  A(73,75,76)           119.9803         estimate D2E/DX2                !
 ! A236  A(73,75,77)           119.2547         estimate D2E/DX2                !
 ! A237  A(76,75,77)           108.7762         estimate D2E/DX2                !
 ! A238  A(74,76,75)           119.9787         estimate D2E/DX2                !
 ! A239  A(74,76,78)           119.2548         estimate D2E/DX2                !
 ! A240  A(75,76,78)           108.778          estimate D2E/DX2                !
 ! A241  A(37,77,75)           122.4132         estimate D2E/DX2                !
 ! A242  A(37,77,81)           121.5346         estimate D2E/DX2                !
 ! A243  A(75,77,81)           105.9749         estimate D2E/DX2                !
 ! A244  A(38,78,76)           122.4124         estimate D2E/DX2                !
 ! A245  A(38,78,81)           121.5356         estimate D2E/DX2                !
 ! A246  A(76,78,81)           105.9741         estimate D2E/DX2                !
 ! A247  A(39,79,40)           122.2618         estimate D2E/DX2                !
 ! A248  A(39,79,82)           120.5297         estimate D2E/DX2                !
 ! A249  A(40,79,82)           106.5912         estimate D2E/DX2                !
 ! A250  A(41,80,42)           122.2615         estimate D2E/DX2                !
 ! A251  A(41,80,82)           106.5914         estimate D2E/DX2                !
 ! A252  A(42,80,82)           120.53           estimate D2E/DX2                !
 ! A253  A(77,81,78)           109.7755         estimate D2E/DX2                !
 ! A254  A(77,81,82)           120.0293         estimate D2E/DX2                !
 ! A255  A(78,81,82)           120.0289         estimate D2E/DX2                !
 ! A256  A(79,82,80)           109.6854         estimate D2E/DX2                !
 ! A257  A(79,82,81)           119.9836         estimate D2E/DX2                !
 ! A258  A(80,82,81)           119.9834         estimate D2E/DX2                !
 ! A259  A(55,83,57)           116.501          estimate D2E/DX2                !
 ! A260  A(55,83,84)           121.7544         estimate D2E/DX2                !
 ! A261  A(57,83,84)           119.739          estimate D2E/DX2                !
 ! A262  A(56,84,58)           116.5011         estimate D2E/DX2                !
 ! A263  A(56,84,83)           121.7569         estimate D2E/DX2                !
 ! A264  A(58,84,83)           119.7365         estimate D2E/DX2                !
 ! D1    D(17,1,5,9)            -1.064          estimate D2E/DX2                !
 ! D2    D(17,1,5,29)         -145.3548         estimate D2E/DX2                !
 ! D3    D(25,1,5,9)           141.9802         estimate D2E/DX2                !
 ! D4    D(25,1,5,29)           -2.3106         estimate D2E/DX2                !
 ! D5    D(5,1,17,15)           -7.9136         estimate D2E/DX2                !
 ! D6    D(5,1,17,19)          144.4604         estimate D2E/DX2                !
 ! D7    D(25,1,17,15)        -146.7811         estimate D2E/DX2                !
 ! D8    D(25,1,17,19)           5.593          estimate D2E/DX2                !
 ! D9    D(5,1,25,23)         -149.3736         estimate D2E/DX2                !
 ! D10   D(5,1,25,27)           -4.3807         estimate D2E/DX2                !
 ! D11   D(17,1,25,23)          -5.1566         estimate D2E/DX2                !
 ! D12   D(17,1,25,27)         139.8363         estimate D2E/DX2                !
 ! D13   D(43,2,6,10)         -147.8229         estimate D2E/DX2                !
 ! D14   D(43,2,6,15)           -3.3034         estimate D2E/DX2                !
 ! D15   D(44,2,6,10)           -2.304          estimate D2E/DX2                !
 ! D16   D(44,2,6,15)          142.2155         estimate D2E/DX2                !
 ! D17   D(6,2,43,13)            2.6225         estimate D2E/DX2                !
 ! D18   D(6,2,43,39)          150.8465         estimate D2E/DX2                !
 ! D19   D(44,2,43,13)        -142.12           estimate D2E/DX2                !
 ! D20   D(44,2,43,39)           6.104          estimate D2E/DX2                !
 ! D21   D(6,2,44,40)         -152.4673         estimate D2E/DX2                !
 ! D22   D(6,2,44,47)           -0.0655         estimate D2E/DX2                !
 ! D23   D(43,2,44,40)         -12.2952         estimate D2E/DX2                !
 ! D24   D(43,2,44,47)         140.1066         estimate D2E/DX2                !
 ! D25   D(18,3,7,12)            1.0641         estimate D2E/DX2                !
 ! D26   D(18,3,7,30)          145.3556         estimate D2E/DX2                !
 ! D27   D(26,3,7,12)         -141.9804         estimate D2E/DX2                !
 ! D28   D(26,3,7,30)            2.3111         estimate D2E/DX2                !
 ! D29   D(7,3,18,16)            7.9134         estimate D2E/DX2                !
 ! D30   D(7,3,18,20)         -144.4607         estimate D2E/DX2                !
 ! D31   D(26,3,18,16)         146.7812         estimate D2E/DX2                !
 ! D32   D(26,3,18,20)          -5.593          estimate D2E/DX2                !
 ! D33   D(7,3,26,24)          149.3735         estimate D2E/DX2                !
 ! D34   D(7,3,26,28)            4.3797         estimate D2E/DX2                !
 ! D35   D(18,3,26,24)           5.1563         estimate D2E/DX2                !
 ! D36   D(18,3,26,28)        -139.8374         estimate D2E/DX2                !
 ! D37   D(45,4,8,11)            2.3045         estimate D2E/DX2                !
 ! D38   D(45,4,8,16)         -142.2156         estimate D2E/DX2                !
 ! D39   D(46,4,8,11)          147.8231         estimate D2E/DX2                !
 ! D40   D(46,4,8,16)            3.303          estimate D2E/DX2                !
 ! D41   D(8,4,45,41)          152.4649         estimate D2E/DX2                !
 ! D42   D(8,4,45,48)            0.0649         estimate D2E/DX2                !
 ! D43   D(46,4,45,41)          12.2935         estimate D2E/DX2                !
 ! D44   D(46,4,45,48)        -140.1065         estimate D2E/DX2                !
 ! D45   D(8,4,46,14)           -2.6218         estimate D2E/DX2                !
 ! D46   D(8,4,46,42)         -150.8456         estimate D2E/DX2                !
 ! D47   D(45,4,46,14)         142.12           estimate D2E/DX2                !
 ! D48   D(45,4,46,42)          -6.1038         estimate D2E/DX2                !
 ! D49   D(1,5,9,13)             7.9292         estimate D2E/DX2                !
 ! D50   D(1,5,9,35)          -145.3066         estimate D2E/DX2                !
 ! D51   D(29,5,9,13)          148.1312         estimate D2E/DX2                !
 ! D52   D(29,5,9,35)           -5.1045         estimate D2E/DX2                !
 ! D53   D(1,5,29,27)            8.2761         estimate D2E/DX2                !
 ! D54   D(1,5,29,31)          153.6926         estimate D2E/DX2                !
 ! D55   D(9,5,29,27)         -137.5927         estimate D2E/DX2                !
 ! D56   D(9,5,29,31)            7.8238         estimate D2E/DX2                !
 ! D57   D(2,6,10,49)           -0.1844         estimate D2E/DX2                !
 ! D58   D(2,6,10,53)          143.3552         estimate D2E/DX2                !
 ! D59   D(15,6,10,49)        -141.0722         estimate D2E/DX2                !
 ! D60   D(15,6,10,53)           2.4674         estimate D2E/DX2                !
 ! D61   D(2,6,15,13)            2.6741         estimate D2E/DX2                !
 ! D62   D(2,6,15,17)         -143.4321         estimate D2E/DX2                !
 ! D63   D(10,6,15,13)         147.2153         estimate D2E/DX2                !
 ! D64   D(10,6,15,17)           1.1091         estimate D2E/DX2                !
 ! D65   D(3,7,12,14)           -7.929          estimate D2E/DX2                !
 ! D66   D(3,7,12,36)          145.3063         estimate D2E/DX2                !
 ! D67   D(30,7,12,14)        -148.1315         estimate D2E/DX2                !
 ! D68   D(30,7,12,36)           5.1038         estimate D2E/DX2                !
 ! D69   D(3,7,30,28)           -8.2759         estimate D2E/DX2                !
 ! D70   D(3,7,30,32)         -153.6922         estimate D2E/DX2                !
 ! D71   D(12,7,30,28)         137.5932         estimate D2E/DX2                !
 ! D72   D(12,7,30,32)          -7.8231         estimate D2E/DX2                !
 ! D73   D(4,8,11,50)            0.1849         estimate D2E/DX2                !
 ! D74   D(4,8,11,54)         -143.355          estimate D2E/DX2                !
 ! D75   D(16,8,11,50)         141.0735         estimate D2E/DX2                !
 ! D76   D(16,8,11,54)          -2.4664         estimate D2E/DX2                !
 ! D77   D(4,8,16,14)           -2.6741         estimate D2E/DX2                !
 ! D78   D(4,8,16,18)          143.4324         estimate D2E/DX2                !
 ! D79   D(11,8,16,14)        -147.216          estimate D2E/DX2                !
 ! D80   D(11,8,16,18)          -1.1095         estimate D2E/DX2                !
 ! D81   D(5,9,13,15)           -5.6762         estimate D2E/DX2                !
 ! D82   D(5,9,13,43)         -148.9914         estimate D2E/DX2                !
 ! D83   D(35,9,13,15)         147.894          estimate D2E/DX2                !
 ! D84   D(35,9,13,43)           4.5788         estimate D2E/DX2                !
 ! D85   D(5,9,35,33)           -5.1223         estimate D2E/DX2                !
 ! D86   D(5,9,35,37)          149.0993         estimate D2E/DX2                !
 ! D87   D(13,9,35,33)        -157.0973         estimate D2E/DX2                !
 ! D88   D(13,9,35,37)          -2.8757         estimate D2E/DX2                !
 ! D89   D(6,10,49,47)           5.202          estimate D2E/DX2                !
 ! D90   D(6,10,49,51)         154.9667         estimate D2E/DX2                !
 ! D91   D(53,10,49,47)       -141.9729         estimate D2E/DX2                !
 ! D92   D(53,10,49,51)          7.7919         estimate D2E/DX2                !
 ! D93   D(6,10,53,19)          -5.1591         estimate D2E/DX2                !
 ! D94   D(6,10,53,55)        -161.1919         estimate D2E/DX2                !
 ! D95   D(49,10,53,19)        141.7974         estimate D2E/DX2                !
 ! D96   D(49,10,53,55)        -14.2353         estimate D2E/DX2                !
 ! D97   D(8,11,50,48)          -5.2034         estimate D2E/DX2                !
 ! D98   D(8,11,50,52)        -154.9687         estimate D2E/DX2                !
 ! D99   D(54,11,50,48)        141.9715         estimate D2E/DX2                !
 ! D100  D(54,11,50,52)         -7.7938         estimate D2E/DX2                !
 ! D101  D(8,11,54,20)           5.1582         estimate D2E/DX2                !
 ! D102  D(8,11,54,56)         161.1929         estimate D2E/DX2                !
 ! D103  D(50,11,54,20)       -141.7987         estimate D2E/DX2                !
 ! D104  D(50,11,54,56)         14.2359         estimate D2E/DX2                !
 ! D105  D(7,12,14,16)           5.676          estimate D2E/DX2                !
 ! D106  D(7,12,14,46)         148.9911         estimate D2E/DX2                !
 ! D107  D(36,12,14,16)       -147.8938         estimate D2E/DX2                !
 ! D108  D(36,12,14,46)         -4.5788         estimate D2E/DX2                !
 ! D109  D(7,12,36,34)           5.1225         estimate D2E/DX2                !
 ! D110  D(7,12,36,38)        -149.0988         estimate D2E/DX2                !
 ! D111  D(14,12,36,34)        157.0972         estimate D2E/DX2                !
 ! D112  D(14,12,36,38)          2.8759         estimate D2E/DX2                !
 ! D113  D(9,13,15,6)         -148.3158         estimate D2E/DX2                !
 ! D114  D(9,13,15,17)          -3.4812         estimate D2E/DX2                !
 ! D115  D(43,13,15,6)          -1.0089         estimate D2E/DX2                !
 ! D116  D(43,13,15,17)        143.8258         estimate D2E/DX2                !
 ! D117  D(9,13,43,2)          146.7336         estimate D2E/DX2                !
 ! D118  D(9,13,43,39)          -1.8942         estimate D2E/DX2                !
 ! D119  D(15,13,43,2)          -1.0216         estimate D2E/DX2                !
 ! D120  D(15,13,43,39)       -149.6494         estimate D2E/DX2                !
 ! D121  D(12,14,16,8)         148.3163         estimate D2E/DX2                !
 ! D122  D(12,14,16,18)          3.4812         estimate D2E/DX2                !
 ! D123  D(46,14,16,8)           1.0093         estimate D2E/DX2                !
 ! D124  D(46,14,16,18)       -143.8258         estimate D2E/DX2                !
 ! D125  D(12,14,46,4)        -146.7341         estimate D2E/DX2                !
 ! D126  D(12,14,46,42)          1.8936         estimate D2E/DX2                !
 ! D127  D(16,14,46,4)           1.0209         estimate D2E/DX2                !
 ! D128  D(16,14,46,42)        149.6487         estimate D2E/DX2                !
 ! D129  D(6,15,17,1)          150.7191         estimate D2E/DX2                !
 ! D130  D(6,15,17,19)          -2.0703         estimate D2E/DX2                !
 ! D131  D(13,15,17,1)          10.1814         estimate D2E/DX2                !
 ! D132  D(13,15,17,19)       -142.608          estimate D2E/DX2                !
 ! D133  D(8,16,18,3)         -150.7194         estimate D2E/DX2                !
 ! D134  D(8,16,18,20)           2.0701         estimate D2E/DX2                !
 ! D135  D(14,16,18,3)         -10.1813         estimate D2E/DX2                !
 ! D136  D(14,16,18,20)        142.6082         estimate D2E/DX2                !
 ! D137  D(1,17,19,21)           9.244          estimate D2E/DX2                !
 ! D138  D(1,17,19,53)        -151.7012         estimate D2E/DX2                !
 ! D139  D(15,17,19,21)        160.3785         estimate D2E/DX2                !
 ! D140  D(15,17,19,53)         -0.5668         estimate D2E/DX2                !
 ! D141  D(3,18,20,22)          -9.2445         estimate D2E/DX2                !
 ! D142  D(3,18,20,54)         151.7017         estimate D2E/DX2                !
 ! D143  D(16,18,20,22)       -160.3792         estimate D2E/DX2                !
 ! D144  D(16,18,20,54)          0.5671         estimate D2E/DX2                !
 ! D145  D(17,19,21,23)        -22.3293         estimate D2E/DX2                !
 ! D146  D(17,19,21,57)       -134.2869         estimate D2E/DX2                !
 ! D147  D(17,19,21,85)        102.2464         estimate D2E/DX2                !
 ! D148  D(53,19,21,23)        139.1233         estimate D2E/DX2                !
 ! D149  D(53,19,21,57)         27.1657         estimate D2E/DX2                !
 ! D150  D(53,19,21,85)        -96.3009         estimate D2E/DX2                !
 ! D151  D(17,19,53,10)          4.1173         estimate D2E/DX2                !
 ! D152  D(17,19,53,55)        155.5717         estimate D2E/DX2                !
 ! D153  D(21,19,53,10)       -157.4481         estimate D2E/DX2                !
 ! D154  D(21,19,53,55)         -5.9937         estimate D2E/DX2                !
 ! D155  D(18,20,22,24)         22.3301         estimate D2E/DX2                !
 ! D156  D(18,20,22,58)        134.2874         estimate D2E/DX2                !
 ! D157  D(18,20,22,88)       -102.2451         estimate D2E/DX2                !
 ! D158  D(54,20,22,24)       -139.1235         estimate D2E/DX2                !
 ! D159  D(54,20,22,58)        -27.1663         estimate D2E/DX2                !
 ! D160  D(54,20,22,88)         96.3012         estimate D2E/DX2                !
 ! D161  D(18,20,54,11)         -4.117          estimate D2E/DX2                !
 ! D162  D(18,20,54,56)       -155.5739         estimate D2E/DX2                !
 ! D163  D(22,20,54,11)        157.4493         estimate D2E/DX2                !
 ! D164  D(22,20,54,56)          5.9925         estimate D2E/DX2                !
 ! D165  D(19,21,23,25)         23.3815         estimate D2E/DX2                !
 ! D166  D(19,21,23,61)       -126.4379         estimate D2E/DX2                !
 ! D167  D(57,21,23,25)        141.7086         estimate D2E/DX2                !
 ! D168  D(57,21,23,61)         -8.1108         estimate D2E/DX2                !
 ! D169  D(85,21,23,25)       -100.109          estimate D2E/DX2                !
 ! D170  D(85,21,23,61)        110.0716         estimate D2E/DX2                !
 ! D171  D(19,21,57,59)        131.7526         estimate D2E/DX2                !
 ! D172  D(19,21,57,83)        -21.6516         estimate D2E/DX2                !
 ! D173  D(23,21,57,59)         13.108          estimate D2E/DX2                !
 ! D174  D(23,21,57,83)       -140.2963         estimate D2E/DX2                !
 ! D175  D(85,21,57,59)       -105.5285         estimate D2E/DX2                !
 ! D176  D(85,21,57,83)        101.0673         estimate D2E/DX2                !
 ! D177  D(20,22,24,26)        -23.3825         estimate D2E/DX2                !
 ! D178  D(20,22,24,62)        126.439          estimate D2E/DX2                !
 ! D179  D(58,22,24,26)       -141.709          estimate D2E/DX2                !
 ! D180  D(58,22,24,62)          8.1125         estimate D2E/DX2                !
 ! D181  D(88,22,24,26)        100.1081         estimate D2E/DX2                !
 ! D182  D(88,22,24,62)       -110.0703         estimate D2E/DX2                !
 ! D183  D(20,22,58,60)       -131.7538         estimate D2E/DX2                !
 ! D184  D(20,22,58,84)         21.6525         estimate D2E/DX2                !
 ! D185  D(24,22,58,60)        -13.1098         estimate D2E/DX2                !
 ! D186  D(24,22,58,84)        140.2965         estimate D2E/DX2                !
 ! D187  D(88,22,58,60)        105.5264         estimate D2E/DX2                !
 ! D188  D(88,22,58,84)       -101.0673         estimate D2E/DX2                !
 ! D189  D(21,23,25,1)         -10.5289         estimate D2E/DX2                !
 ! D190  D(21,23,25,27)       -152.0521         estimate D2E/DX2                !
 ! D191  D(61,23,25,1)         137.5423         estimate D2E/DX2                !
 ! D192  D(61,23,25,27)         -3.981          estimate D2E/DX2                !
 ! D193  D(21,23,61,59)          0.1975         estimate D2E/DX2                !
 ! D194  D(21,23,61,63)        147.0626         estimate D2E/DX2                !
 ! D195  D(25,23,61,59)       -151.0743         estimate D2E/DX2                !
 ! D196  D(25,23,61,63)         -4.2093         estimate D2E/DX2                !
 ! D197  D(22,24,26,3)          10.5297         estimate D2E/DX2                !
 ! D198  D(22,24,26,28)        152.054          estimate D2E/DX2                !
 ! D199  D(62,24,26,3)        -137.5436         estimate D2E/DX2                !
 ! D200  D(62,24,26,28)          3.9808         estimate D2E/DX2                !
 ! D201  D(22,24,62,60)         -0.1983         estimate D2E/DX2                !
 ! D202  D(22,24,62,64)       -147.0655         estimate D2E/DX2                !
 ! D203  D(26,24,62,60)        151.0753         estimate D2E/DX2                !
 ! D204  D(26,24,62,64)          4.2081         estimate D2E/DX2                !
 ! D205  D(1,25,27,29)           9.2008         estimate D2E/DX2                !
 ! D206  D(1,25,27,65)        -135.951          estimate D2E/DX2                !
 ! D207  D(23,25,27,29)        154.814          estimate D2E/DX2                !
 ! D208  D(23,25,27,65)          9.6622         estimate D2E/DX2                !
 ! D209  D(3,26,28,30)          -9.1997         estimate D2E/DX2                !
 ! D210  D(3,26,28,66)         135.9523         estimate D2E/DX2                !
 ! D211  D(24,26,28,30)       -154.8138         estimate D2E/DX2                !
 ! D212  D(24,26,28,66)         -9.6618         estimate D2E/DX2                !
 ! D213  D(25,27,29,5)         -10.7539         estimate D2E/DX2                !
 ! D214  D(25,27,29,31)       -156.266          estimate D2E/DX2                !
 ! D215  D(65,27,29,5)         135.1159         estimate D2E/DX2                !
 ! D216  D(65,27,29,31)        -10.3962         estimate D2E/DX2                !
 ! D217  D(25,27,65,63)         -6.7164         estimate D2E/DX2                !
 ! D218  D(25,27,65,67)        149.8454         estimate D2E/DX2                !
 ! D219  D(29,27,65,63)       -146.4745         estimate D2E/DX2                !
 ! D220  D(29,27,65,67)         10.0874         estimate D2E/DX2                !
 ! D221  D(26,28,30,7)          10.7531         estimate D2E/DX2                !
 ! D222  D(26,28,30,32)        156.2647         estimate D2E/DX2                !
 ! D223  D(66,28,30,7)        -135.1162         estimate D2E/DX2                !
 ! D224  D(66,28,30,32)         10.3953         estimate D2E/DX2                !
 ! D225  D(26,28,66,64)          6.7174         estimate D2E/DX2                !
 ! D226  D(26,28,66,68)       -149.8435         estimate D2E/DX2                !
 ! D227  D(30,28,66,64)        146.475          estimate D2E/DX2                !
 ! D228  D(30,28,66,68)        -10.086          estimate D2E/DX2                !
 ! D229  D(5,29,31,33)          -0.1633         estimate D2E/DX2                !
 ! D230  D(5,29,31,69)        -142.4487         estimate D2E/DX2                !
 ! D231  D(27,29,31,33)        141.887          estimate D2E/DX2                !
 ! D232  D(27,29,31,69)         -0.3984         estimate D2E/DX2                !
 ! D233  D(7,30,32,34)           0.1631         estimate D2E/DX2                !
 ! D234  D(7,30,32,70)         142.4477         estimate D2E/DX2                !
 ! D235  D(28,30,32,34)       -141.8871         estimate D2E/DX2                !
 ! D236  D(28,30,32,70)          0.3976         estimate D2E/DX2                !
 ! D237  D(29,31,33,35)        -10.5949         estimate D2E/DX2                !
 ! D238  D(29,31,33,73)       -155.9893         estimate D2E/DX2                !
 ! D239  D(69,31,33,35)        134.865          estimate D2E/DX2                !
 ! D240  D(69,31,33,73)        -10.5295         estimate D2E/DX2                !
 ! D241  D(29,31,69,67)         11.407          estimate D2E/DX2                !
 ! D242  D(29,31,69,71)        157.1332         estimate D2E/DX2                !
 ! D243  D(33,31,69,67)       -134.5207         estimate D2E/DX2                !
 ! D244  D(33,31,69,71)         11.2055         estimate D2E/DX2                !
 ! D245  D(30,32,34,36)         10.5946         estimate D2E/DX2                !
 ! D246  D(30,32,34,74)        155.9881         estimate D2E/DX2                !
 ! D247  D(70,32,34,36)       -134.8644         estimate D2E/DX2                !
 ! D248  D(70,32,34,74)         10.529          estimate D2E/DX2                !
 ! D249  D(30,32,70,68)        -11.4048         estimate D2E/DX2                !
 ! D250  D(30,32,70,72)       -157.1305         estimate D2E/DX2                !
 ! D251  D(34,32,70,68)        134.5224         estimate D2E/DX2                !
 ! D252  D(34,32,70,72)        -11.2033         estimate D2E/DX2                !
 ! D253  D(31,33,35,9)          12.9031         estimate D2E/DX2                !
 ! D254  D(31,33,35,37)       -141.8353         estimate D2E/DX2                !
 ! D255  D(73,33,35,9)         152.4198         estimate D2E/DX2                !
 ! D256  D(73,33,35,37)         -2.3186         estimate D2E/DX2                !
 ! D257  D(31,33,73,71)          5.6131         estimate D2E/DX2                !
 ! D258  D(31,33,73,75)        148.0005         estimate D2E/DX2                !
 ! D259  D(35,33,73,71)       -138.9905         estimate D2E/DX2                !
 ! D260  D(35,33,73,75)          3.3969         estimate D2E/DX2                !
 ! D261  D(32,34,36,12)        -12.9028         estimate D2E/DX2                !
 ! D262  D(32,34,36,38)        141.8351         estimate D2E/DX2                !
 ! D263  D(74,34,36,12)       -152.419          estimate D2E/DX2                !
 ! D264  D(74,34,36,38)          2.319          estimate D2E/DX2                !
 ! D265  D(32,34,74,72)         -5.6145         estimate D2E/DX2                !
 ! D266  D(32,34,74,76)       -148.0011         estimate D2E/DX2                !
 ! D267  D(36,34,74,72)        138.9888         estimate D2E/DX2                !
 ! D268  D(36,34,74,76)         -3.3978         estimate D2E/DX2                !
 ! D269  D(9,35,37,39)          -1.476          estimate D2E/DX2                !
 ! D270  D(9,35,37,77)        -154.922          estimate D2E/DX2                !
 ! D271  D(33,35,37,39)        152.5592         estimate D2E/DX2                !
 ! D272  D(33,35,37,77)         -0.8868         estimate D2E/DX2                !
 ! D273  D(12,36,38,42)          1.4761         estimate D2E/DX2                !
 ! D274  D(12,36,38,78)        154.9215         estimate D2E/DX2                !
 ! D275  D(34,36,38,42)       -152.5586         estimate D2E/DX2                !
 ! D276  D(34,36,38,78)          0.8869         estimate D2E/DX2                !
 ! D277  D(35,37,39,43)          4.1518         estimate D2E/DX2                !
 ! D278  D(35,37,39,79)       -147.6011         estimate D2E/DX2                !
 ! D279  D(77,37,39,43)        157.9058         estimate D2E/DX2                !
 ! D280  D(77,37,39,79)          6.1529         estimate D2E/DX2                !
 ! D281  D(35,37,77,75)          3.0961         estimate D2E/DX2                !
 ! D282  D(35,37,77,81)        143.6399         estimate D2E/DX2                !
 ! D283  D(39,37,77,75)       -150.9452         estimate D2E/DX2                !
 ! D284  D(39,37,77,81)        -10.4014         estimate D2E/DX2                !
 ! D285  D(36,38,42,46)         -4.1523         estimate D2E/DX2                !
 ! D286  D(36,38,42,80)        147.6008         estimate D2E/DX2                !
 ! D287  D(78,38,42,46)       -157.9062         estimate D2E/DX2                !
 ! D288  D(78,38,42,80)         -6.153          estimate D2E/DX2                !
 ! D289  D(36,38,78,76)         -3.0963         estimate D2E/DX2                !
 ! D290  D(36,38,78,81)       -143.639          estimate D2E/DX2                !
 ! D291  D(42,38,78,76)        150.9447         estimate D2E/DX2                !
 ! D292  D(42,38,78,81)         10.402          estimate D2E/DX2                !
 ! D293  D(37,39,43,2)        -146.8483         estimate D2E/DX2                !
 ! D294  D(37,39,43,13)         -2.5494         estimate D2E/DX2                !
 ! D295  D(79,39,43,2)           6.3611         estimate D2E/DX2                !
 ! D296  D(79,39,43,13)        150.66           estimate D2E/DX2                !
 ! D297  D(37,39,79,40)        140.7171         estimate D2E/DX2                !
 ! D298  D(37,39,79,82)          0.8732         estimate D2E/DX2                !
 ! D299  D(43,39,79,40)        -12.2917         estimate D2E/DX2                !
 ! D300  D(43,39,79,82)       -152.1355         estimate D2E/DX2                !
 ! D301  D(44,40,41,45)          0.0023         estimate D2E/DX2                !
 ! D302  D(44,40,41,80)       -148.5343         estimate D2E/DX2                !
 ! D303  D(79,40,41,45)        148.5359         estimate D2E/DX2                !
 ! D304  D(79,40,41,80)         -0.0007         estimate D2E/DX2                !
 ! D305  D(41,40,44,2)         150.6082         estimate D2E/DX2                !
 ! D306  D(41,40,44,47)         -2.0913         estimate D2E/DX2                !
 ! D307  D(79,40,44,2)           6.3634         estimate D2E/DX2                !
 ! D308  D(79,40,44,47)       -146.3361         estimate D2E/DX2                !
 ! D309  D(41,40,79,39)       -141.9834         estimate D2E/DX2                !
 ! D310  D(41,40,79,82)          2.594          estimate D2E/DX2                !
 ! D311  D(44,40,79,39)          6.1146         estimate D2E/DX2                !
 ! D312  D(44,40,79,82)        150.692          estimate D2E/DX2                !
 ! D313  D(40,41,45,4)        -150.6091         estimate D2E/DX2                !
 ! D314  D(40,41,45,48)          2.0887         estimate D2E/DX2                !
 ! D315  D(80,41,45,4)          -6.3611         estimate D2E/DX2                !
 ! D316  D(80,41,45,48)        146.3368         estimate D2E/DX2                !
 ! D317  D(40,41,80,42)        141.985          estimate D2E/DX2                !
 ! D318  D(40,41,80,82)         -2.5929         estimate D2E/DX2                !
 ! D319  D(45,41,80,42)         -6.1162         estimate D2E/DX2                !
 ! D320  D(45,41,80,82)       -150.694          estimate D2E/DX2                !
 ! D321  D(38,42,46,4)         146.8492         estimate D2E/DX2                !
 ! D322  D(38,42,46,14)          2.5503         estimate D2E/DX2                !
 ! D323  D(80,42,46,4)          -6.3605         estimate D2E/DX2                !
 ! D324  D(80,42,46,14)       -150.6595         estimate D2E/DX2                !
 ! D325  D(38,42,80,41)       -140.7174         estimate D2E/DX2                !
 ! D326  D(38,42,80,82)         -0.8731         estimate D2E/DX2                !
 ! D327  D(46,42,80,41)         12.2917         estimate D2E/DX2                !
 ! D328  D(46,42,80,82)        152.136          estimate D2E/DX2                !
 ! D329  D(2,44,47,48)        -149.1738         estimate D2E/DX2                !
 ! D330  D(2,44,47,49)           4.8008         estimate D2E/DX2                !
 ! D331  D(40,44,47,48)          2.0689         estimate D2E/DX2                !
 ! D332  D(40,44,47,49)        156.0436         estimate D2E/DX2                !
 ! D333  D(4,45,48,47)         149.1705         estimate D2E/DX2                !
 ! D334  D(4,45,48,50)          -4.8012         estimate D2E/DX2                !
 ! D335  D(41,45,48,47)         -2.0703         estimate D2E/DX2                !
 ! D336  D(41,45,48,50)       -156.042          estimate D2E/DX2                !
[...]
 Alpha virt. eigenvalues --    1.16710   1.16980   1.17214   1.17618   1.17624
 Alpha virt. eigenvalues --    1.18049   1.18085   1.18761   1.18915   1.18978
 Alpha virt. eigenvalues --    1.19155   1.19561   1.19973   1.20323   1.20638
 Alpha virt. eigenvalues --    1.21040   1.21279   1.21409   1.21512   1.21889
 Alpha virt. eigenvalues --    1.22460   1.22739   1.22947   1.23497   1.23621
 Alpha virt. eigenvalues --    1.23952   1.24579   1.24740   1.24923   1.25078
 Alpha virt. eigenvalues --    1.25445   1.25963   1.26140   1.26207   1.26705
 Alpha virt. eigenvalues --    1.26842   1.27071   1.27274   1.27616   1.28129
 Alpha virt. eigenvalues --    1.28176   1.28491   1.28746   1.28837   1.28963
 Alpha virt. eigenvalues --    1.29873   1.30203   1.30615   1.30879   1.31161
 Alpha virt. eigenvalues --    1.31703   1.31961   1.32005   1.32126   1.32806
 Alpha virt. eigenvalues --    1.32868   1.32899   1.33195   1.34180   1.34565
 Alpha virt. eigenvalues --    1.34748   1.35128   1.35797   1.36324   1.36635
 Alpha virt. eigenvalues --    1.37201   1.37258   1.37926   1.38429   1.38751
 Alpha virt. eigenvalues --    1.39563   1.39591   1.39971   1.40249   1.40690
 Alpha virt. eigenvalues --    1.42054   1.42241   1.42540   1.42583   1.43515
 Alpha virt. eigenvalues --    1.44109   1.44610   1.44955   1.46650   1.46762
 Alpha virt. eigenvalues --    1.47127   1.47496   1.48050   1.48467   1.48959
 Alpha virt. eigenvalues --    1.49580   1.50141   1.50697   1.51057   1.52317
 Alpha virt. eigenvalues --    1.52566   1.53415   1.53593   1.54504   1.54512
 Alpha virt. eigenvalues --    1.54776   1.55291   1.55696   1.55761   1.57029
 Alpha virt. eigenvalues --    1.57497   1.57588   1.58156   1.58368   1.59246
 Alpha virt. eigenvalues --    1.59717   1.59824   1.60910   1.61075   1.61534
 Alpha virt. eigenvalues --    1.62047   1.62089   1.62670   1.63325   1.63431
 Alpha virt. eigenvalues --    1.64134   1.64240   1.64382   1.64775   1.64978
 Alpha virt. eigenvalues --    1.65166   1.65429   1.65822   1.66226   1.66737
 Alpha virt. eigenvalues --    1.67084   1.67329   1.67435   1.67488   1.68109
 Alpha virt. eigenvalues --    1.68220   1.68791   1.68850   1.69179   1.69291
 Alpha virt. eigenvalues --    1.69434   1.70062   1.70069   1.70295   1.70899
 Alpha virt. eigenvalues --    1.70964   1.71273   1.71399   1.71827   1.71844
 Alpha virt. eigenvalues --    1.71944   1.72218   1.72392   1.72704   1.72707
 Alpha virt. eigenvalues --    1.72807   1.72999   1.73413   1.73552   1.73764
 Alpha virt. eigenvalues --    1.73819   1.73995   1.74053   1.74240   1.74941
 Alpha virt. eigenvalues --    1.75004   1.75249   1.75663   1.75838   1.76136
 Alpha virt. eigenvalues --    1.76481   1.76538   1.77141   1.77301   1.77635
 Alpha virt. eigenvalues --    1.77748   1.78050   1.78317   1.78412   1.78811
 Alpha virt. eigenvalues --    1.79311   1.79592   1.80087   1.80199   1.80224
 Alpha virt. eigenvalues --    1.80756   1.80763   1.80940   1.81467   1.81760
 Alpha virt. eigenvalues --    1.82265   1.82949   1.83128   1.83754   1.84911
 Alpha virt. eigenvalues --    1.85127   1.85704   1.85733   1.86669   1.86695
 Alpha virt. eigenvalues --    1.87124   1.87685   1.88107   1.88273   1.89636
 Alpha virt. eigenvalues --    1.89920   1.90116   1.90361   1.90834   1.91186
 Alpha virt. eigenvalues --    1.92102   1.92169   1.92779   1.93213   1.93795
 Alpha virt. eigenvalues --    1.93817   1.94094   1.94473   1.94672   1.94817
 Alpha virt. eigenvalues --    1.95437   1.95488   1.96273   1.96642   1.96924
 Alpha virt. eigenvalues --    1.97296   1.97521   1.97576   1.97864   1.98370
 Alpha virt. eigenvalues --    1.98471   1.98594   1.98747   1.98798   1.98839
 Alpha virt. eigenvalues --    1.98990   1.99391   1.99971   2.00046   2.00157
 Alpha virt. eigenvalues --    2.00512   2.00994   2.01007   2.01449   2.01783
 Alpha virt. eigenvalues --    2.01994   2.02324   2.02576   2.02620   2.02874
 Alpha virt. eigenvalues --    2.02944   2.03211   2.03359   2.03546   2.03684
 Alpha virt. eigenvalues --    2.04046   2.04091   2.04134   2.04398   2.04551
 Alpha virt. eigenvalues --    2.06008   2.06083   2.06198   2.06660   2.06700
 Alpha virt. eigenvalues --    2.07869   2.08077   2.08344   2.08936   2.09314
 Alpha virt. eigenvalues --    2.09411   2.10076   2.10422   2.11384   2.11724
 Alpha virt. eigenvalues --    2.12412   2.12703   2.13090   2.13090   2.13705
 Alpha virt. eigenvalues --    2.14098   2.14773   2.14848   2.15892   2.16254
 Alpha virt. eigenvalues --    2.16566   2.16763   2.17500   2.17691   2.18569
 Alpha virt. eigenvalues --    2.18745   2.19464   2.19677   2.19713   2.19834
 Alpha virt. eigenvalues --    2.21316   2.21522   2.22123   2.22183   2.22337
 Alpha virt. eigenvalues --    2.22520   2.22737   2.23301   2.23783   2.24537
 Alpha virt. eigenvalues --    2.24840   2.25070   2.25161   2.25390   2.25714
 Alpha virt. eigenvalues --    2.26772   2.26827   2.27776   2.27966   2.27973
 Alpha virt. eigenvalues --    2.29164   2.29181   2.29486   2.29606   2.29808
 Alpha virt. eigenvalues --    2.30233   2.30284   2.30900   2.31049   2.31124
 Alpha virt. eigenvalues --    2.31986   2.32373   2.32521   2.33468   2.33793
 Alpha virt. eigenvalues --    2.33800   2.34821   2.35542   2.36028   2.37542
 Alpha virt. eigenvalues --    2.37841   2.38058   2.39045   2.39600   2.40208
 Alpha virt. eigenvalues --    2.40507   2.41083   2.41786   2.42097   2.42245
 Alpha virt. eigenvalues --    2.42881   2.43638   2.44136   2.44191   2.44612
 Alpha virt. eigenvalues --    2.45714   2.46153   2.46896   2.47046   2.47376
 Alpha virt. eigenvalues --    2.48760   2.49502   2.49516   2.49784   2.50559
 Alpha virt. eigenvalues --    2.51371   2.51677   2.51818   2.52952   2.53116
 Alpha virt. eigenvalues --    2.53476   2.53811   2.54328   2.54569   2.55091
 Alpha virt. eigenvalues --    2.55336   2.55970   2.56125   2.56308   2.56556
 Alpha virt. eigenvalues --    2.56811   2.56828   2.57561   2.57761   2.58036
 Alpha virt. eigenvalues --    2.58464   2.58795   2.59004   2.59088   2.59206
 Alpha virt. eigenvalues --    2.59966   2.60024   2.60389   2.60803   2.61226
 Alpha virt. eigenvalues --    2.61321   2.61344   2.61531   2.62063   2.62592
 Alpha virt. eigenvalues --    2.62865   2.63251   2.63566   2.63689   2.64325
 Alpha virt. eigenvalues --    2.64370   2.64992   2.65367   2.65535   2.65627
 Alpha virt. eigenvalues --    2.66134   2.66351   2.66839   2.67029   2.67546
 Alpha virt. eigenvalues --    2.67996   2.68116   2.68278   2.68735   2.68806
 Alpha virt. eigenvalues --    2.69987   2.70211   2.70299   2.70688   2.71189
 Alpha virt. eigenvalues --    2.71873   2.72377   2.73056   2.73139   2.73544
 Alpha virt. eigenvalues --    2.74105   2.74239   2.75273   2.76302   2.77443
 Alpha virt. eigenvalues --    2.77517   2.78090   2.78284   2.78656   2.78712
 Alpha virt. eigenvalues --    2.79146   2.79346   2.79576   2.79977   2.80760
 Alpha virt. eigenvalues --    2.81178   2.81407   2.82048   2.82399   2.82663
 Alpha virt. eigenvalues --    2.82876   2.83749   2.83794   2.84041   2.84692
 Alpha virt. eigenvalues --    2.84732   2.85144   2.85843   2.85913   2.87340
 Alpha virt. eigenvalues --    2.87492   2.88391   2.88579   2.89274   2.89577
 Alpha virt. eigenvalues --    2.89707   2.89973   2.90544   2.90552   2.91608
 Alpha virt. eigenvalues --    2.91942   2.92543   2.92717   2.93529   2.93922
 Alpha virt. eigenvalues --    2.94416   2.94522   2.94969   2.96188   2.96317
 Alpha virt. eigenvalues --    2.96573   2.97483   2.98130   2.98659   3.00212
 Alpha virt. eigenvalues --    3.00427   3.01828   3.01845   3.02595   3.03260
 Alpha virt. eigenvalues --    3.04780   3.04909   3.07187   3.07188   3.08195
 Alpha virt. eigenvalues --    3.09253   3.12348   3.15208   3.15576   3.16471
 Alpha virt. eigenvalues --    3.17020   3.18329   3.21450   3.21975   3.23601
 Alpha virt. eigenvalues --    3.26902   3.27613   3.28977   3.31250   3.31630
 Alpha virt. eigenvalues --    3.33422   3.34121   3.36131   3.36151   3.37233
 Alpha virt. eigenvalues --    3.38916   3.41252   3.41802   3.44363   3.47309
 Alpha virt. eigenvalues --    3.47937   3.50024   3.51943   3.53078   3.56412
 Alpha virt. eigenvalues --    3.60823   3.61601   4.00341   4.01198   4.01443
 Alpha virt. eigenvalues --    4.02030   4.03660   4.04372   4.04531   4.04871
 Alpha virt. eigenvalues --    4.05097   4.06376   4.06466   4.06863   4.07159
 Alpha virt. eigenvalues --    4.07862   4.07919   4.08972   4.10172   4.10499
 Alpha virt. eigenvalues --    4.11480   4.11853   4.12918   4.13611   4.13880
 Alpha virt. eigenvalues --    4.14969   4.15516   4.16727   4.18099   4.19580
 Alpha virt. eigenvalues --    4.20635   4.21173   4.21268   4.21312   4.21818
 Alpha virt. eigenvalues --    4.22140   4.23200   4.24733   4.26239   4.27302
 Alpha virt. eigenvalues --    4.28113   4.29134   4.29374   4.29377   4.30261
 Alpha virt. eigenvalues --    4.30730   4.32912   4.34803   4.34962   4.37490
 Alpha virt. eigenvalues --    4.37657   4.38509   4.40810   4.41341   4.44324
 Alpha virt. eigenvalues --    4.44973   4.46456   4.48444   4.48758   4.50722
 Alpha virt. eigenvalues --    4.51968   4.53071   4.54213   4.55666   4.56821
 Alpha virt. eigenvalues --    4.59085   4.61000   4.61986   4.63600   4.65996
 Alpha virt. eigenvalues --    4.66688   4.67307   4.70359   4.73142   4.76362
 Alpha virt. eigenvalues --    4.78567   4.83880   4.84874   4.85700   4.89570
 Alpha virt. eigenvalues --    4.91824   4.95160   5.00193   5.01363   5.06507
 Alpha virt. eigenvalues --    5.07509   5.16438   5.17718   5.21073   5.28804
          Condensed to atoms (all electrons):
 Mulliken charges:
               1
     1  C   -0.039546
     2  C   -0.022153
     3  C   -0.039546
     4  C   -0.022153
     5  C   -0.012249
     6  C   -0.024754
     7  C   -0.012249
     8  C   -0.024754
     9  C    0.052702
    10  C    0.030673
    11  C    0.030672
    12  C    0.052702
    13  C   -0.030220
    14  C   -0.030220
    15  C   -0.026827
    16  C   -0.026828
    17  C    0.084472
    18  C    0.084472
    19  C    0.126387
    20  C    0.126386
    21  C   -0.363991
    22  C   -0.363991
    23  C    0.073832
    24  C    0.073832
    25  C   -0.000419
    26  C   -0.000419
    27  C   -0.017005
    28  C   -0.017006
    29  C   -0.016812
    30  C   -0.016813
    31  C   -0.012630
    32  C   -0.012629
    33  C   -0.021914
    34  C   -0.021914
    35  C    0.044627
    36  C    0.044627
    37  C    0.044229
    38  C    0.044229
    39  C    0.054547
    40  C   -0.030914
    41  C   -0.030915
    42  C    0.054547
    43  C   -0.031130
    44  C    0.056102
    45  C    0.056102
    46  C   -0.031130
    47  C    0.037897
    48  C    0.037897
    49  C    0.008640
    50  C    0.008640
    51  C    0.088429
    52  C    0.088429
    53  C    0.073998
    54  C    0.073998
    55  C   -0.377704
    56  C   -0.377704
    57  C    0.078507
    58  C    0.078508
    59  C    0.008440
    60  C    0.008439
    61  C    0.013289
    62  C    0.013290
    63  C    0.034474
    64  C    0.034473
    65  C    0.036099
    66  C    0.036100
    67  C    0.038904
    68  C    0.038904
    69  C   -0.020165
    70  C   -0.020165
    71  C   -0.005575
    72  C   -0.005576
    73  C   -0.004150
    74  C   -0.004151
    75  C   -0.004684
    76  C   -0.004684
    77  C   -0.022150
    78  C   -0.022150
    79  C   -0.021154
    80  C   -0.021154
    81  C   -0.002096
    82  C   -0.021339
    83  C    0.147165
    84  C    0.147164
    85  Cl  -0.012621
    86  Cl  -0.002922
    87  Cl  -0.002923
    88  Cl  -0.012620
 Sum of Mulliken charges =  -0.00000
 Mulliken charges with hydrogens summed into heavy atoms:
               1
     1  C   -0.039546
     2  C   -0.022153
     3  C   -0.039546
     4  C   -0.022153
     5  C   -0.012249
     6  C   -0.024754
     7  C   -0.012249
     8  C   -0.024754
     9  C    0.052702
    10  C    0.030673
    11  C    0.030672
    12  C    0.052702
    13  C   -0.030220
    14  C   -0.030220
    15  C   -0.026827
    16  C   -0.026828
    17  C    0.084472
    18  C    0.084472
    19  C    0.126387
    20  C    0.126386
    21  C   -0.363991
    22  C   -0.363991
    23  C    0.073832
    24  C    0.073832
    25  C   -0.000419
    26  C   -0.000419
    27  C   -0.017005
    28  C   -0.017006
    29  C   -0.016812
    30  C   -0.016813
    31  C   -0.012630
    32  C   -0.012629
    33  C   -0.021914
    34  C   -0.021914
    35  C    0.044627
    36  C    0.044627
    37  C    0.044229
    38  C    0.044229
    39  C    0.054547
    40  C   -0.030914
    41  C   -0.030915
    42  C    0.054547
    43  C   -0.031130
    44  C    0.056102
    45  C    0.056102
    46  C   -0.031130
    47  C    0.037897
    48  C    0.037897
    49  C    0.008640
    50  C    0.008640
    51  C    0.088429
    52  C    0.088429
    53  C    0.073998
    54  C    0.073998
    55  C   -0.377704
    56  C   -0.377704
    57  C    0.078507
    58  C    0.078508
    59  C    0.008440
    60  C    0.008439
    61  C    0.013289
    62  C    0.013290
    63  C    0.034474
    64  C    0.034473
    65  C    0.036099
    66  C    0.036100
    67  C    0.038904
    68  C    0.038904
    69  C   -0.020165
    70  C   -0.020165
    71  C   -0.005575
    72  C   -0.005576
    73  C   -0.004150
    74  C   -0.004151
    75  C   -0.004684
    76  C   -0.004684
    77  C   -0.022150
    78  C   -0.022150
    79  C   -0.021154
    80  C   -0.021154
    81  C   -0.002096
    82  C   -0.021339
    83  C    0.147165
    84  C    0.147164
    85  Cl  -0.012621
    86  Cl  -0.002922
    87  Cl  -0.002923
    88  Cl  -0.012620
 Electronic spatial extent (au):  <R**2>=          42327.6737
 Charge=             -0.0000 electrons
 Dipole moment (field-independent basis, Debye):
    X=             -5.5442    Y=             -0.0000    Z=              0.2266  Tot=              5.5488
 Quadrupole moment (field-independent basis, Debye-Ang):
   XX=           -527.9106   YY=           -514.9623   ZZ=           -502.4145
   XY=             -0.0000   XZ=              2.7582   YZ=              0.0000
 Traceless Quadrupole moment (field-independent basis, Debye-Ang):
   XX=            -12.8148   YY=              0.1335   ZZ=             12.6813
   XY=             -0.0000   XZ=              2.7582   YZ=              0.0000
 Octapole moment (field-independent basis, Debye-Ang**2):
  XXX=            -32.6113  YYY=             -0.0001  ZZZ=             -8.7986  XYY=            -22.3991
  XXY=             -0.0001  XXZ=             -8.5182  XZZ=             35.4424  YZZ=              0.0000
  YYZ=             16.6819  XYZ=              0.0001
 Hexadecapole moment (field-independent basis, Debye-Ang**3):
 XXXX=         -26328.2154 YYYY=         -20000.8253 ZZZZ=         -15904.4592 XXXY=             -0.0003
 XXXZ=            -46.2354 YYYX=             -0.0003 YYYZ=              0.0001 ZZZX=             26.5706
 ZZZY=             -0.0001 XXYY=          -7822.2486 XXZZ=          -7014.0182 YYZZ=          -6013.0795
 XXYZ=              0.0003 YYXZ=             79.0577 ZZXY=             -0.0001
 N-N= 1.714180198894D+04 E-N=-4.606219012300D+04  KE= 5.006213300149D+03
 No NMR shielding tensors so no spin-rotation constants.
 Leave Link  601 at Mon Jun 27 20:52:57 2022, MaxMem=  1342177280 cpu:              22.8 elap:               1.2
 (Enter /home/mkliu/g16/l9999.exe)
 1\1\GINC-NODE03\FOpt\RB3LYP\6-31G(d,p)\C84Cl4\MKLIU\27-Jun-2022\0\\#P 
 opt b3lyp/6-31G(d, p) empiricaldispersion=GD3\\force\\0,1\C,8.27104475
 9,18.8225406373,10.5203278808\C,12.2849478989,20.1428008252,8.92340661
 87\C,8.2708781236,26.9287163061,10.522037991\C,12.2848353323,25.609294
 3213,8.9245599409\C,7.9590370746,18.8754518541,9.141016308\C,11.849328
 4532,19.5635297301,10.1709857685\C,7.95887272,26.876373886,9.142704132
 9\C,11.8491922768,26.1880215562,10.1723832777\C,8.960268516,19.0485936
 28,8.1269846586\C,12.0853274231,20.2255406287,11.3513102002\C,12.08521
 81942,25.5255223432,11.3524282913\C,8.9601112248,26.7037007463,8.12859
 95723\C,10.2887835331,18.9836660344,8.5802127254\C,10.2886235425,26.76
 84919033,8.5818549462\C,10.6052627453,18.8799133136,9.9738862711\C,10.
 6050985356,26.87166995,9.975572152\C,9.6082321287,18.9111258809,10.985
 2139065\C,9.6080692301,26.8399897811,10.9868866189\C,9.8988725327,19.6
 01609122,12.2406802018\C,9.8987379618,26.1489889505,12.2420615903\C,8.
 7701891206,20.0454953309,13.1543312071\C,8.7700726338,25.7046713596,13
 .1555255275\C,7.4523627759,20.1889969979,12.4035047681\C,7.4522521192,
 25.5614320077,12.4046383618\C,7.2027059392,19.5308358578,11.2386506601
 \C,7.2025682846,26.2200743515,11.2400619959\C,6.2936687962,20.09595873
 46,10.2862099226\C,6.29355528,25.6553151215,10.2873825407\C,6.68645860
 89,19.5627082182,9.0135038075\C,6.6863227479,26.1891188635,9.014901533
 2\C,6.3793393586,20.2324903272,7.8681351296\C,6.379231042,25.519807209
 9,7.8692505554\C,7.3213351934,20.2794837541,6.7577812316\C,7.321228745
 5,25.4733208657,6.7588769367\C,8.6530456117,19.8213541095,6.9149584441
 \C,8.6529201944,25.9314390814,6.9162474458\C,9.7183360972,20.566280132
 8,6.2377969124\C,9.7182412913,25.1868427148,6.2387716221\C,11.07120601
 43,20.5553518844,6.8017527379\C,12.763124441,22.1486685573,7.700616367
 7\C,12.7630951428,23.6039625513,7.7009230459\C,11.0711108822,25.197588
 7505,6.8027317829\C,11.3416133892,19.750923193,7.9293358402\C,12.91635
 63459,21.4193347262,8.8969870877\C,12.9162960039,24.3327975412,8.89760
 17102\C,11.3414848393,26.0015525487,7.9306544873\C,13.1303589427,22.15
 08796322,10.1475191275\C,13.1303281842,23.6007337129,10.147824757\C,12
 .7749589249,21.497889744,11.3561976933\C,12.7749009132,24.2531989555,1
 1.3567784728\C,12.3802473951,22.1922082275,12.5273993631\C,12.38021623
 09,23.5583697747,12.5276859083\C,11.125074117,20.1993168567,12.4173709
 236\C,11.1249642774,25.5512574288,12.4185004105\C,11.4266916912,21.362
 6523158,13.3689554859\C,11.4266291354,24.387531741,13.3695928398\C,8.9
 747545661,21.4724953742,13.6600606888\C,8.9746966535,24.2774662389,13.
 6606524553\C,7.7642064232,22.1862752604,13.4797982379\C,7.764178889,23
 .5637121579,13.4800878546\C,6.8724172266,21.4699109649,12.6075399929\C
 ,6.8723594482,24.2804079025,12.6081329117\C,6.0967159481,22.1439331187
 ,11.6215704307\C,6.0966877372,23.6067694879,11.6218782477\C,5.78059260
 37,21.4182867816,10.4068632708\C,5.7805338722,24.3329149789,10.4074776
 018\C,5.4519787234,22.1454642438,9.1810556205\C,5.4519493535,23.606241
 176,9.1813635573\C,5.652680745,21.4784484301,7.93873843\C,5.6526231809
 ,24.2737898053,7.9393281114\C,5.961882301,22.1866023274,6.7315244992\C
 ,5.9618518133,23.5661586288,6.7318143813\C,6.9997682238,21.4547752444,
 6.0133675944\C,6.9997095116,24.2983307899,6.0139671534\C,8.0046255306,
 22.1476686235,5.3537848025\C,8.004595211,23.6057569279,5.3540923628\C,
 9.3547849147,21.6890174753,5.4473465376\C,9.3547358763,24.0644241605,5
 .447847718\C,11.9093034261,21.6986172249,6.6500367504\C,11.9092553485,
 24.0544221233,6.6505334137\C,10.1943448353,22.8767505077,5.3891734326\
 C,11.4306923688,22.8766528288,5.9725716043\C,10.1784851902,22.15339631
 04,13.7099964749\C,10.1784550267,23.5965934226,13.710300999\Cl,8.59504
 86522,18.8591822223,14.5724701083\Cl,12.2464390843,20.7517133934,14.91
 32893381\Cl,12.2463566923,24.9978498027,14.9141834355\Cl,8.5948847159,
 26.890378289,14.5741643951\\Version=ES64L-G16RevA.03\State=1-A\HF=-504
 1.8288404\RMSD=8.583e-09\RMSF=7.459e-05\Dipole=-0.5492563,0.0004357,-2
 .1128405\Quadrupole=8.965519,0.0992492,-9.0647682,0.0009342,-3.5723963
 ,0.0018813\PG=C01 [X(C84Cl4)]\\@


 EXPERIENCE IS THE FRUIT OF THE TREE OF ERRORS.
 Job cpu time:       0 days 23 hours 48 minutes  6.1 seconds.
 Elapsed time:       0 days  0 hours 59 minutes 35.7 seconds.
 File lengths (MBytes):  RWF=   1098 Int=      0 D2E=      0 Chk=    138 Scr=      1
 Normal termination of Gaussian 16 at Mon Jun 27 20:52:59 2022.
