 Entering Gaussian System, Link 0=g16
 Input=4_addons_C84_14_Cl22_rank_1.gjf
 Output=4_addons_C84_14_Cl22_rank_1.log
 Initial command:
 /home/mkliu/g16/l1.exe "/data/scratch/Gau-115932.inp" -scrdir="/data/scratch/"
 Entering Link 1 = /home/mkliu/g16/l1.exe PID=    115933.
  
 Copyright (c) 1988,1990,1992,1993,1995,1998,2003,2009,2016,
            Gaussian, Inc.  All Rights Reserved.
  
 This is part of the Gaussian(R) 16 program.  It is based on
 the Gaussian(R) 09 system (copyright 2009, Gaussian, Inc.),
 the Gaussian(R) 03 system (copyright 2003, Gaussian, Inc.),
 the Gaussian(R) 98 system (copyright 1998, Gaussian, Inc.),
 the Gaussian(R) 94 system (copyright 1995, Gaussian, Inc.),
 the Gaussian 92(TM) system (copyright 1992, Gaussian, Inc.),
 the Gaussian 90(TM) system (copyright 1990, Gaussian, Inc.),
 the Gaussian 88(TM) system (copyright 1988, Gaussian, Inc.),
 the Gaussian 86(TM) system (copyright 1986, Carnegie Mellon
 University), and the Gaussian 82(TM) system (copyright 1983,
 Carnegie Mellon University). Gaussian is a federally registered
 trademark of Gaussian, Inc.
  
 This software contains proprietary and confidential information,
 including trade secrets, belonging to Gaussian, Inc.
  
 This software is provided under written license and may be
 used, copied, transmitted, or stored only in accord with that
 written license.
  
 The following legend is applicable only to US Government
 contracts under FAR:
  
                    RESTRICTED RIGHTS LEGEND
  
 Use, reproduction and disclosure by the US Government is
 subject to restrictions as set forth in subparagraphs (a)
 and (c) of the Commercial Computer Software - Restricted
 Rights clause in FAR 52.227-19.
  
 Gaussian, Inc.
 340 Quinnipiac St., Bldg. 40, Wallingford CT 06492
  
  
 ---------------------------------------------------------------
 Warning -- This program may not be used in any manner that
 competes with the business of Gaussian, Inc. or will provide
 assistance to any competitor of Gaussian, Inc.  The licensee
 of this program is prohibited from giving any competitor of
 Gaussian, Inc. access to this program.  By using this program,
 the user acknowledges that Gaussian, Inc. is engaged in the
 business of creating and licensing software in the field of
 computational chemistry and represents and warrants to the
 licensee that it is not a competitor of Gaussian, Inc. and that
 it will not use this program in any manner prohibited above.
 ---------------------------------------------------------------
  

 Cite this work as:
 Gaussian 16, Revision A.03,
 M. J. Frisch, G. W. Trucks, H. B. Schlegel, G. E. Scuseria, 
 M. A. Robb, J. R. Cheeseman, G. Scalmani, V. Barone, 
 G. A. Petersson, H. Nakatsuji, X. Li, M. Caricato, A. V. Marenich, 
 J. Bloino, B. G. Janesko, R. Gomperts, B. Mennucci, H. P. Hratchian, 
 J. V. Ortiz, A. F. Izmaylov, J. L. Sonnenberg, D. Williams-Young, 
 F. Ding, F. Lipparini, F. Egidi, J. Goings, B. Peng, A. Petrone, 
 T. Henderson, D. Ranasinghe, V. G. Zakrzewski, J. Gao, N. Rega, 
 G. Zheng, W. Liang, M. Hada, M. Ehara, K. Toyota, R. Fukuda, 
 J. Hasegawa, M. Ishida, T. Nakajima, Y. Honda, O. Kitao, H. Nakai, 
 T. Vreven, K. Throssell, J. A. Montgomery, Jr., J. E. Peralta, 
 F. Ogliaro, M. J. Bearpark, J. J. Heyd, E. N. Brothers, K. N. Kudin, 
 V. N. Staroverov, T. A. Keith, R. Kobayashi, J. Normand, 
 K. Raghavachari, A. P. Rendell, J. C. Burant, S. S. Iyengar, 
 J. Tomasi, M. Cossi, J. M. Millam, M. Klene, C. Adamo, R. Cammi, 
 J. W. Ochterski, R. L. Martin, K. Morokuma, O. Farkas, 
 J. B. Foresman, and D. J. Fox, Gaussian, Inc., Wallingford CT, 2016.
 
 ******************************************
 Gaussian 16:  ES64L-G16RevA.03 25-Dec-2016
                29-Jun-2022 
 ******************************************
 %mem=10GB
 %chk=4_addons_C84_14_Cl22_rank_1.chk
 %nprocshared=24
 Will use up to   24 processors via shared memory.
 ------------------------------------------------
 #P opt b3lyp/6-31G(d, p) empiricaldispersion=GD3
 ------------------------------------------------
 1/18=20,19=15,26=3,38=1/1,3;
 2/9=110,12=2,17=6,18=5,40=1/2;
 3/5=1,6=6,7=101,11=2,25=1,30=1,71=1,74=-5,124=31/1,2,3;
 4//1;
 5/5=2,38=5/2;
 6/7=2,8=2,9=2,10=2,28=1/1;
 7//1,2,3,16;
 1/18=20,19=15,26=3/3(2);
 2/9=110/2;
 99//99;
 2/9=110/2;
 3/5=1,6=6,7=101,11=2,25=1,30=1,71=1,74=-5,124=31/1,2,3;
 4/5=5,16=3,69=1/1;
 5/5=2,38=5/2;
 7//1,2,3,16;
 1/18=20,19=15,26=3/3(-5);
 2/9=110/2;
 6/7=2,8=2,9=2,10=2,19=2,28=1/1;
 99/9=1/99;
 Leave Link    1 at Wed Jun 29 07:48:21 2022, MaxMem=  1342177280 cpu:               0.7 elap:               0.1
 (Enter /home/mkliu/g16/l101.exe)
 -----
 force
 -----
 Symbolic Z-matrix:
 Charge =  0 Multiplicity = 1
 C                     8.29325   18.89312   10.53345 
 C                     12.29952   20.17033   8.96296 
 C                     8.29076   26.85794   10.53311 
 C                     12.29781   25.58314   8.96277 
 C                     7.9804    18.95682   9.1479 
 C                     11.87181   19.58541   10.19988 
 C                     7.97795   26.79394   9.14757 
 C                     11.86975   26.1679   10.19963 
 C                     8.97925   19.11376   8.1574 
 C                     12.13673   20.23183   11.37689 
 C                     12.13508   25.52173   11.3767 
 C                     8.9769    26.63755   8.15708 
 C                     10.30294   19.03653   8.62534 
 C                     10.30054   26.71565   8.62504 
 C                     10.61582   18.91788   10.00085 
 C                     10.61334   26.83462   10.00054 
 C                     9.62408   18.93761   11.00662 
 C                     9.62162   26.81433   11.0063 
 C                     9.90064   19.6172   12.25233 
 C                     9.8986    26.13501   12.25206 
 C                     8.82723   20.2297   12.93434 
 C                     8.82557   25.5219   12.93412 
 C                     7.49949   20.20319   12.38367 
 C                     7.49781   25.54755   12.38345 
 C                     7.23028   19.51811   11.24449 
 C                     7.22817   26.23235   11.2442 
 C                     6.12053   19.94966   10.32792 
 C                     6.11868   25.80005   10.32766 
 C                     6.69778   19.55478   9.0055 
 C                     6.6957    26.19516   9.0052 
 C                     6.39717   20.22609   7.87459 
 C                     6.3955    25.52361   7.87431 
 C                     7.36181   20.32942   6.82964 
 C                     7.3602    25.42082   6.82936 
 C                     8.68717   19.86922   6.96804 
 C                     8.68529   25.88184   6.96776 
 C                     9.74488   20.59095   6.29073 
 C                     9.74346   25.16073   6.29053 
 C                     11.08124   20.57648   6.85027 
 C                     12.77142   22.15446   7.74884 
 C                     12.77094   23.59921   7.74886 
 C                     11.07981   25.17607   6.85009 
 C                     11.34906   19.7897   7.9786 
 C                     12.93913   21.43182   8.93957 
 C                     12.93822   24.32206   8.93949 
 C                     11.34712   25.9631   7.97836 
 C                     13.17494   22.15169   10.17678 
 C                     13.17449   23.60243   10.17675 
 C                     12.83992   21.48886   11.3696 
 C                     12.83905   24.26513   11.36951 
 C                     12.38085   22.19136   12.5226 
 C                     12.38041   23.56243   12.52256 
 C                     11.15833   20.23771   12.43426 
 C                     11.15668   25.51531   12.43406 
 C                     11.30163   21.45989   13.13978 
 C                     11.30074   24.29328   13.1397 
 C                     8.97322   21.45756   13.63217 
 C                     8.97233   24.29421   13.63208 
 C                     7.73527   22.1834   13.4863 
 C                     7.73482   23.56758   13.48629 
 C                     6.86905   21.48455   12.62363 
 C                     6.86815   24.26583   12.62356 
 C                     6.1841    22.15579   11.58099 
 C                     6.18358   23.59408   11.58102 
 C                     5.89682   21.46041   10.36708 
 C                     5.89592   24.28917   10.367 
 C                     5.61223   22.16047   9.20428 
 C                     5.6118    23.58886   9.20423 
 C                     5.45413   21.39891   7.88739 
 C                     5.45321   24.3502   7.88718 
 C                     5.97554   22.19622   6.72937 
 C                     5.97501   23.55318   6.72906 
 C                     7.03531   21.49128   6.07886 
 C                     7.03442   24.25872   6.07863 
 C                     8.04297   22.15924   5.40628 
 C                     8.04253   23.59129   5.40619 
 C                     9.38778   21.69789   5.50074 
 C                     9.38705   24.0535   5.50062 
 C                     11.92144   21.70762   6.7059 
 C                     11.92071   24.04543   6.70584 
 C                     10.21768   22.87595   5.43732 
 C                     11.45157   22.87636   6.02611 
 C                     10.20163   22.14749   13.69712 
 C                     10.20117   23.60504   13.69709 
 Cl                    4.56193   19.12327   10.71334 
 Cl                    3.7214    20.93287   7.70288 
 Cl                    3.72018   24.81513   7.70272 
 Cl                    4.55958   26.62554   10.71298 
 
 ITRead=  0  0  0  0  0  0  0  0  0  0  0  0  0  0  0  0  0  0  0  0
 ITRead=  0  0  0  0  0  0  0  0  0  0  0  0  0  0  0  0  0  0  0  0
 ITRead=  0  0  0  0  0  0  0  0  0  0  0  0  0  0  0  0  0  0  0  0
 ITRead=  0  0  0  0  0  0  0  0  0  0  0  0  0  0  0  0  0  0  0  0
 ITRead=  0  0  0  0  0  0  0  0
 MicOpt= -1 -1 -1 -1 -1 -1 -1 -1 -1 -1 -1 -1 -1 -1 -1 -1 -1 -1 -1 -1
 MicOpt= -1 -1 -1 -1 -1 -1 -1 -1 -1 -1 -1 -1 -1 -1 -1 -1 -1 -1 -1 -1
 MicOpt= -1 -1 -1 -1 -1 -1 -1 -1 -1 -1 -1 -1 -1 -1 -1 -1 -1 -1 -1 -1
 MicOpt= -1 -1 -1 -1 -1 -1 -1 -1 -1 -1 -1 -1 -1 -1 -1 -1 -1 -1 -1 -1
 MicOpt= -1 -1 -1 -1 -1 -1 -1 -1
 NAtoms=     88 NQM=       88 NQMF=       0 NMMI=      0 NMMIF=      0
                NMic=       0 NMicF=      0.
                    Isotopes and Nuclear Properties:
 (Nuclear quadrupole moments (NQMom) in fm**2, nuclear magnetic moments (NMagM)
  in nuclear magnetons)

  Atom         1           2           3           4           5           6           7           8           9          10
 IAtWgt=          12          12          12          12          12          12          12          12          12          12
 AtmWgt=  12.0000000  12.0000000  12.0000000  12.0000000  12.0000000  12.0000000  12.0000000  12.0000000  12.0000000  12.0000000
 NucSpn=           0           0           0           0           0           0           0           0           0           0
 AtZEff=  -0.0000000  -0.0000000  -0.0000000  -0.0000000  -0.0000000  -0.0000000  -0.0000000  -0.0000000  -0.0000000  -0.0000000
 NQMom=    0.0000000   0.0000000   0.0000000   0.0000000   0.0000000   0.0000000   0.0000000   0.0000000   0.0000000   0.0000000
 NMagM=    0.0000000   0.0000000   0.0000000   0.0000000   0.0000000   0.0000000   0.0000000   0.0000000   0.0000000   0.0000000
 AtZNuc=   6.0000000   6.0000000   6.0000000   6.0000000   6.0000000   6.0000000   6.0000000   6.0000000   6.0000000   6.0000000

  Atom        11          12          13          14          15          16          17          18          19          20
 IAtWgt=          12          12          12          12          12          12          12          12          12          12
 AtmWgt=  12.0000000  12.0000000  12.0000000  12.0000000  12.0000000  12.0000000  12.0000000  12.0000000  12.0000000  12.0000000
 NucSpn=           0           0           0           0           0           0           0           0           0           0
 AtZEff=  -0.0000000  -0.0000000  -0.0000000  -0.0000000  -0.0000000  -0.0000000  -0.0000000  -0.0000000  -0.0000000  -0.0000000
 NQMom=    0.0000000   0.0000000   0.0000000   0.0000000   0.0000000   0.0000000   0.0000000   0.0000000   0.0000000   0.0000000
 NMagM=    0.0000000   0.0000000   0.0000000   0.0000000   0.0000000   0.0000000   0.0000000   0.0000000   0.0000000   0.0000000
 AtZNuc=   6.0000000   6.0000000   6.0000000   6.0000000   6.0000000   6.0000000   6.0000000   6.0000000   6.0000000   6.0000000

  Atom        21          22          23          24          25          26          27          28          29          30
 IAtWgt=          12          12          12          12          12          12          12          12          12          12
 AtmWgt=  12.0000000  12.0000000  12.0000000  12.0000000  12.0000000  12.0000000  12.0000000  12.0000000  12.0000000  12.0000000
 NucSpn=           0           0           0           0           0           0           0           0           0           0
 AtZEff=  -0.0000000  -0.0000000  -0.0000000  -0.0000000  -0.0000000  -0.0000000  -0.0000000  -0.0000000  -0.0000000  -0.0000000
 NQMom=    0.0000000   0.0000000   0.0000000   0.0000000   0.0000000   0.0000000   0.0000000   0.0000000   0.0000000   0.0000000
 NMagM=    0.0000000   0.0000000   0.0000000   0.0000000   0.0000000   0.0000000   0.0000000   0.0000000   0.0000000   0.0000000
 AtZNuc=   6.0000000   6.0000000   6.0000000   6.0000000   6.0000000   6.0000000   6.0000000   6.0000000   6.0000000   6.0000000

  Atom        31          32          33          34          35          36          37          38          39          40
 IAtWgt=          12          12          12          12          12          12          12          12          12          12
 AtmWgt=  12.0000000  12.0000000  12.0000000  12.0000000  12.0000000  12.0000000  12.0000000  12.0000000  12.0000000  12.0000000
 NucSpn=           0           0           0           0           0           0           0           0           0           0
 AtZEff=  -0.0000000  -0.0000000  -0.0000000  -0.0000000  -0.0000000  -0.0000000  -0.0000000  -0.0000000  -0.0000000  -0.0000000
 NQMom=    0.0000000   0.0000000   0.0000000   0.0000000   0.0000000   0.0000000   0.0000000   0.0000000   0.0000000   0.0000000
 NMagM=    0.0000000   0.0000000   0.0000000   0.0000000   0.0000000   0.0000000   0.0000000   0.0000000   0.0000000   0.0000000
 AtZNuc=   6.0000000   6.0000000   6.0000000   6.0000000   6.0000000   6.0000000   6.0000000   6.0000000   6.0000000   6.0000000

  Atom        41          42          43          44          45          46          47          48          49          50
 IAtWgt=          12          12          12          12          12          12          12          12          12          12
 AtmWgt=  12.0000000  12.0000000  12.0000000  12.0000000  12.0000000  12.0000000  12.0000000  12.0000000  12.0000000  12.0000000
 NucSpn=           0           0           0           0           0           0           0           0           0           0
 AtZEff=  -0.0000000  -0.0000000  -0.0000000  -0.0000000  -0.0000000  -0.0000000  -0.0000000  -0.0000000  -0.0000000  -0.0000000
 NQMom=    0.0000000   0.0000000   0.0000000   0.0000000   0.0000000   0.0000000   0.0000000   0.0000000   0.0000000   0.0000000
 NMagM=    0.0000000   0.0000000   0.0000000   0.0000000   0.0000000   0.0000000   0.0000000   0.0000000   0.0000000   0.0000000
 AtZNuc=   6.0000000   6.0000000   6.0000000   6.0000000   6.0000000   6.0000000   6.0000000   6.0000000   6.0000000   6.0000000

  Atom        51          52          53          54          55          56          57          58          59          60
 IAtWgt=          12          12          12          12          12          12          12          12          12          12
 AtmWgt=  12.0000000  12.0000000  12.0000000  12.0000000  12.0000000  12.0000000  12.0000000  12.0000000  12.0000000  12.0000000
 NucSpn=           0           0           0           0           0           0           0           0           0           0
 AtZEff=  -0.0000000  -0.0000000  -0.0000000  -0.0000000  -0.0000000  -0.0000000  -0.0000000  -0.0000000  -0.0000000  -0.0000000
 NQMom=    0.0000000   0.0000000   0.0000000   0.0000000   0.0000000   0.0000000   0.0000000   0.0000000   0.0000000   0.0000000
 NMagM=    0.0000000   0.0000000   0.0000000   0.0000000   0.0000000   0.0000000   0.0000000   0.0000000   0.0000000   0.0000000
 AtZNuc=   6.0000000   6.0000000   6.0000000   6.0000000   6.0000000   6.0000000   6.0000000   6.0000000   6.0000000   6.0000000

  Atom        61          62          63          64          65          66          67          68          69          70
 IAtWgt=          12          12          12          12          12          12          12          12          12          12
 AtmWgt=  12.0000000  12.0000000  12.0000000  12.0000000  12.0000000  12.0000000  12.0000000  12.0000000  12.0000000  12.0000000
 NucSpn=           0           0           0           0           0           0           0           0           0           0
 AtZEff=  -0.0000000  -0.0000000  -0.0000000  -0.0000000  -0.0000000  -0.0000000  -0.0000000  -0.0000000  -0.0000000  -0.0000000
 NQMom=    0.0000000   0.0000000   0.0000000   0.0000000   0.0000000   0.0000000   0.0000000   0.0000000   0.0000000   0.0000000
 NMagM=    0.0000000   0.0000000   0.0000000   0.0000000   0.0000000   0.0000000   0.0000000   0.0000000   0.0000000   0.0000000
 AtZNuc=   6.0000000   6.0000000   6.0000000   6.0000000   6.0000000   6.0000000   6.0000000   6.0000000   6.0000000   6.0000000

  Atom        71          72          73          74          75          76          77          78          79          80
 IAtWgt=          12          12          12          12          12          12          12          12          12          12
 AtmWgt=  12.0000000  12.0000000  12.0000000  12.0000000  12.0000000  12.0000000  12.0000000  12.0000000  12.0000000  12.0000000
 NucSpn=           0           0           0           0           0           0           0           0           0           0
 AtZEff=  -0.0000000  -0.0000000  -0.0000000  -0.0000000  -0.0000000  -0.0000000  -0.0000000  -0.0000000  -0.0000000  -0.0000000
 NQMom=    0.0000000   0.0000000   0.0000000   0.0000000   0.0000000   0.0000000   0.0000000   0.0000000   0.0000000   0.0000000
 NMagM=    0.0000000   0.0000000   0.0000000   0.0000000   0.0000000   0.0000000   0.0000000   0.0000000   0.0000000   0.0000000
 AtZNuc=   6.0000000   6.0000000   6.0000000   6.0000000   6.0000000   6.0000000   6.0000000   6.0000000   6.0000000   6.0000000

  Atom        81          82          83          84          85          86          87          88
 IAtWgt=          12          12          12          12          35          35          35          35
 AtmWgt=  12.0000000  12.0000000  12.0000000  12.0000000  34.9688527  34.9688527  34.9688527  34.9688527
 NucSpn=           0           0           0           0           3           3           3           3
 AtZEff=  -0.0000000  -0.0000000  -0.0000000  -0.0000000  -0.0000000  -0.0000000  -0.0000000  -0.0000000
 NQMom=    0.0000000   0.0000000   0.0000000   0.0000000  -8.1650000  -8.1650000  -8.1650000  -8.1650000
 NMagM=    0.0000000   0.0000000   0.0000000   0.0000000   0.8218740   0.8218740   0.8218740   0.8218740
 AtZNuc=   6.0000000   6.0000000   6.0000000   6.0000000  17.0000000  17.0000000  17.0000000  17.0000000
 Leave Link  101 at Wed Jun 29 07:48:22 2022, MaxMem=  1342177280 cpu:               6.5 elap:               0.3
 (Enter /home/mkliu/g16/l103.exe)

 GradGradGradGradGradGradGradGradGradGradGradGradGradGradGradGradGradGrad
 Berny optimization.
 Initialization pass.
                           ----------------------------
                           !    Initial Parameters    !
                           ! (Angstroms and Degrees)  !
 --------------------------                            --------------------------
 ! Name  Definition              Value          Derivative Info.                !
 --------------------------------------------------------------------------------
 ! R1    R(1,5)                  1.4219         estimate D2E/DX2                !
 ! R2    R(1,17)                 1.4131         estimate D2E/DX2                !
 ! R3    R(1,25)                 1.4234         estimate D2E/DX2                !
 ! R4    R(2,6)                  1.4335         estimate D2E/DX2                !
 ! R5    R(2,43)                 1.4203         estimate D2E/DX2                !
 ! R6    R(2,44)                 1.4146         estimate D2E/DX2                !
 ! R7    R(3,7)                  1.4219         estimate D2E/DX2                !
 ! R8    R(3,18)                 1.4131         estimate D2E/DX2                !
 ! R9    R(3,26)                 1.4234         estimate D2E/DX2                !
 ! R10   R(4,8)                  1.4335         estimate D2E/DX2                !
 ! R11   R(4,45)                 1.4146         estimate D2E/DX2                !
 ! R12   R(4,46)                 1.4203         estimate D2E/DX2                !
 ! R13   R(5,9)                  1.4154         estimate D2E/DX2                !
 ! R14   R(5,29)                 1.4223         estimate D2E/DX2                !
 ! R15   R(6,10)                 1.3687         estimate D2E/DX2                !
 ! R16   R(6,15)                 1.4362         estimate D2E/DX2                !
 ! R17   R(7,12)                 1.4154         estimate D2E/DX2                !
 ! R18   R(7,30)                 1.4223         estimate D2E/DX2                !
 ! R19   R(8,11)                 1.3687         estimate D2E/DX2                !
 ! R20   R(8,16)                 1.4362         estimate D2E/DX2                !
 ! R21   R(9,13)                 1.4061         estimate D2E/DX2                !
 ! R22   R(9,35)                 1.439          estimate D2E/DX2                !
 ! R23   R(10,49)                1.4404         estimate D2E/DX2                !
 ! R24   R(10,53)                1.4406         estimate D2E/DX2                !
 ! R25   R(11,50)                1.4404         estimate D2E/DX2                !
 ! R26   R(11,54)                1.4406         estimate D2E/DX2                !
 ! R27   R(12,14)                1.4061         estimate D2E/DX2                !
 ! R28   R(12,36)                1.439          estimate D2E/DX2                !
 ! R29   R(13,15)                1.4156         estimate D2E/DX2                !
 ! R30   R(13,43)                1.4422         estimate D2E/DX2                !
 ! R31   R(14,16)                1.4156         estimate D2E/DX2                !
 ! R32   R(14,46)                1.4422         estimate D2E/DX2                !
 ! R33   R(15,17)                1.4126         estimate D2E/DX2                !
 ! R34   R(16,18)                1.4126         estimate D2E/DX2                !
 ! R35   R(17,19)                1.4457         estimate D2E/DX2                !
 ! R36   R(18,20)                1.4457         estimate D2E/DX2                !
 ! R37   R(19,21)                1.4116         estimate D2E/DX2                !
 ! R38   R(19,53)                1.4142         estimate D2E/DX2                !
 ! R39   R(20,22)                1.4116         estimate D2E/DX2                !
 ! R40   R(20,54)                1.4142         estimate D2E/DX2                !
 ! R41   R(21,23)                1.4376         estimate D2E/DX2                !
 ! R42   R(21,57)                1.4198         estimate D2E/DX2                !
 ! R43   R(22,24)                1.4376         estimate D2E/DX2                !
 ! R44   R(22,58)                1.4198         estimate D2E/DX2                !
 ! R45   R(23,25)                1.3563         estimate D2E/DX2                !
 ! R46   R(23,61)                1.4481         estimate D2E/DX2                !
 ! R47   R(24,26)                1.3563         estimate D2E/DX2                !
 ! R48   R(24,62)                1.4481         estimate D2E/DX2                !
 ! R49   R(25,27)                1.5026         estimate D2E/DX2                !
 ! R50   R(26,28)                1.5026         estimate D2E/DX2                !
 ! R51   R(27,29)                1.496          estimate D2E/DX2                !
 ! R52   R(27,65)                1.5277         estimate D2E/DX2                !
 ! R53   R(27,85)                1.8057         estimate D2E/DX2                !
 ! R54   R(28,30)                1.496          estimate D2E/DX2                !
 ! R55   R(28,66)                1.5277         estimate D2E/DX2                !
 ! R56   R(28,88)                1.8057         estimate D2E/DX2                !
 ! R57   R(29,31)                1.3491         estimate D2E/DX2                !
 ! R58   R(30,32)                1.3491         estimate D2E/DX2                !
 ! R59   R(31,33)                1.4259         estimate D2E/DX2                !
 ! R60   R(31,69)                1.505          estimate D2E/DX2                !
 ! R61   R(32,34)                1.4259         estimate D2E/DX2                !
 ! R62   R(32,70)                1.505          estimate D2E/DX2                !
 ! R63   R(33,35)                1.4098         estimate D2E/DX2                !
 ! R64   R(33,73)                1.4213         estimate D2E/DX2                !
 ! R65   R(34,36)                1.4098         estimate D2E/DX2                !
 ! R66   R(34,74)                1.4213         estimate D2E/DX2                !
 ! R67   R(35,37)                1.4486         estimate D2E/DX2                !
 ! R68   R(36,38)                1.4486         estimate D2E/DX2                !
 ! R69   R(37,39)                1.4488         estimate D2E/DX2                !
 ! R70   R(37,77)                1.406          estimate D2E/DX2                !
 ! R71   R(38,42)                1.4488         estimate D2E/DX2                !
 ! R72   R(38,78)                1.406          estimate D2E/DX2                !
 ! R73   R(39,43)                1.4014         estimate D2E/DX2                !
 ! R74   R(39,79)                1.4164         estimate D2E/DX2                !
 ! R75   R(40,41)                1.4448         estimate D2E/DX2                !
 ! R76   R(40,44)                1.4029         estimate D2E/DX2                !
 ! R77   R(40,79)                1.4177         estimate D2E/DX2                !
 ! R78   R(41,45)                1.4029         estimate D2E/DX2                !
 ! R79   R(41,80)                1.4177         estimate D2E/DX2                !
 ! R80   R(42,46)                1.4014         estimate D2E/DX2                !
 ! R81   R(42,80)                1.4164         estimate D2E/DX2                !
 ! R82   R(44,47)                1.4507         estimate D2E/DX2                !
 ! R83   R(45,48)                1.4507         estimate D2E/DX2                !
 ! R84   R(47,48)                1.4507         estimate D2E/DX2                !
 ! R85   R(47,49)                1.4051         estimate D2E/DX2                !
 ! R86   R(48,50)                1.4051         estimate D2E/DX2                !
 ! R87   R(49,51)                1.4261         estimate D2E/DX2                !
 ! R88   R(50,52)                1.4261         estimate D2E/DX2                !
 ! R89   R(51,52)                1.3711         estimate D2E/DX2                !
 ! R90   R(51,55)                1.4425         estimate D2E/DX2                !
 ! R91   R(52,56)                1.4425         estimate D2E/DX2                !
 ! R92   R(53,55)                1.4185         estimate D2E/DX2                !
 ! R93   R(54,56)                1.4185         estimate D2E/DX2                !
 ! R94   R(55,83)                1.4119         estimate D2E/DX2                !
 ! R95   R(56,84)                1.4119         estimate D2E/DX2                !
 ! R96   R(57,59)                1.4424         estimate D2E/DX2                !
 ! R97   R(57,83)                1.4104         estimate D2E/DX2                !
 ! R98   R(58,60)                1.4424         estimate D2E/DX2                !
 ! R99   R(58,84)                1.4104         estimate D2E/DX2                !
 ! R100  R(59,60)                1.3842         estimate D2E/DX2                !
 ! R101  R(59,61)                1.4082         estimate D2E/DX2                !
 ! R102  R(60,62)                1.4082         estimate D2E/DX2                !
 ! R103  R(61,63)                1.4166         estimate D2E/DX2                !
 ! R104  R(62,64)                1.4166         estimate D2E/DX2                !
 ! R105  R(63,64)                1.4383         estimate D2E/DX2                !
 ! R106  R(63,65)                1.4282         estimate D2E/DX2                !
 ! R107  R(64,66)                1.4282         estimate D2E/DX2                !
 ! R108  R(65,67)                1.3868         estimate D2E/DX2                !
 ! R109  R(66,68)                1.3868         estimate D2E/DX2                !
 ! R110  R(67,68)                1.4284         estimate D2E/DX2                !
 ! R111  R(67,69)                1.5294         estimate D2E/DX2                !
 ! R112  R(68,70)                1.5295         estimate D2E/DX2                !
 ! R113  R(69,71)                1.4995         estimate D2E/DX2                !
 ! R114  R(69,86)                1.8038         estimate D2E/DX2                !
 ! R115  R(70,72)                1.4996         estimate D2E/DX2                !
 ! R116  R(70,87)                1.8038         estimate D2E/DX2                !
 ! R117  R(71,72)                1.357          estimate D2E/DX2                !
 ! R118  R(71,73)                1.4294         estimate D2E/DX2                !
 ! R119  R(72,74)                1.4294         estimate D2E/DX2                !
 ! R120  R(73,75)                1.3835         estimate D2E/DX2                !
 ! R121  R(74,76)                1.3834         estimate D2E/DX2                !
 ! R122  R(75,76)                1.4321         estimate D2E/DX2                !
 ! R123  R(75,77)                1.4249         estimate D2E/DX2                !
 ! R124  R(76,78)                1.4249         estimate D2E/DX2                !
 ! R125  R(77,81)                1.4424         estimate D2E/DX2                !
 ! R126  R(78,81)                1.4424         estimate D2E/DX2                !
 ! R127  R(79,82)                1.4314         estimate D2E/DX2                !
 ! R128  R(80,82)                1.4314         estimate D2E/DX2                !
 ! R129  R(81,82)                1.3672         estimate D2E/DX2                !
 ! R130  R(83,84)                1.4576         estimate D2E/DX2                !
 ! A1    A(5,1,17)             122.1466         estimate D2E/DX2                !
 ! A2    A(5,1,25)             107.6251         estimate D2E/DX2                !
 ! A3    A(17,1,25)            121.4795         estimate D2E/DX2                !
 ! A4    A(6,2,43)             106.7981         estimate D2E/DX2                !
 ! A5    A(6,2,44)             120.8672         estimate D2E/DX2                !
 ! A6    A(43,2,44)            122.0132         estimate D2E/DX2                !
 ! A7    A(7,3,18)             122.1472         estimate D2E/DX2                !
 ! A8    A(7,3,26)             107.6252         estimate D2E/DX2                !
 ! A9    A(18,3,26)            121.4799         estimate D2E/DX2                !
 ! A10   A(8,4,45)             120.8665         estimate D2E/DX2                !
 ! A11   A(8,4,46)             106.799          estimate D2E/DX2                !
 ! A12   A(45,4,46)            122.0136         estimate D2E/DX2                !
 ! A13   A(1,5,9)              122.1146         estimate D2E/DX2                !
 ! A14   A(1,5,29)             108.35           estimate D2E/DX2                !
 ! A15   A(9,5,29)             121.3126         estimate D2E/DX2                !
 ! A16   A(2,6,10)             119.4415         estimate D2E/DX2                !
 ! A17   A(2,6,15)             109.3293         estimate D2E/DX2                !
 ! A18   A(10,6,15)            120.5268         estimate D2E/DX2                !
 ! A19   A(3,7,12)             122.1143         estimate D2E/DX2                !
 ! A20   A(3,7,30)             108.3507         estimate D2E/DX2                !
 ! A21   A(12,7,30)            121.3122         estimate D2E/DX2                !
 ! A22   A(4,8,11)             119.4413         estimate D2E/DX2                !
 ! A23   A(4,8,16)             109.3283         estimate D2E/DX2                !
 ! A24   A(11,8,16)            120.5275         estimate D2E/DX2                !
 ! A25   A(5,9,13)             115.1734         estimate D2E/DX2                !
 ! A26   A(5,9,35)             119.5628         estimate D2E/DX2                !
 ! A27   A(13,9,35)            119.6691         estimate D2E/DX2                !
 ! A28   A(6,10,49)            120.1526         estimate D2E/DX2                !
 ! A29   A(6,10,53)            120.1089         estimate D2E/DX2                !
 ! A30   A(49,10,53)           109.3735         estimate D2E/DX2                !
 ! A31   A(8,11,50)            120.153          estimate D2E/DX2                !
 ! A32   A(8,11,54)            120.1086         estimate D2E/DX2                !
 ! A33   A(50,11,54)           109.3729         estimate D2E/DX2                !
 ! A34   A(7,12,14)            115.1727         estimate D2E/DX2                !
 ! A35   A(7,12,36)            119.5627         estimate D2E/DX2                !
 ! A36   A(14,12,36)           119.6702         estimate D2E/DX2                !
 ! A37   A(9,13,15)            122.4138         estimate D2E/DX2                !
 ! A38   A(9,13,43)            120.327          estimate D2E/DX2                !
 ! A39   A(15,13,43)           108.6144         estimate D2E/DX2                !
 ! A40   A(12,14,16)           122.4147         estimate D2E/DX2                !
 ! A41   A(12,14,46)           120.3267         estimate D2E/DX2                !
 ! A42   A(16,14,46)           108.6139         estimate D2E/DX2                !
 ! A43   A(6,15,13)            106.7963         estimate D2E/DX2                !
 ! A44   A(6,15,17)            120.5837         estimate D2E/DX2                !
 ! A45   A(13,15,17)           122.3762         estimate D2E/DX2                !
 ! A46   A(8,16,14)            106.7971         estimate D2E/DX2                !
 ! A47   A(8,16,18)            120.5831         estimate D2E/DX2                !
 ! A48   A(14,16,18)           122.3758         estimate D2E/DX2                !
 ! A49   A(1,17,15)            114.9813         estimate D2E/DX2                !
 ! A50   A(1,17,19)            118.9115         estimate D2E/DX2                !
 ! A51   A(15,17,19)           119.062          estimate D2E/DX2                !
 ! A52   A(3,18,16)            114.981          estimate D2E/DX2                !
 ! A53   A(3,18,20)            118.9119         estimate D2E/DX2                !
 ! A54   A(16,18,20)           119.062          estimate D2E/DX2                !
 ! A55   A(17,19,21)           118.3479         estimate D2E/DX2                !
 ! A56   A(17,19,53)           119.1585         estimate D2E/DX2                !
 ! A57   A(21,19,53)           115.0709         estimate D2E/DX2                !
 ! A58   A(18,20,22)           118.3472         estimate D2E/DX2                !
 ! A59   A(18,20,54)           119.1592         estimate D2E/DX2                !
 ! A60   A(22,20,54)           115.0712         estimate D2E/DX2                !
 ! A61   A(19,21,23)           120.6129         estimate D2E/DX2                !
 ! A62   A(19,21,57)           122.3118         estimate D2E/DX2                !
 ! A63   A(23,21,57)           107.4075         estimate D2E/DX2                !
 ! A64   A(20,22,24)           120.6133         estimate D2E/DX2                !
 ! A65   A(20,22,58)           122.3117         estimate D2E/DX2                !
 ! A66   A(24,22,58)           107.4081         estimate D2E/DX2                !
 ! A67   A(21,23,25)           120.9542         estimate D2E/DX2                !
 ! A68   A(21,23,61)           108.8016         estimate D2E/DX2                !
 ! A69   A(25,23,61)           119.9817         estimate D2E/DX2                !
 ! A70   A(22,24,26)           120.9542         estimate D2E/DX2                !
 ! A71   A(22,24,62)           108.8014         estimate D2E/DX2                !
 ! A72   A(26,24,62)           119.9823         estimate D2E/DX2                !
 ! A73   A(1,25,23)            119.5457         estimate D2E/DX2                !
 ! A74   A(1,25,27)            111.8962         estimate D2E/DX2                !
 ! A75   A(23,25,27)           120.9215         estimate D2E/DX2                !
 ! A76   A(3,26,24)            119.5453         estimate D2E/DX2                !
 ! A77   A(3,26,28)            111.8958         estimate D2E/DX2                !
 ! A78   A(24,26,28)           120.9227         estimate D2E/DX2                !
 ! A79   A(25,27,29)           100.2779         estimate D2E/DX2                !
 ! A80   A(25,27,65)           112.1178         estimate D2E/DX2                !
 ! A81   A(25,27,85)           112.0759         estimate D2E/DX2                !
 ! A82   A(29,27,65)           109.8885         estimate D2E/DX2                !
 ! A83   A(29,27,85)           113.6368         estimate D2E/DX2                !
 ! A84   A(65,27,85)           108.7052         estimate D2E/DX2                !
 ! A85   A(26,28,30)           100.2783         estimate D2E/DX2                !
 ! A86   A(26,28,66)           112.1159         estimate D2E/DX2                !
 ! A87   A(26,28,88)           112.0758         estimate D2E/DX2                !
 ! A88   A(30,28,66)           109.8897         estimate D2E/DX2                !
 ! A89   A(30,28,88)           113.6361         estimate D2E/DX2                !
 ! A90   A(66,28,88)           108.7062         estimate D2E/DX2                !
 ! A91   A(5,29,27)            111.7429         estimate D2E/DX2                !
 ! A92   A(5,29,31)            119.609          estimate D2E/DX2                !
 ! A93   A(27,29,31)           121.5811         estimate D2E/DX2                !
 ! A94   A(7,30,28)            111.7421         estimate D2E/DX2                !
 ! A95   A(7,30,32)            119.6094         estimate D2E/DX2                !
 ! A96   A(28,30,32)           121.5831         estimate D2E/DX2                !
 ! A97   A(29,31,33)           119.9769         estimate D2E/DX2                !
 ! A98   A(29,31,69)           121.3511         estimate D2E/DX2                !
 ! A99   A(33,31,69)           111.9422         estimate D2E/DX2                !
 ! A100  A(30,32,34)           119.9774         estimate D2E/DX2                !
 ! A101  A(30,32,70)           121.3503         estimate D2E/DX2                !
 ! A102  A(34,32,70)           111.9417         estimate D2E/DX2                !
 ! A103  A(31,33,35)           122.7114         estimate D2E/DX2                !
 ! A104  A(31,33,73)           106.914          estimate D2E/DX2                !
 ! A105  A(35,33,73)           122.3204         estimate D2E/DX2                !
 ! A106  A(32,34,36)           122.7099         estimate D2E/DX2                !
 ! A107  A(32,34,74)           106.9146         estimate D2E/DX2                !
 ! A108  A(36,34,74)           122.3207         estimate D2E/DX2                !
 ! A109  A(9,35,33)            116.3172         estimate D2E/DX2                !
 ! A110  A(9,35,37)            119.9885         estimate D2E/DX2                !
 ! A111  A(33,35,37)           118.5483         estimate D2E/DX2                !
 ! A112  A(12,36,34)           116.3181         estimate D2E/DX2                !
 ! A113  A(12,36,38)           119.9874         estimate D2E/DX2                !
 ! A114  A(34,36,38)           118.5487         estimate D2E/DX2                !
 ! A115  A(35,37,39)           119.205          estimate D2E/DX2                !
 ! A116  A(35,37,77)           118.0026         estimate D2E/DX2                !
 ! A117  A(39,37,77)           117.3293         estimate D2E/DX2                !
 ! A118  A(36,38,42)           119.2052         estimate D2E/DX2                !
 ! A119  A(36,38,78)           118.0017         estimate D2E/DX2                !
 ! A120  A(42,38,78)           117.3296         estimate D2E/DX2                !
 ! A121  A(37,39,43)           119.5264         estimate D2E/DX2                !
 ! A122  A(37,39,79)           119.9862         estimate D2E/DX2                !
 ! A123  A(43,39,79)           114.649          estimate D2E/DX2                !
 ! A124  A(41,40,44)           121.0059         estimate D2E/DX2                !
 ! A125  A(41,40,79)           108.3603         estimate D2E/DX2                !
 ! A126  A(44,40,79)           122.257          estimate D2E/DX2                !
 ! A127  A(40,41,45)           121.0125         estimate D2E/DX2                !
 ! A128  A(40,41,80)           108.3572         estimate D2E/DX2                !
 ! A129  A(45,41,80)           122.258          estimate D2E/DX2                !
 ! A130  A(38,42,46)           119.5268         estimate D2E/DX2                !
 ! A131  A(38,42,80)           119.9865         estimate D2E/DX2                !
 ! A132  A(46,42,80)           114.6481         estimate D2E/DX2                !
 ! A133  A(2,43,13)            108.3346         estimate D2E/DX2                !
 ! A134  A(2,43,39)            122.3751         estimate D2E/DX2                !
 ! A135  A(13,43,39)           121.0406         estimate D2E/DX2                !
 ! A136  A(2,44,40)            114.793          estimate D2E/DX2                !
 ! A137  A(2,44,47)            120.1269         estimate D2E/DX2                !
 ! A138  A(40,44,47)           119.1883         estimate D2E/DX2                !
 ! A139  A(4,45,41)            114.7924         estimate D2E/DX2                !
 ! A140  A(4,45,48)            120.1285         estimate D2E/DX2                !
 ! A141  A(41,45,48)           119.1867         estimate D2E/DX2                !
 ! A142  A(4,46,14)            108.3344         estimate D2E/DX2                !
 ! A143  A(4,46,42)            122.3758         estimate D2E/DX2                !
 ! A144  A(14,46,42)           121.0404         estimate D2E/DX2                !
 ! A145  A(44,47,48)           119.7458         estimate D2E/DX2                !
 ! A146  A(44,47,49)           116.817          estimate D2E/DX2                !
 ! A147  A(48,47,49)           118.1427         estimate D2E/DX2                !
 ! A148  A(45,48,47)           119.7447         estimate D2E/DX2                !
 ! A149  A(45,48,50)           116.8164         estimate D2E/DX2                !
 ! A150  A(47,48,50)           118.1437         estimate D2E/DX2                !
 ! A151  A(10,49,47)           122.1663         estimate D2E/DX2                !
 ! A152  A(10,49,51)           105.5844         estimate D2E/DX2                !
 ! A153  A(47,49,51)           122.0549         estimate D2E/DX2                !
 ! A154  A(11,50,48)           122.166          estimate D2E/DX2                !
 ! A155  A(11,50,52)           105.5849         estimate D2E/DX2                !
 ! A156  A(48,50,52)           122.0548         estimate D2E/DX2                !
 ! A157  A(49,51,52)           119.5175         estimate D2E/DX2                !
 ! A158  A(49,51,55)           109.6933         estimate D2E/DX2                !
 ! A159  A(52,51,55)           120.456          estimate D2E/DX2                !
 ! A160  A(50,52,51)           119.5168         estimate D2E/DX2                !
 ! A161  A(50,52,56)           109.6932         estimate D2E/DX2                !
 ! A162  A(51,52,56)           120.4574         estimate D2E/DX2                !
 ! A163  A(10,53,19)           120.5167         estimate D2E/DX2                !
 ! A164  A(10,53,55)           107.4561         estimate D2E/DX2                !
 ! A165  A(19,53,55)           122.1335         estimate D2E/DX2                !
 ! A166  A(11,54,20)           120.5162         estimate D2E/DX2                !
 ! A167  A(11,54,56)           107.4568         estimate D2E/DX2                !
 ! A168  A(20,54,56)           122.1335         estimate D2E/DX2                !
 ! A169  A(51,55,53)           107.4396         estimate D2E/DX2                !
 ! A170  A(51,55,83)           120.321          estimate D2E/DX2                !
 ! A171  A(53,55,83)           122.4971         estimate D2E/DX2                !
 ! A172  A(52,56,54)           107.4392         estimate D2E/DX2                !
 ! A173  A(52,56,84)           120.321          estimate D2E/DX2                !
 ! A174  A(54,56,84)           122.4968         estimate D2E/DX2                !
 ! A175  A(21,57,59)           107.2907         estimate D2E/DX2                !
 ! A176  A(21,57,83)           122.3592         estimate D2E/DX2                !
 ! A177  A(59,57,83)           120.3972         estimate D2E/DX2                !
 ! A178  A(22,58,60)           107.2904         estimate D2E/DX2                !
 ! A179  A(22,58,84)           122.359          estimate D2E/DX2                !
 ! A180  A(60,58,84)           120.3977         estimate D2E/DX2                !
 ! A181  A(57,59,60)           120.2306         estimate D2E/DX2                !
 ! A182  A(57,59,61)           109.8859         estimate D2E/DX2                !
 ! A183  A(60,59,61)           119.7411         estimate D2E/DX2                !
 ! A184  A(58,60,59)           120.2296         estimate D2E/DX2                !
 ! A185  A(58,60,62)           109.8862         estimate D2E/DX2                !
 ! A186  A(59,60,62)           119.7393         estimate D2E/DX2                !
 ! A187  A(23,61,59)           105.8343         estimate D2E/DX2                !
 ! A188  A(23,61,63)           120.5187         estimate D2E/DX2                !
 ! A189  A(59,61,63)           120.8747         estimate D2E/DX2                !
 ! A190  A(24,62,60)           105.8343         estimate D2E/DX2                !
 ! A191  A(24,62,64)           120.5183         estimate D2E/DX2                !
 ! A192  A(60,62,64)           120.875          estimate D2E/DX2                !
 ! A193  A(61,63,64)           118.2937         estimate D2E/DX2                !
 ! A194  A(61,63,65)           119.4808         estimate D2E/DX2                !
 ! A195  A(64,63,65)           119.134          estimate D2E/DX2                !
 ! A196  A(62,64,63)           118.2965         estimate D2E/DX2                !
 ! A197  A(62,64,66)           119.4806         estimate D2E/DX2                !
 ! A198  A(63,64,66)           119.1269         estimate D2E/DX2                !
 ! A199  A(27,65,63)           118.2835         estimate D2E/DX2                !
 ! A200  A(27,65,67)           120.5143         estimate D2E/DX2                !
 ! A201  A(63,65,67)           120.5423         estimate D2E/DX2                !
 ! A202  A(28,66,64)           118.2843         estimate D2E/DX2                !
 ! A203  A(28,66,68)           120.511          estimate D2E/DX2                !
 ! A204  A(64,66,68)           120.5448         estimate D2E/DX2                !
 ! A205  A(65,67,68)           120.3249         estimate D2E/DX2                !
 ! A206  A(65,67,69)           119.4599         estimate D2E/DX2                !
 ! A207  A(68,67,69)           119.8591         estimate D2E/DX2                !
 ! A208  A(66,68,67)           120.3244         estimate D2E/DX2                !
 ! A209  A(66,68,70)           119.4631         estimate D2E/DX2                !
 ! A210  A(67,68,70)           119.8567         estimate D2E/DX2                !
 ! A211  A(31,69,67)           109.304          estimate D2E/DX2                !
 ! A212  A(31,69,71)           100.9471         estimate D2E/DX2                !
 ! A213  A(31,69,86)           113.56           estimate D2E/DX2                !
 ! A214  A(67,69,71)           111.3608         estimate D2E/DX2                !
 ! A215  A(67,69,86)           108.423          estimate D2E/DX2                !
 ! A216  A(71,69,86)           113.1044         estimate D2E/DX2                !
 ! A217  A(32,70,68)           109.302          estimate D2E/DX2                !
 ! A218  A(32,70,72)           100.9485         estimate D2E/DX2                !
 ! A219  A(32,70,87)           113.5603         estimate D2E/DX2                !
 ! A220  A(68,70,72)           111.3691         estimate D2E/DX2                !
 ! A221  A(68,70,87)           108.4203         estimate D2E/DX2                !
 ! A222  A(72,70,87)           113.0998         estimate D2E/DX2                !
 ! A223  A(69,71,72)           122.123          estimate D2E/DX2                !
 ! A224  A(69,71,73)           110.3052         estimate D2E/DX2                !
 ! A225  A(72,71,73)           119.562          estimate D2E/DX2                !
 ! A226  A(70,72,71)           122.104          estimate D2E/DX2                !
 ! A227  A(70,72,74)           110.3025         estimate D2E/DX2                !
 ! A228  A(71,72,74)           119.5641         estimate D2E/DX2                !
 ! A229  A(33,73,71)           109.455          estimate D2E/DX2                !
 ! A230  A(33,73,75)           118.9579         estimate D2E/DX2                !
 ! A231  A(71,73,75)           121.5433         estimate D2E/DX2                !
 ! A232  A(34,74,72)           109.4572         estimate D2E/DX2                !
 ! A233  A(34,74,76)           118.9569         estimate D2E/DX2                !
 ! A234  A(72,74,76)           121.5425         estimate D2E/DX2                !
 ! A235  A(73,75,76)           118.8576         estimate D2E/DX2                !
 ! A236  A(73,75,77)           119.9261         estimate D2E/DX2                !
 ! A237  A(76,75,77)           108.9098         estimate D2E/DX2                !
 ! A238  A(74,76,75)           118.8571         estimate D2E/DX2                !
 ! A239  A(74,76,78)           119.9266         estimate D2E/DX2                !
 ! A240  A(75,76,78)           108.9101         estimate D2E/DX2                !
 ! A241  A(37,77,75)           122.1309         estimate D2E/DX2                !
 ! A242  A(37,77,81)           121.4376         estimate D2E/DX2                !
 ! A243  A(75,77,81)           106.0017         estimate D2E/DX2                !
 ! A244  A(38,78,76)           122.1316         estimate D2E/DX2                !
 ! A245  A(38,78,81)           121.437          estimate D2E/DX2                !
 ! A246  A(76,78,81)           106.0012         estimate D2E/DX2                !
 ! A247  A(39,79,40)           122.1652         estimate D2E/DX2                !
 ! A248  A(39,79,82)           120.3807         estimate D2E/DX2                !
 ! A249  A(40,79,82)           106.7887         estimate D2E/DX2                !
 ! A250  A(41,80,42)           122.1648         estimate D2E/DX2                !
 ! A251  A(41,80,82)           106.7899         estimate D2E/DX2                !
 ! A252  A(42,80,82)           120.38           estimate D2E/DX2                !
 ! A253  A(77,81,78)           109.4813         estimate D2E/DX2                !
 ! A254  A(77,81,82)           120.0378         estimate D2E/DX2                !
 ! A255  A(78,81,82)           120.0384         estimate D2E/DX2                !
 ! A256  A(79,82,80)           109.4973         estimate D2E/DX2                !
 ! A257  A(79,82,81)           120.0365         estimate D2E/DX2                !
 ! A258  A(80,82,81)           120.0367         estimate D2E/DX2                !
 ! A259  A(55,83,57)           114.9707         estimate D2E/DX2                !
 ! A260  A(55,83,84)           119.1597         estimate D2E/DX2                !
 ! A261  A(57,83,84)           119.2684         estimate D2E/DX2                !
 ! A262  A(56,84,58)           114.971          estimate D2E/DX2                !
 ! A263  A(56,84,83)           119.1584         estimate D2E/DX2                !
 ! A264  A(58,84,83)           119.2685         estimate D2E/DX2                !
 ! D1    D(17,1,5,9)            -2.1554         estimate D2E/DX2                !
 ! D2    D(17,1,5,29)         -150.8767         estimate D2E/DX2                !
 ! D3    D(25,1,5,9)           145.7077         estimate D2E/DX2                !
 ! D4    D(25,1,5,29)           -3.0136         estimate D2E/DX2                !
 ! D5    D(5,1,17,15)           -5.896          estimate D2E/DX2                !
 ! D6    D(5,1,17,19)          144.5054         estimate D2E/DX2                !
 ! D7    D(25,1,17,15)        -149.4216         estimate D2E/DX2                !
 ! D8    D(25,1,17,19)           0.9798         estimate D2E/DX2                !
 ! D9    D(5,1,25,23)         -146.3511         estimate D2E/DX2                !
 ! D10   D(5,1,25,27)            3.4649         estimate D2E/DX2                !
 ! D11   D(17,1,25,23)           1.7706         estimate D2E/DX2                !
 ! D12   D(17,1,25,27)         151.5866         estimate D2E/DX2                !
 ! D13   D(43,2,6,10)         -148.3944         estimate D2E/DX2                !
 ! D14   D(43,2,6,15)           -3.6991         estimate D2E/DX2                !
 ! D15   D(44,2,6,10)           -2.7494         estimate D2E/DX2                !
 ! D16   D(44,2,6,15)          141.9459         estimate D2E/DX2                !
 ! D17   D(6,2,43,13)            3.1486         estimate D2E/DX2                !
 ! D18   D(6,2,43,39)          151.7216         estimate D2E/DX2                !
 ! D19   D(44,2,43,13)        -142.0131         estimate D2E/DX2                !
 ! D20   D(44,2,43,39)           6.5599         estimate D2E/DX2                !
 ! D21   D(6,2,44,40)         -152.5808         estimate D2E/DX2                !
 ! D22   D(6,2,44,47)            0.1856         estimate D2E/DX2                !
 ! D23   D(43,2,44,40)         -12.1589         estimate D2E/DX2                !
 ! D24   D(43,2,44,47)         140.6075         estimate D2E/DX2                !
 ! D25   D(18,3,7,12)            2.1559         estimate D2E/DX2                !
 ! D26   D(18,3,7,30)          150.8773         estimate D2E/DX2                !
 ! D27   D(26,3,7,12)         -145.709          estimate D2E/DX2                !
 ! D28   D(26,3,7,30)            3.0124         estimate D2E/DX2                !
 ! D29   D(7,3,18,16)            5.8957         estimate D2E/DX2                !
 ! D30   D(7,3,18,20)         -144.5061         estimate D2E/DX2                !
 ! D31   D(26,3,18,16)         149.4233         estimate D2E/DX2                !
 ! D32   D(26,3,18,20)          -0.9785         estimate D2E/DX2                !
 ! D33   D(7,3,26,24)          146.3526         estimate D2E/DX2                !
 ! D34   D(7,3,26,28)           -3.4644         estimate D2E/DX2                !
 ! D35   D(18,3,26,24)          -1.771          estimate D2E/DX2                !
 ! D36   D(18,3,26,28)        -151.5881         estimate D2E/DX2                !
 ! D37   D(45,4,8,11)            2.7485         estimate D2E/DX2                !
 ! D38   D(45,4,8,16)         -141.9463         estimate D2E/DX2                !
 ! D39   D(46,4,8,11)          148.3945         estimate D2E/DX2                !
 ! D40   D(46,4,8,16)            3.6997         estimate D2E/DX2                !
 ! D41   D(8,4,45,41)          152.5798         estimate D2E/DX2                !
 ! D42   D(8,4,45,48)           -0.1849         estimate D2E/DX2                !
 ! D43   D(46,4,45,41)          12.1568         estimate D2E/DX2                !
 ! D44   D(46,4,45,48)        -140.608          estimate D2E/DX2                !
 ! D45   D(8,4,46,14)           -3.1491         estimate D2E/DX2                !
 ! D46   D(8,4,46,42)         -151.7224         estimate D2E/DX2                !
 ! D47   D(45,4,46,14)         142.0132         estimate D2E/DX2                !
 ! D48   D(45,4,46,42)          -6.5602         estimate D2E/DX2                !
 ! D49   D(1,5,9,13)             7.4798         estimate D2E/DX2                !
 ! D50   D(1,5,9,35)          -146.0784         estimate D2E/DX2                !
 ! D51   D(29,5,9,13)          152.2528         estimate D2E/DX2                !
 ! D52   D(29,5,9,35)           -1.3054         estimate D2E/DX2                !
 ! D53   D(1,5,29,27)            1.5426         estimate D2E/DX2                !
 ! D54   D(1,5,29,31)          152.6044         estimate D2E/DX2                !
 ! D55   D(9,5,29,27)         -147.478          estimate D2E/DX2                !
 ! D56   D(9,5,29,31)            3.5838         estimate D2E/DX2                !
 ! D57   D(2,6,10,49)           -0.02           estimate D2E/DX2                !
 ! D58   D(2,6,10,53)          141.2707         estimate D2E/DX2                !
 ! D59   D(15,6,10,49)        -140.7408         estimate D2E/DX2                !
 ! D60   D(15,6,10,53)           0.55           estimate D2E/DX2                !
 ! D61   D(2,6,15,13)            2.7996         estimate D2E/DX2                !
 ! D62   D(2,6,15,17)         -143.1065         estimate D2E/DX2                !
 ! D63   D(10,6,15,13)         147.0478         estimate D2E/DX2                !
 ! D64   D(10,6,15,17)           1.1417         estimate D2E/DX2                !
 ! D65   D(3,7,12,14)           -7.4799         estimate D2E/DX2                !
 ! D66   D(3,7,12,36)          146.0793         estimate D2E/DX2                !
 ! D67   D(30,7,12,14)        -152.2533         estimate D2E/DX2                !
 ! D68   D(30,7,12,36)           1.3059         estimate D2E/DX2                !
 ! D69   D(3,7,30,28)           -1.5409         estimate D2E/DX2                !
 ! D70   D(3,7,30,32)         -152.6061         estimate D2E/DX2                !
 ! D71   D(12,7,30,28)         147.4798         estimate D2E/DX2                !
 ! D72   D(12,7,30,32)          -3.5854         estimate D2E/DX2                !
 ! D73   D(4,8,11,50)            0.0202         estimate D2E/DX2                !
 ! D74   D(4,8,11,54)         -141.2697         estimate D2E/DX2                !
 ! D75   D(16,8,11,50)         140.7396         estimate D2E/DX2                !
 ! D76   D(16,8,11,54)          -0.5503         estimate D2E/DX2                !
 ! D77   D(4,8,16,14)           -2.8001         estimate D2E/DX2                !
 ! D78   D(4,8,16,18)          143.1056         estimate D2E/DX2                !
 ! D79   D(11,8,16,14)        -147.0473         estimate D2E/DX2                !
 ! D80   D(11,8,16,18)          -1.1416         estimate D2E/DX2                !
 ! D81   D(5,9,13,15)           -4.8444         estimate D2E/DX2                !
 ! D82   D(5,9,13,43)         -148.8907         estimate D2E/DX2                !
 ! D83   D(35,9,13,15)         148.6837         estimate D2E/DX2                !
 ! D84   D(35,9,13,43)           4.6373         estimate D2E/DX2                !
 ! D85   D(5,9,35,33)           -4.4903         estimate D2E/DX2                !
 ! D86   D(5,9,35,37)          149.799          estimate D2E/DX2                !
 ! D87   D(13,9,35,33)        -156.8575         estimate D2E/DX2                !
 ! D88   D(13,9,35,37)          -2.5682         estimate D2E/DX2                !
 ! D89   D(6,10,49,47)           5.5923         estimate D2E/DX2                !
 ! D90   D(6,10,49,51)         151.3137         estimate D2E/DX2                !
 ! D91   D(53,10,49,47)       -139.4158         estimate D2E/DX2                !
 ! D92   D(53,10,49,51)          6.3056         estimate D2E/DX2                !
 ! D93   D(6,10,53,19)          -2.1482         estimate D2E/DX2                !
 ! D94   D(6,10,53,55)        -148.5126         estimate D2E/DX2                !
 ! D95   D(49,10,53,19)        142.8775         estimate D2E/DX2                !
 ! D96   D(49,10,53,55)         -3.4868         estimate D2E/DX2                !
 ! D97   D(8,11,50,48)          -5.5914         estimate D2E/DX2                !
 ! D98   D(8,11,50,52)        -151.3128         estimate D2E/DX2                !
 ! D99   D(54,11,50,48)        139.4159         estimate D2E/DX2                !
 ! D100  D(54,11,50,52)         -6.3055         estimate D2E/DX2                !
 ! D101  D(8,11,54,20)           2.1482         estimate D2E/DX2                !
 ! D102  D(8,11,54,56)         148.513          estimate D2E/DX2                !
 ! D103  D(50,11,54,20)       -142.8771         estimate D2E/DX2                !
 ! D104  D(50,11,54,56)          3.4876         estimate D2E/DX2                !
 ! D105  D(7,12,14,16)           4.844          estimate D2E/DX2                !
 ! D106  D(7,12,14,46)         148.8903         estimate D2E/DX2                !
 ! D107  D(36,12,14,16)       -148.6848         estimate D2E/DX2                !
 ! D108  D(36,12,14,46)         -4.6385         estimate D2E/DX2                !
 ! D109  D(7,12,36,34)           4.4912         estimate D2E/DX2                !
 ! D110  D(7,12,36,38)        -149.7986         estimate D2E/DX2                !
 ! D111  D(14,12,36,34)        156.859          estimate D2E/DX2                !
 ! D112  D(14,12,36,38)          2.5692         estimate D2E/DX2                !
 ! D113  D(9,13,15,6)         -148.4818         estimate D2E/DX2                !
 ! D114  D(9,13,15,17)          -3.3293         estimate D2E/DX2                !
 ! D115  D(43,13,15,6)          -0.8094         estimate D2E/DX2                !
 ! D116  D(43,13,15,17)        144.3431         estimate D2E/DX2                !
 ! D117  D(9,13,43,2)          146.9901         estimate D2E/DX2                !
 ! D118  D(9,13,43,39)          -2.0817         estimate D2E/DX2                !
 ! D119  D(15,13,43,2)          -1.4752         estimate D2E/DX2                !
 ! D120  D(15,13,43,39)       -150.547          estimate D2E/DX2                !
 ! D121  D(12,14,16,8)         148.4819         estimate D2E/DX2                !
 ! D122  D(12,14,16,18)          3.3298         estimate D2E/DX2                !
 ! D123  D(46,14,16,8)           0.8097         estimate D2E/DX2                !
 ! D124  D(46,14,16,18)       -144.3424         estimate D2E/DX2                !
 ! D125  D(12,14,46,4)        -146.9904         estimate D2E/DX2                !
 ! D126  D(12,14,46,42)          2.0822         estimate D2E/DX2                !
 ! D127  D(16,14,46,4)           1.4753         estimate D2E/DX2                !
 ! D128  D(16,14,46,42)        150.5479         estimate D2E/DX2                !
 ! D129  D(6,15,17,1)          149.1202         estimate D2E/DX2                !
 ! D130  D(6,15,17,19)          -1.2338         estimate D2E/DX2                !
 ! D131  D(13,15,17,1)           8.5707         estimate D2E/DX2                !
 ! D132  D(13,15,17,19)       -141.7833         estimate D2E/DX2                !
 ! D133  D(8,16,18,3)         -149.1203         estimate D2E/DX2                !
 ! D134  D(8,16,18,20)           1.2342         estimate D2E/DX2                !
 ! D135  D(14,16,18,3)          -8.5708         estimate D2E/DX2                !
 ! D136  D(14,16,18,20)        141.7837         estimate D2E/DX2                !
 ! D137  D(1,17,19,21)          -1.0617         estimate D2E/DX2                !
 ! D138  D(1,17,19,53)        -149.5315         estimate D2E/DX2                !
 ! D139  D(15,17,19,21)        148.1278         estimate D2E/DX2                !
 ! D140  D(15,17,19,53)         -0.342          estimate D2E/DX2                !
 ! D141  D(3,18,20,22)           1.0608         estimate D2E/DX2                !
 ! D142  D(3,18,20,54)         149.5311         estimate D2E/DX2                !
 ! D143  D(16,18,20,22)       -148.129          estimate D2E/DX2                !
 ! D144  D(16,18,20,54)          0.3413         estimate D2E/DX2                !
 ! D145  D(17,19,21,23)         -1.4664         estimate D2E/DX2                !
 ! D146  D(17,19,21,57)       -143.2364         estimate D2E/DX2                !
 ! D147  D(53,19,21,23)        148.2567         estimate D2E/DX2                !
 ! D148  D(53,19,21,57)          6.4867         estimate D2E/DX2                !
 ! D149  D(17,19,53,10)          2.0194         estimate D2E/DX2                !
 ! D150  D(17,19,53,55)        143.4114         estimate D2E/DX2                !
 ! D151  D(21,19,53,10)       -147.4427         estimate D2E/DX2                !
 ! D152  D(21,19,53,55)         -6.0507         estimate D2E/DX2                !
 ! D153  D(18,20,22,24)          1.4659         estimate D2E/DX2                !
 ! D154  D(18,20,22,58)        143.2378         estimate D2E/DX2                !
 ! D155  D(54,20,22,24)       -148.2578         estimate D2E/DX2                !
 ! D156  D(54,20,22,58)         -6.4859         estimate D2E/DX2                !
 ! D157  D(18,20,54,11)         -2.0189         estimate D2E/DX2                !
 ! D158  D(18,20,54,56)       -143.4116         estimate D2E/DX2                !
 ! D159  D(22,20,54,11)        147.4433         estimate D2E/DX2                !
 ! D160  D(22,20,54,56)          6.0507         estimate D2E/DX2                !
 ! D161  D(19,21,23,25)          4.3027         estimate D2E/DX2                !
 ! D162  D(19,21,23,61)       -140.758          estimate D2E/DX2                !
 ! D163  D(57,21,23,25)        151.0661         estimate D2E/DX2                !
 ! D164  D(57,21,23,61)          6.0053         estimate D2E/DX2                !
 ! D165  D(19,21,57,59)        145.2769         estimate D2E/DX2                !
 ! D166  D(19,21,57,83)         -0.2713         estimate D2E/DX2                !
 ! D167  D(23,21,57,59)         -0.7962         estimate D2E/DX2                !
 ! D168  D(23,21,57,83)       -146.3444         estimate D2E/DX2                !
 ! D169  D(20,22,24,26)         -4.3012         estimate D2E/DX2                !
 ! D170  D(20,22,24,62)        140.7602         estimate D2E/DX2                !
 ! D171  D(58,22,24,26)       -151.0659         estimate D2E/DX2                !
 ! D172  D(58,22,24,62)         -6.0045         estimate D2E/DX2                !
 ! D173  D(20,22,58,60)       -145.2784         estimate D2E/DX2                !
 ! D174  D(20,22,58,84)          0.2698         estimate D2E/DX2                !
 ! D175  D(24,22,58,60)          0.7964         estimate D2E/DX2                !
 ! D176  D(24,22,58,84)        146.3446         estimate D2E/DX2                !
 ! D177  D(21,23,25,1)          -4.3744         estimate D2E/DX2                !
 ! D178  D(21,23,25,27)       -151.4319         estimate D2E/DX2                !
 ! D179  D(61,23,25,1)         136.8771         estimate D2E/DX2                !
 ! D180  D(61,23,25,27)        -10.1804         estimate D2E/DX2                !
 ! D181  D(21,23,61,59)         -8.858          estimate D2E/DX2                !
 ! D182  D(21,23,61,63)        132.9895         estimate D2E/DX2                !
 ! D183  D(25,23,61,59)       -154.3155         estimate D2E/DX2                !
 ! D184  D(25,23,61,63)        -12.4681         estimate D2E/DX2                !
 ! D185  D(22,24,26,3)           4.3733         estimate D2E/DX2                !
 ! D186  D(22,24,26,28)        151.4314         estimate D2E/DX2                !
 ! D187  D(62,24,26,3)        -136.8786         estimate D2E/DX2                !
 ! D188  D(62,24,26,28)         10.1796         estimate D2E/DX2                !
 ! D189  D(22,24,62,60)          8.8565         estimate D2E/DX2                !
 ! D190  D(22,24,62,64)       -132.991          estimate D2E/DX2                !
 ! D191  D(26,24,62,60)        154.3144         estimate D2E/DX2                !
 ! D192  D(26,24,62,64)         12.4669         estimate D2E/DX2                !
 ! D193  D(1,25,27,29)          -2.3952         estimate D2E/DX2                !
 ! D194  D(1,25,27,65)        -118.9401         estimate D2E/DX2                !
 ! D195  D(1,25,27,85)         118.4857         estimate D2E/DX2                !
 ! D196  D(23,25,27,29)        146.95           estimate D2E/DX2                !
 ! D197  D(23,25,27,65)         30.405          estimate D2E/DX2                !
 ! D198  D(23,25,27,85)        -92.1691         estimate D2E/DX2                !
 ! D199  D(3,26,28,30)           2.3957         estimate D2E/DX2                !
 ! D200  D(3,26,28,66)         118.9415         estimate D2E/DX2                !
 ! D201  D(3,26,28,88)        -118.4845         estimate D2E/DX2                !
 ! D202  D(24,26,28,30)       -146.9501         estimate D2E/DX2                !
 ! D203  D(24,26,28,66)        -30.4043         estimate D2E/DX2                !
 ! D204  D(24,26,28,88)         92.1697         estimate D2E/DX2                !
 ! D205  D(25,27,29,5)           0.4833         estimate D2E/DX2                !
 ! D206  D(25,27,29,31)       -149.925          estimate D2E/DX2                !
 ! D207  D(65,27,29,5)         118.6815         estimate D2E/DX2                !
 ! D208  D(65,27,29,31)        -31.7268         estimate D2E/DX2                !
 ! D209  D(85,27,29,5)        -119.2724         estimate D2E/DX2                !
 ! D210  D(85,27,29,31)         90.3193         estimate D2E/DX2                !
 ! D211  D(25,27,65,63)        -30.129          estimate D2E/DX2                !
 ! D212  D(25,27,65,67)        140.611          estimate D2E/DX2                !
 ! D213  D(29,27,65,63)       -140.7291         estimate D2E/DX2                !
 ! D214  D(29,27,65,67)         30.011          estimate D2E/DX2                !
 ! D215  D(85,27,65,63)         94.337          estimate D2E/DX2                !
 ! D216  D(85,27,65,67)        -94.923          estimate D2E/DX2                !
 ! D217  D(26,28,30,7)          -0.4846         estimate D2E/DX2                !
 ! D218  D(26,28,30,32)        149.9266         estimate D2E/DX2                !
 ! D219  D(66,28,30,7)        -118.6813         estimate D2E/DX2                !
 ! D220  D(66,28,30,32)         31.7299         estimate D2E/DX2                !
 ! D221  D(88,28,30,7)         119.2709         estimate D2E/DX2                !
 ! D222  D(88,28,30,32)        -90.3179         estimate D2E/DX2                !
 ! D223  D(26,28,66,64)         30.1309         estimate D2E/DX2                !
 ! D224  D(26,28,66,68)       -140.6099         estimate D2E/DX2                !
 ! D225  D(30,28,66,64)        140.731          estimate D2E/DX2                !
 ! D226  D(30,28,66,68)        -30.0098         estimate D2E/DX2                !
 ! D227  D(88,28,66,64)        -94.3344         estimate D2E/DX2                !
 ! D228  D(88,28,66,68)         94.9248         estimate D2E/DX2                !
 ! D229  D(5,29,31,33)           0.176          estimate D2E/DX2                !
 ! D230  D(5,29,31,69)        -148.7545         estimate D2E/DX2                !
 ! D231  D(27,29,31,33)        148.3342         estimate D2E/DX2                !
 ! D232  D(27,29,31,69)         -0.5963         estimate D2E/DX2                !
 ! D233  D(7,30,32,34)          -0.1747         estimate D2E/DX2                !
 ! D234  D(7,30,32,70)         148.7539         estimate D2E/DX2                !
 ! D235  D(28,30,32,34)       -148.3358         estimate D2E/DX2                !
 ! D236  D(28,30,32,70)          0.5929         estimate D2E/DX2                !
 ! D237  D(29,31,33,35)         -6.4535         estimate D2E/DX2                !
 ! D238  D(29,31,33,73)       -155.7103         estimate D2E/DX2                !
 ! D239  D(69,31,33,35)        145.1776         estimate D2E/DX2                !
 ! D240  D(69,31,33,73)         -4.0792         estimate D2E/DX2                !
 ! D241  D(29,31,69,67)         33.8907         estimate D2E/DX2                !
 ! D242  D(29,31,69,71)        151.3322         estimate D2E/DX2                !
 ! D243  D(29,31,69,86)        -87.3107         estimate D2E/DX2                !
 ! D244  D(33,31,69,67)       -117.2963         estimate D2E/DX2                !
 ! D245  D(33,31,69,71)          0.1452         estimate D2E/DX2                !
 ! D246  D(33,31,69,86)        121.5023         estimate D2E/DX2                !
 ! D247  D(30,32,34,36)          6.4535         estimate D2E/DX2                !
 ! D248  D(30,32,34,74)        155.7096         estimate D2E/DX2                !
 ! D249  D(70,32,34,36)       -145.1758         estimate D2E/DX2                !
 ! D250  D(70,32,34,74)          4.0803         estimate D2E/DX2                !
 ! D251  D(30,32,70,68)        -33.8869         estimate D2E/DX2                !
 ! D252  D(30,32,70,72)       -151.3377         estimate D2E/DX2                !
 ! D253  D(30,32,70,87)         87.3097         estimate D2E/DX2                !
 ! D254  D(34,32,70,68)        117.2987         estimate D2E/DX2                !
 ! D255  D(34,32,70,72)         -0.1521         estimate D2E/DX2                !
 ! D256  D(34,32,70,87)       -121.5047         estimate D2E/DX2                !
 ! D257  D(31,33,35,9)           8.4336         estimate D2E/DX2                !
 ! D258  D(31,33,35,37)       -146.241          estimate D2E/DX2                !
 ! D259  D(73,33,35,9)         153.0715         estimate D2E/DX2                !
 ! D260  D(73,33,35,37)         -1.6031         estimate D2E/DX2                !
 ! D261  D(31,33,73,71)          6.5398         estimate D2E/DX2                !
 ! D262  D(31,33,73,75)        152.5936         estimate D2E/DX2                !
 ! D263  D(35,33,73,71)       -142.8648         estimate D2E/DX2                !
 ! D264  D(35,33,73,75)          3.1889         estimate D2E/DX2                !
 ! D265  D(32,34,36,12)         -8.4348         estimate D2E/DX2                !
 ! D266  D(32,34,36,38)        146.2399         estimate D2E/DX2                !
 ! D267  D(74,34,36,12)       -153.0718         estimate D2E/DX2                !
 ! D268  D(74,34,36,38)          1.603          estimate D2E/DX2                !
 ! D269  D(32,34,74,72)         -6.5343         estimate D2E/DX2                !
 ! D270  D(32,34,74,76)       -152.5882         estimate D2E/DX2                !
 ! D271  D(36,34,74,72)        142.8689         estimate D2E/DX2                !
 ! D272  D(36,34,74,76)         -3.1851         estimate D2E/DX2                !
 ! D273  D(9,35,37,39)          -2.0239         estimate D2E/DX2                !
 ! D274  D(9,35,37,77)        -155.2718         estimate D2E/DX2                !
 ! D275  D(33,35,37,39)        151.7006         estimate D2E/DX2                !
 ! D276  D(33,35,37,77)         -1.5472         estimate D2E/DX2                !
 ! D277  D(12,36,38,42)          2.0238         estimate D2E/DX2                !
 ! D278  D(12,36,38,78)        155.2708         estimate D2E/DX2                !
 ! D279  D(34,36,38,42)       -151.7014         estimate D2E/DX2                !
 ! D280  D(34,36,38,78)          1.5456         estimate D2E/DX2                !
 ! D281  D(35,37,39,43)          4.5644         estimate D2E/DX2                !
 ! D282  D(35,37,39,79)       -147.1016         estimate D2E/DX2                !
 ! D283  D(77,37,39,43)        157.9894         estimate D2E/DX2                !
 ! D284  D(77,37,39,79)          6.3235         estimate D2E/DX2                !
 ! D285  D(35,37,77,75)          3.1872         estimate D2E/DX2                !
 ! D286  D(35,37,77,81)        143.1351         estimate D2E/DX2                !
 ! D287  D(39,37,77,75)       -150.5635         estimate D2E/DX2                !
 ! D288  D(39,37,77,81)        -10.6156         estimate D2E/DX2                !
 ! D289  D(36,38,42,46)         -4.565          estimate D2E/DX2                !
 ! D290  D(36,38,42,80)        147.1004         estimate D2E/DX2                !
 ! D291  D(78,38,42,46)       -157.9889         estimate D2E/DX2                !
 ! D292  D(78,38,42,80)         -6.3235         estimate D2E/DX2                !
 ! D293  D(36,38,78,76)         -3.1875         estimate D2E/DX2                !
 ! D294  D(36,38,78,81)       -143.1344         estimate D2E/DX2                !
 ! D295  D(42,38,78,76)        150.5624         estimate D2E/DX2                !
 ! D296  D(42,38,78,81)         10.6155         estimate D2E/DX2                !
 ! D297  D(37,39,43,2)        -147.2906         estimate D2E/DX2                !
 ! D298  D(37,39,43,13)         -2.577          estimate D2E/DX2                !
 ! D299  D(79,39,43,2)           5.8183         estimate D2E/DX2                !
 ! D300  D(79,39,43,13)        150.5319         estimate D2E/DX2                !
 ! D301  D(37,39,79,40)        140.7631         estimate D2E/DX2                !
 ! D302  D(37,39,79,82)          0.9266         estimate D2E/DX2                !
 ! D303  D(43,39,79,40)        -12.2121         estimate D2E/DX2                !
 ! D304  D(43,39,79,82)       -152.0486         estimate D2E/DX2                !
 ! D305  D(44,40,41,45)          0.0034         estimate D2E/DX2                !
 ! D306  D(44,40,41,80)       -148.8251         estimate D2E/DX2                !
 ! D307  D(79,40,41,45)        148.8244         estimate D2E/DX2                !
 ! D308  D(79,40,41,80)         -0.004          estimate D2E/DX2                !
 ! D309  D(41,40,44,2)         150.2592         estimate D2E/DX2                !
 ! D310  D(41,40,44,47)         -2.7807         estimate D2E/DX2                !
 ! D311  D(79,40,44,2)           5.7825         estimate D2E/DX2                !
 ! D312  D(79,40,44,47)       -147.2574         estimate D2E/DX2                !
 ! D313  D(41,40,79,39)       -141.7222         estimate D2E/DX2                !
 ! D314  D(41,40,79,82)          2.7444         estimate D2E/DX2                !
 ! D315  D(44,40,79,39)          6.6281         estimate D2E/DX2                !
 ! D316  D(44,40,79,82)        151.0947         estimate D2E/DX2                !
 ! D317  D(40,41,45,4)        -150.2629         estimate D2E/DX2                !
 ! D318  D(40,41,45,48)          2.7762         estimate D2E/DX2                !
 ! D319  D(80,41,45,4)          -5.7787         estimate D2E/DX2                !
 ! D320  D(80,41,45,48)        147.2605         estimate D2E/DX2                !
 ! D321  D(40,41,80,42)        141.7286         estimate D2E/DX2                !
 ! D322  D(40,41,80,82)         -2.7379         estimate D2E/DX2                !
 ! D323  D(45,41,80,42)         -6.6313         estimate D2E/DX2                !
 ! D324  D(45,41,80,82)       -151.0979         estimate D2E/DX2                !
 ! D325  D(38,42,46,4)         147.2914         estimate D2E/DX2                !
 ! D326  D(38,42,46,14)          2.5774         estimate D2E/DX2                !
 ! D327  D(80,42,46,4)          -5.8172         estimate D2E/DX2                !
 ! D328  D(80,42,46,14)       -150.5313         estimate D2E/DX2                !
 ! D329  D(38,42,80,41)       -140.7623         estimate D2E/DX2                !
 ! D330  D(38,42,80,82)         -0.9252         estimate D2E/DX2                !
 ! D331  D(46,42,80,41)         12.2126         estimate D2E/DX2                !
 ! D332  D(46,42,80,82)        152.0497         estimate D2E/DX2                !
 ! D333  D(2,44,47,48)        -148.8415         estimate D2E/DX2                !
 ! D334  D(2,44,47,49)           5.0015         estimate D2E/DX2                !
 ! D335  D(40,44,47,48)          2.7429         estimate D2E/DX2                !
 ! D336  D(40,44,47,49)        156.5859         estimate D2E/DX2                !
[...]
 Alpha virt. eigenvalues --    1.24012   1.24522   1.24862   1.24961   1.25040
 Alpha virt. eigenvalues --    1.25562   1.25622   1.26107   1.26415   1.26837
 Alpha virt. eigenvalues --    1.26857   1.26897   1.27125   1.27331   1.27852
 Alpha virt. eigenvalues --    1.28060   1.28496   1.29038   1.29127   1.29677
 Alpha virt. eigenvalues --    1.29930   1.30565   1.30818   1.31270   1.31547
 Alpha virt. eigenvalues --    1.31681   1.31721   1.31954   1.32150   1.32236
 Alpha virt. eigenvalues --    1.32764   1.33242   1.33376   1.33763   1.34435
 Alpha virt. eigenvalues --    1.34453   1.34702   1.35041   1.35364   1.35964
 Alpha virt. eigenvalues --    1.36325   1.36895   1.37497   1.38727   1.39065
 Alpha virt. eigenvalues --    1.39769   1.40300   1.40521   1.40921   1.41435
 Alpha virt. eigenvalues --    1.41739   1.42321   1.43185   1.43555   1.44407
 Alpha virt. eigenvalues --    1.44488   1.44741   1.45305   1.45423   1.46780
 Alpha virt. eigenvalues --    1.46993   1.47870   1.48313   1.48657   1.48848
 Alpha virt. eigenvalues --    1.50781   1.50799   1.51214   1.51626   1.52392
 Alpha virt. eigenvalues --    1.53024   1.53436   1.53459   1.54214   1.54420
 Alpha virt. eigenvalues --    1.54692   1.54830   1.55615   1.56044   1.56099
 Alpha virt. eigenvalues --    1.56622   1.57028   1.57460   1.57611   1.58039
 Alpha virt. eigenvalues --    1.58778   1.59798   1.59936   1.60017   1.61001
 Alpha virt. eigenvalues --    1.61842   1.62265   1.63311   1.63865   1.64169
 Alpha virt. eigenvalues --    1.64573   1.64592   1.64778   1.65074   1.65366
 Alpha virt. eigenvalues --    1.65542   1.65564   1.65572   1.66147   1.66593
 Alpha virt. eigenvalues --    1.66644   1.66856   1.67236   1.67646   1.68019
 Alpha virt. eigenvalues --    1.68204   1.69074   1.69174   1.69325   1.69339
 Alpha virt. eigenvalues --    1.69812   1.69997   1.70020   1.70279   1.70346
 Alpha virt. eigenvalues --    1.70463   1.70718   1.70956   1.71171   1.71399
 Alpha virt. eigenvalues --    1.71837   1.71861   1.72042   1.72327   1.72523
 Alpha virt. eigenvalues --    1.72764   1.73281   1.73381   1.73791   1.73966
 Alpha virt. eigenvalues --    1.74257   1.74569   1.74804   1.75029   1.75306
 Alpha virt. eigenvalues --    1.75517   1.75684   1.75853   1.76011   1.76310
 Alpha virt. eigenvalues --    1.76608   1.76705   1.77350   1.77841   1.77972
 Alpha virt. eigenvalues --    1.78086   1.78141   1.78368   1.78527   1.79375
 Alpha virt. eigenvalues --    1.79456   1.79767   1.79920   1.79985   1.80503
 Alpha virt. eigenvalues --    1.80726   1.81049   1.81226   1.81492   1.82620
 Alpha virt. eigenvalues --    1.83077   1.83512   1.83992   1.84488   1.84664
 Alpha virt. eigenvalues --    1.85533   1.85962   1.86172   1.86801   1.87034
 Alpha virt. eigenvalues --    1.87054   1.87906   1.88642   1.89231   1.89235
 Alpha virt. eigenvalues --    1.89458   1.89752   1.90497   1.90757   1.91751
 Alpha virt. eigenvalues --    1.92187   1.92574   1.92741   1.93573   1.94180
 Alpha virt. eigenvalues --    1.94265   1.94411   1.94750   1.95135   1.95269
 Alpha virt. eigenvalues --    1.95469   1.95815   1.95981   1.96167   1.96884
 Alpha virt. eigenvalues --    1.96920   1.97229   1.97565   1.97715   1.97746
 Alpha virt. eigenvalues --    1.98587   1.98912   1.98920   1.99027   1.99210
 Alpha virt. eigenvalues --    1.99452   1.99656   2.00005   2.00091   2.00362
 Alpha virt. eigenvalues --    2.00498   2.00593   2.00750   2.00919   2.01401
 Alpha virt. eigenvalues --    2.01405   2.01672   2.01864   2.02370   2.02448
 Alpha virt. eigenvalues --    2.02823   2.03054   2.03058   2.03194   2.04071
 Alpha virt. eigenvalues --    2.04197   2.04362   2.04439   2.04520   2.04952
 Alpha virt. eigenvalues --    2.04976   2.05482   2.05947   2.06322   2.06753
 Alpha virt. eigenvalues --    2.07118   2.07537   2.08683   2.09064   2.09773
 Alpha virt. eigenvalues --    2.10017   2.10449   2.10719   2.10818   2.11643
 Alpha virt. eigenvalues --    2.12039   2.12308   2.12727   2.13317   2.13502
 Alpha virt. eigenvalues --    2.13520   2.13913   2.14577   2.14927   2.16049
 Alpha virt. eigenvalues --    2.16933   2.17381   2.17472   2.17878   2.18541
 Alpha virt. eigenvalues --    2.18921   2.19322   2.19877   2.19945   2.20524
 Alpha virt. eigenvalues --    2.20848   2.21069   2.21706   2.21833   2.22321
 Alpha virt. eigenvalues --    2.23014   2.23097   2.24090   2.24123   2.24334
 Alpha virt. eigenvalues --    2.24612   2.25248   2.25692   2.25731   2.26276
 Alpha virt. eigenvalues --    2.26635   2.27174   2.27818   2.28095   2.28305
 Alpha virt. eigenvalues --    2.28685   2.29144   2.29552   2.29574   2.30326
 Alpha virt. eigenvalues --    2.30773   2.30972   2.31229   2.31285   2.31514
 Alpha virt. eigenvalues --    2.31994   2.32600   2.32956   2.33435   2.34513
 Alpha virt. eigenvalues --    2.35148   2.36010   2.36235   2.37638   2.37932
 Alpha virt. eigenvalues --    2.38978   2.39155   2.39467   2.39885   2.40618
 Alpha virt. eigenvalues --    2.40870   2.41365   2.41615   2.42121   2.43027
 Alpha virt. eigenvalues --    2.43214   2.43276   2.44127   2.44298   2.44606
 Alpha virt. eigenvalues --    2.44877   2.45773   2.45993   2.46659   2.47859
 Alpha virt. eigenvalues --    2.47973   2.48478   2.49188   2.49221   2.49984
 Alpha virt. eigenvalues --    2.51093   2.52028   2.52223   2.52452   2.52817
 Alpha virt. eigenvalues --    2.53286   2.53785   2.54159   2.54571   2.54810
 Alpha virt. eigenvalues --    2.55011   2.55586   2.56107   2.56125   2.56358
 Alpha virt. eigenvalues --    2.56400   2.56628   2.56782   2.57528   2.57910
 Alpha virt. eigenvalues --    2.58235   2.58463   2.58893   2.58995   2.59481
 Alpha virt. eigenvalues --    2.59485   2.59953   2.59982   2.60785   2.60930
 Alpha virt. eigenvalues --    2.61468   2.61696   2.61885   2.62155   2.62429
 Alpha virt. eigenvalues --    2.63111   2.63193   2.64386   2.64500   2.64539
 Alpha virt. eigenvalues --    2.64631   2.64985   2.65320   2.65542   2.65993
 Alpha virt. eigenvalues --    2.66300   2.66873   2.67210   2.67903   2.68109
 Alpha virt. eigenvalues --    2.68202   2.68236   2.68294   2.68776   2.69527
 Alpha virt. eigenvalues --    2.70084   2.70566   2.70646   2.71444   2.71703
 Alpha virt. eigenvalues --    2.71787   2.72353   2.72895   2.73559   2.73796
 Alpha virt. eigenvalues --    2.74650   2.75412   2.75479   2.75745   2.76163
 Alpha virt. eigenvalues --    2.76742   2.76775   2.77603   2.78315   2.78655
 Alpha virt. eigenvalues --    2.78744   2.79573   2.79851   2.79985   2.80963
 Alpha virt. eigenvalues --    2.81358   2.81617   2.82131   2.82201   2.82535
 Alpha virt. eigenvalues --    2.82931   2.83267   2.83460   2.84513   2.85049
 Alpha virt. eigenvalues --    2.85185   2.85887   2.85975   2.87065   2.87703
 Alpha virt. eigenvalues --    2.87904   2.88224   2.89126   2.89127   2.89401
 Alpha virt. eigenvalues --    2.90230   2.90637   2.91152   2.91790   2.92235
 Alpha virt. eigenvalues --    2.92339   2.92823   2.93225   2.93232   2.93506
 Alpha virt. eigenvalues --    2.93962   2.94741   2.95284   2.95547   2.95588
 Alpha virt. eigenvalues --    2.96093   2.96501   2.96928   2.98803   2.99825
 Alpha virt. eigenvalues --    2.99913   3.00944   3.00972   3.03111   3.03916
 Alpha virt. eigenvalues --    3.05973   3.06217   3.08985   3.10298   3.11199
 Alpha virt. eigenvalues --    3.11466   3.12908   3.13557   3.16809   3.17185
 Alpha virt. eigenvalues --    3.19506   3.20210   3.20477   3.21467   3.23931
 Alpha virt. eigenvalues --    3.24067   3.25669   3.29447   3.30458   3.31351
 Alpha virt. eigenvalues --    3.32369   3.34022   3.36934   3.37340   3.38338
 Alpha virt. eigenvalues --    3.38582   3.42597   3.43385   3.45056   3.45598
 Alpha virt. eigenvalues --    3.48610   3.49621   3.52134   3.53786   3.56680
 Alpha virt. eigenvalues --    3.60483   3.64380   4.01276   4.01711   4.01814
 Alpha virt. eigenvalues --    4.02058   4.03257   4.03284   4.03817   4.05357
 Alpha virt. eigenvalues --    4.05627   4.05853   4.06390   4.07091   4.07401
 Alpha virt. eigenvalues --    4.07519   4.08543   4.09379   4.09781   4.10450
 Alpha virt. eigenvalues --    4.10994   4.11506   4.12120   4.12897   4.14192
 Alpha virt. eigenvalues --    4.16151   4.16292   4.16921   4.17266   4.18753
 Alpha virt. eigenvalues --    4.20287   4.20429   4.20914   4.22324   4.22423
 Alpha virt. eigenvalues --    4.22759   4.23805   4.24734   4.26449   4.27262
 Alpha virt. eigenvalues --    4.28378   4.28501   4.28686   4.29707   4.30511
 Alpha virt. eigenvalues --    4.30807   4.31836   4.34896   4.35561   4.36828
 Alpha virt. eigenvalues --    4.37412   4.39881   4.41049   4.41922   4.44254
 Alpha virt. eigenvalues --    4.46068   4.47158   4.48457   4.49027   4.49821
 Alpha virt. eigenvalues --    4.51578   4.53264   4.53730   4.57200   4.58837
 Alpha virt. eigenvalues --    4.59419   4.61057   4.61614   4.63872   4.64776
 Alpha virt. eigenvalues --    4.67480   4.67524   4.71220   4.74758   4.78076
 Alpha virt. eigenvalues --    4.81004   4.82095   4.83671   4.87427   4.90661
 Alpha virt. eigenvalues --    4.92747   4.96490   4.96818   5.01490   5.07260
 Alpha virt. eigenvalues --    5.12052   5.14726   5.18624   5.20640   5.29901
          Condensed to atoms (all electrons):
 Mulliken charges:
               1
     1  C    0.006285
     2  C   -0.023051
     3  C    0.006285
     4  C   -0.023051
     5  C    0.004566
     6  C   -0.018690
     7  C    0.004566
     8  C   -0.018690
     9  C    0.044526
    10  C    0.000124
    11  C    0.000124
    12  C    0.044526
    13  C   -0.026766
    14  C   -0.026766
    15  C   -0.021421
    16  C   -0.021421
    17  C    0.047677
    18  C    0.047677
    19  C    0.055666
    20  C    0.055666
    21  C   -0.018587
    22  C   -0.018588
    23  C    0.000001
    24  C    0.000000
    25  C    0.071404
    26  C    0.071405
    27  C   -0.355149
    28  C   -0.355149
    29  C    0.089081
    30  C    0.089080
    31  C    0.087270
    32  C    0.087271
    33  C    0.002189
    34  C    0.002187
    35  C    0.036108
    36  C    0.036108
    37  C    0.048844
    38  C    0.048844
    39  C    0.054624
    40  C   -0.029993
    41  C   -0.029993
    42  C    0.054624
    43  C   -0.031281
    44  C    0.054696
    45  C    0.054695
    46  C   -0.031280
    47  C    0.046873
    48  C    0.046874
    49  C   -0.023254
    50  C   -0.023254
    51  C   -0.011683
    52  C   -0.011683
    53  C   -0.022791
    54  C   -0.022791
    55  C   -0.020151
    56  C   -0.020151
    57  C   -0.020323
    58  C   -0.020322
    59  C   -0.007370
    60  C   -0.007370
    61  C   -0.036102
    62  C   -0.036101
    63  C    0.069098
    64  C    0.069096
    65  C    0.101128
    66  C    0.101130
    67  C    0.123441
    68  C    0.123439
    69  C   -0.369072
    70  C   -0.369073
    71  C    0.090031
    72  C    0.090035
    73  C    0.023722
    74  C    0.023723
    75  C   -0.016606
    76  C   -0.016607
    77  C   -0.024777
    78  C   -0.024777
    79  C   -0.022788
    80  C   -0.022788
    81  C   -0.002751
    82  C   -0.018501
    83  C    0.056660
    84  C    0.056659
    85  Cl  -0.005487
    86  Cl   0.001955
    87  Cl   0.001955
    88  Cl  -0.005488
 Sum of Mulliken charges =  -0.00000
 Mulliken charges with hydrogens summed into heavy atoms:
               1
     1  C    0.006285
     2  C   -0.023051
     3  C    0.006285
     4  C   -0.023051
     5  C    0.004566
     6  C   -0.018690
     7  C    0.004566
     8  C   -0.018690
     9  C    0.044526
    10  C    0.000124
    11  C    0.000124
    12  C    0.044526
    13  C   -0.026766
    14  C   -0.026766
    15  C   -0.021421
    16  C   -0.021421
    17  C    0.047677
    18  C    0.047677
    19  C    0.055666
    20  C    0.055666
    21  C   -0.018587
    22  C   -0.018588
    23  C    0.000001
    24  C    0.000000
    25  C    0.071404
    26  C    0.071405
    27  C   -0.355149
    28  C   -0.355149
    29  C    0.089081
    30  C    0.089080
    31  C    0.087270
    32  C    0.087271
    33  C    0.002189
    34  C    0.002187
    35  C    0.036108
    36  C    0.036108
    37  C    0.048844
    38  C    0.048844
    39  C    0.054624
    40  C   -0.029993
    41  C   -0.029993
    42  C    0.054624
    43  C   -0.031281
    44  C    0.054696
    45  C    0.054695
    46  C   -0.031280
    47  C    0.046873
    48  C    0.046874
    49  C   -0.023254
    50  C   -0.023254
    51  C   -0.011683
    52  C   -0.011683
    53  C   -0.022791
    54  C   -0.022791
    55  C   -0.020151
    56  C   -0.020151
    57  C   -0.020323
    58  C   -0.020322
    59  C   -0.007370
    60  C   -0.007370
    61  C   -0.036102
    62  C   -0.036101
    63  C    0.069098
    64  C    0.069096
    65  C    0.101128
    66  C    0.101130
    67  C    0.123441
    68  C    0.123439
    69  C   -0.369072
    70  C   -0.369073
    71  C    0.090031
    72  C    0.090035
    73  C    0.023722
    74  C    0.023723
    75  C   -0.016606
    76  C   -0.016607
    77  C   -0.024777
    78  C   -0.024777
    79  C   -0.022788
    80  C   -0.022788
    81  C   -0.002751
    82  C   -0.018501
    83  C    0.056660
    84  C    0.056659
    85  Cl  -0.005487
    86  Cl   0.001955
    87  Cl   0.001955
    88  Cl  -0.005488
 Electronic spatial extent (au):  <R**2>=          41728.0519
 Charge=             -0.0000 electrons
 Dipole moment (field-independent basis, Debye):
    X=              5.3692    Y=             -0.0000    Z=              1.5400  Tot=              5.5857
 Quadrupole moment (field-independent basis, Debye-Ang):
   XX=           -528.5820   YY=           -509.7550   ZZ=           -502.0979
   XY=             -0.0000   XZ=             -8.7328   YZ=             -0.0000
 Traceless Quadrupole moment (field-independent basis, Debye-Ang):
   XX=            -15.1037   YY=              3.7233   ZZ=             11.3804
   XY=             -0.0000   XZ=             -8.7328   YZ=             -0.0000
 Octapole moment (field-independent basis, Debye-Ang**2):
  XXX=             15.5322  YYY=             -0.0000  ZZZ=            -17.4199  XYY=              6.8064
  XXY=             -0.0001  XXZ=             -0.1144  XZZ=            -34.2339  YZZ=             -0.0000
  YYZ=             18.4254  XYZ=             -0.0000
 Hexadecapole moment (field-independent basis, Debye-Ang**3):
 XXXX=         -24212.2209 YYYY=         -19537.5897 ZZZZ=         -17545.6914 XXXY=              0.0009
 XXXZ=             71.0745 YYYX=             -0.0003 YYYZ=             -0.0005 ZZZX=              8.4341
 ZZZY=             -0.0002 XXYY=          -7395.5604 XXZZ=          -6912.3675 YYZZ=          -6213.6235
 XXYZ=              0.0002 YYXZ=            -68.7174 ZZXY=             -0.0000
 N-N= 1.719633555422D+04 E-N=-4.617172153893D+04  KE= 5.006221031288D+03
 No NMR shielding tensors so no spin-rotation constants.
 Leave Link  601 at Wed Jun 29 08:49:39 2022, MaxMem=  1342177280 cpu:              22.6 elap:               1.2
 (Enter /home/mkliu/g16/l9999.exe)
 1\1\GINC-NODE03\FOpt\RB3LYP\6-31G(d,p)\C84Cl4\MKLIU\29-Jun-2022\0\\#P 
 opt b3lyp/6-31G(d, p) empiricaldispersion=GD3\\force\\0,1\C,8.28835827
 61,18.8673753939,10.5437047473\C,12.3276740606,20.1429896108,8.9537969
 532\C,8.2858523832,26.8837167596,10.5433841708\C,12.3259650274,25.6104
 995215,8.9535784077\C,7.9702032129,18.9290632719,9.1513145186\C,11.895
 1954446,19.5611446855,10.2010755626\C,7.9677357364,26.8217187765,9.150
 9987007\C,11.8931226262,26.1921737339,10.2008103913\C,8.9819128942,19.
 0820070013,8.1567611242\C,12.1565028903,20.2126547708,11.378965269\C,1
 2.1548372585,25.5409214486,11.3787520348\C,8.9795410864,26.6693276452,
 8.1564577044\C,10.3154862906,19.0018619188,8.6204719197\C,10.313064193
 5,26.7503426481,8.6201620958\C,10.6325627702,18.8837723331,10.00181619
 57\C,10.6300668038,26.8687407556,10.0014968514\C,9.6291937197,18.91221
 60011,11.0107487501\C,9.6267157652,26.839751042,11.0104316721\C,9.9058
 798405,19.6007567132,12.2706010409\C,9.9038322407,26.1514840754,12.270
 3390889\C,8.8223811666,20.2093232504,12.9595191121\C,8.8207144022,25.5
 422958019,12.959306478\C,7.4838497646,20.1805158967,12.4063297581\C,7.
 4821654897,25.5702217611,12.4061143989\C,7.2234121766,19.4990287363,11
 .2638243251\C,7.2213018401,26.2514545468,11.2635543692\C,6.1022579045,
 19.9258493777,10.3368405759\C,6.1004144221,25.823858655,10.3366052333\
 C,6.6780317609,19.5240714977,9.00043625\C,6.6759360613,26.2258909747,9
 .0001683057\C,6.3777213305,20.1962743416,7.8691716293\C,6.3760473872,2
 5.5534078223,7.8689582242\C,7.3503960539,20.3123519129,6.8190910038\C,
 7.3487947173,25.4378537402,6.8188874082\C,8.6841831843,19.845410423,6.
 9566138847\C,8.6822891748,25.9056411083,6.9563721629\C,9.7525030536,20
 .5760426513,6.2709974689\C,9.7510654309,25.1756217019,6.270813867\C,11
 .1040187533,20.5590633099,6.8361038284\C,12.8059477571,22.1471520585,7
 .7270540771\C,12.8054928938,23.6065393026,7.7269940232\C,11.1025702476
 ,25.1934915871,6.8359184456\C,11.3716815975,19.7604916735,7.9643611756
 \C,12.967196295,21.4166748183,8.9221393446\C,12.9662830996,24.33721182
 24,8.9220222374\C,11.3697335713,25.9923206451,7.964112079\C,13.2051334
 371,22.1439825968,10.1741468283\C,13.2046748609,23.6101531774,10.17408
 79261\C,12.8665840572,21.4789826017,11.3762232729\C,12.8657100316,24.2
 750375803,11.3761111011\C,12.4067910343,22.1897470457,12.5317135747\C,
 12.4063616524,23.5640783158,12.5316583467\C,11.17577556,20.2191808607,
 12.4504602196\C,11.1741142511,25.5338681221,12.4502476538\C,11.3199221
 065,21.4487738193,13.1556319858\C,11.3190295604,24.3044218264,13.15551
 7346\C,8.9684633058,21.4464097454,13.6540775007\C,8.9675699257,24.3053
 559406,13.6539630292\C,7.7163227395,22.1797654054,13.5087925956\C,7.71
 58886237,23.5712057233,13.5087352421\C,6.8502510031,21.471494047,12.65
 14208448\C,6.8493744301,24.2788670085,12.6513075795\C,6.1411112379,22.
 1501558085,11.6107342703\C,6.1406599212,23.5996787623,11.6106741125\C,
 5.8497497981,21.4487732746,10.3870529869\C,5.8488583986,24.300781274,1
 0.3869385516\C,5.5591225741,22.1529251362,9.2176521219\C,5.5586701167,
 23.596353712,9.2175940183\C,5.4336507701,21.3871256364,7.881065551\C,5
 .4327226961,24.3619666695,7.8809477994\C,5.9676078363,22.1951511931,6.
 7201771646\C,5.96718919,23.5541796548,6.7201319774\C,7.0323616381,21.4
 82511709,6.0659972149\C,7.0314926941,24.2674333695,6.0658895467\C,8.04
 15334786,22.1532153537,5.3876252634\C,8.0410824876,23.5973078184,5.387
 568792\C,9.3927505532,21.6902635057,5.4750590206\C,9.392009645,24.0611
 119482,5.4749650571\C,11.9495438412,21.7004088685,6.6800159048\C,11.94
 88091383,24.0526627609,6.6799208482\C,10.2335994595,22.8759484028,5.41
 52009595\C,11.4709528661,22.8763589063,6.0008344152\C,10.206509605,22.
 1368423514,13.7111200456\C,10.2060474881,23.6157017721,13.7110603976\C
 l,4.5409138899,19.0235983751,10.7499822513\Cl,3.6718726435,20.90148856
 63,7.6120265575\Cl,3.6706417984,24.8464806553,7.6118619744\Cl,4.538506
 1519,26.7251644536,10.7496772328\\Version=ES64L-G16RevA.03\State=1-A\H
 F=-5041.8247486\RMSD=2.378e-09\RMSF=8.695e-05\Dipole=2.1974366,0.00069
 18,0.0258391\Quadrupole=-13.1773386,2.768184,10.4091546,-0.0049936,0.0
 100086,0.0002979\PG=C01 [X(C84Cl4)]\\@


 ... I FELL INTO A REVERIE ... THE ATOMS WERE GAMBOLING BEFORE MY EYES
 ... I SAW HOW TWO SMALL ONES UNITED TO FORM A PAIR;
 HOW THE LARGER ONES SEIZED TWO OF THE SMALLER ONES;
 HOW STILL LARGER ONES KEPT HOLD OF THREE OR FOUR
 SMALLER ONES ... I SAW HOW THE LARGER ONES FORMED A CHAIN ...
 THIS WAS THE ORIGIN OF THE STRUCTURE THEORY.

                                   -- C.F.KEKULE VON STRADONITZ
 Job cpu time:       1 days  0 hours 22 minutes 56.6 seconds.
 Elapsed time:       0 days  1 hours  1 minutes  2.9 seconds.
 File lengths (MBytes):  RWF=   1098 Int=      0 D2E=      0 Chk=    138 Scr=      1
 Normal termination of Gaussian 16 at Wed Jun 29 08:49:40 2022.
