 Entering Gaussian System, Link 0=g16
 Input=4_addons_C84_14_Cl22_rank_2.gjf
 Output=4_addons_C84_14_Cl22_rank_2.log
 Initial command:
 /home/mkliu/g16/l1.exe "/data/scratch/Gau-60833.inp" -scrdir="/data/scratch/"
 Entering Link 1 = /home/mkliu/g16/l1.exe PID=     60834.
  
 Copyright (c) 1988,1990,1992,1993,1995,1998,2003,2009,2016,
            Gaussian, Inc.  All Rights Reserved.
  
 This is part of the Gaussian(R) 16 program.  It is based on
 the Gaussian(R) 09 system (copyright 2009, Gaussian, Inc.),
 the Gaussian(R) 03 system (copyright 2003, Gaussian, Inc.),
 the Gaussian(R) 98 system (copyright 1998, Gaussian, Inc.),
 the Gaussian(R) 94 system (copyright 1995, Gaussian, Inc.),
 the Gaussian 92(TM) system (copyright 1992, Gaussian, Inc.),
 the Gaussian 90(TM) system (copyright 1990, Gaussian, Inc.),
 the Gaussian 88(TM) system (copyright 1988, Gaussian, Inc.),
 the Gaussian 86(TM) system (copyright 1986, Carnegie Mellon
 University), and the Gaussian 82(TM) system (copyright 1983,
 Carnegie Mellon University). Gaussian is a federally registered
 trademark of Gaussian, Inc.
  
 This software contains proprietary and confidential information,
 including trade secrets, belonging to Gaussian, Inc.
  
 This software is provided under written license and may be
 used, copied, transmitted, or stored only in accord with that
 written license.
  
 The following legend is applicable only to US Government
 contracts under FAR:
  
                    RESTRICTED RIGHTS LEGEND
  
 Use, reproduction and disclosure by the US Government is
 subject to restrictions as set forth in subparagraphs (a)
 and (c) of the Commercial Computer Software - Restricted
 Rights clause in FAR 52.227-19.
  
 Gaussian, Inc.
 340 Quinnipiac St., Bldg. 40, Wallingford CT 06492
  
  
 ---------------------------------------------------------------
 Warning -- This program may not be used in any manner that
 competes with the business of Gaussian, Inc. or will provide
 assistance to any competitor of Gaussian, Inc.  The licensee
 of this program is prohibited from giving any competitor of
 Gaussian, Inc. access to this program.  By using this program,
 the user acknowledges that Gaussian, Inc. is engaged in the
 business of creating and licensing software in the field of
 computational chemistry and represents and warrants to the
 licensee that it is not a competitor of Gaussian, Inc. and that
 it will not use this program in any manner prohibited above.
 ---------------------------------------------------------------
  

 Cite this work as:
 Gaussian 16, Revision A.03,
 M. J. Frisch, G. W. Trucks, H. B. Schlegel, G. E. Scuseria, 
 M. A. Robb, J. R. Cheeseman, G. Scalmani, V. Barone, 
 G. A. Petersson, H. Nakatsuji, X. Li, M. Caricato, A. V. Marenich, 
 J. Bloino, B. G. Janesko, R. Gomperts, B. Mennucci, H. P. Hratchian, 
 J. V. Ortiz, A. F. Izmaylov, J. L. Sonnenberg, D. Williams-Young, 
 F. Ding, F. Lipparini, F. Egidi, J. Goings, B. Peng, A. Petrone, 
 T. Henderson, D. Ranasinghe, V. G. Zakrzewski, J. Gao, N. Rega, 
 G. Zheng, W. Liang, M. Hada, M. Ehara, K. Toyota, R. Fukuda, 
 J. Hasegawa, M. Ishida, T. Nakajima, Y. Honda, O. Kitao, H. Nakai, 
 T. Vreven, K. Throssell, J. A. Montgomery, Jr., J. E. Peralta, 
 F. Ogliaro, M. J. Bearpark, J. J. Heyd, E. N. Brothers, K. N. Kudin, 
 V. N. Staroverov, T. A. Keith, R. Kobayashi, J. Normand, 
 K. Raghavachari, A. P. Rendell, J. C. Burant, S. S. Iyengar, 
 J. Tomasi, M. Cossi, J. M. Millam, M. Klene, C. Adamo, R. Cammi, 
 J. W. Ochterski, R. L. Martin, K. Morokuma, O. Farkas, 
 J. B. Foresman, and D. J. Fox, Gaussian, Inc., Wallingford CT, 2016.
 
 ******************************************
 Gaussian 16:  ES64L-G16RevA.03 25-Dec-2016
                28-Jun-2022 
 ******************************************
 %mem=10GB
 %chk=4_addons_C84_14_Cl22_rank_2.chk
 %nprocshared=24
 Will use up to   24 processors via shared memory.
 ------------------------------------------------
 #P opt b3lyp/6-31G(d, p) empiricaldispersion=GD3
 ------------------------------------------------
 1/18=20,19=15,26=3,38=1/1,3;
 2/9=110,12=2,17=6,18=5,40=1/2;
 3/5=1,6=6,7=101,11=2,25=1,30=1,71=1,74=-5,124=31/1,2,3;
 4//1;
 5/5=2,38=5/2;
 6/7=2,8=2,9=2,10=2,28=1/1;
 7//1,2,3,16;
 1/18=20,19=15,26=3/3(2);
 2/9=110/2;
 99//99;
 2/9=110/2;
 3/5=1,6=6,7=101,11=2,25=1,30=1,71=1,74=-5,124=31/1,2,3;
 4/5=5,16=3,69=1/1;
 5/5=2,38=5/2;
 7//1,2,3,16;
 1/18=20,19=15,26=3/3(-5);
 2/9=110/2;
 6/7=2,8=2,9=2,10=2,19=2,28=1/1;
 99/9=1/99;
 Leave Link    1 at Tue Jun 28 05:45:52 2022, MaxMem=  1342177280 cpu:               0.6 elap:               0.0
 (Enter /home/mkliu/g16/l101.exe)
 -----
 force
 -----
 Symbolic Z-matrix:
 Charge =  0 Multiplicity = 1
 C                     8.29685   18.91688   10.53498 
 C                     12.30409   20.17788   8.9567 
 C                     8.28317   26.87426   10.52434 
 C                     12.28706   25.58908   8.96108 
 C                     7.98368   18.97245   9.1511 
 C                     11.87679   19.59364   10.19427 
 C                     7.97741   26.82904   9.1362 
 C                     11.8559   26.16793   10.19665 
 C                     8.98172   19.12367   8.1586 
 C                     12.1436   20.23883   11.37134 
 C                     12.12514   25.52283   11.37331 
 C                     8.97002   26.66542   8.1434 
 C                     10.30731   19.04286   8.6209 
 C                     10.29397   26.72942   8.61753 
 C                     10.62098   18.92561   9.99495 
 C                     10.59979   26.83715   9.99719 
 C                     9.62765   18.95509   10.99962 
 C                     9.6051    26.8114   11.00085 
 C                     9.90217   19.63872   12.23716 
 C                     9.88283   26.11543   12.25069 
 C                     8.82273   20.25175   12.91227 
 C                     8.82161   25.4996   12.94456 
 C                     7.48886   20.18823   12.40749 
 C                     7.48822   25.50061   12.39155 
 C                     7.22911   19.52875   11.25609 
 C                     7.22177   26.18382   11.218 
 C                     6.11927   19.95145   10.33779 
 C                     6.31939   25.63603   10.28684 
 C                     6.70083   19.56759   9.01262 
 C                     6.71289   26.16975   9.00236 
 C                     6.39969   20.23396   7.87845 
 C                     6.39778   25.51843   7.85953 
 C                     7.36269   20.33439   6.83148 
 C                     7.35159   25.43191   6.80817 
 C                     8.68877   19.87617   6.96812 
 C                     8.67762   25.89857   6.95484 
 C                     9.74496   20.59754   6.2883 
 C                     9.73544   25.16977   6.28561 
 C                     11.08197   20.58539   6.84642 
 C                     12.77177   22.16435   7.74469 
 C                     12.76681   23.60805   7.74561 
 C                     11.07204   25.18473   6.84635 
 C                     11.35214   19.79662   7.97439 
 C                     12.94219   21.44052   8.93412 
 C                     12.93212   24.32967   8.93628 
 C                     11.33738   25.97223   7.97525 
 C                     13.17905   22.15951   10.17223 
 C                     13.17361   23.61035   10.17273 
 C                     12.84892   21.49561   11.36571 
 C                     12.83881   24.272    11.36631 
 C                     12.39505   22.19599   12.52227 
 C                     12.39045   23.56829   12.52302 
 C                     11.16342   20.2486   12.42604 
 C                     11.14792   25.50928   12.43134 
 C                     11.3145   21.46553   13.13793 
 C                     11.31207   24.29404   13.14551 
 C                     8.9771    21.47232   13.62204 
 C                     8.98325   24.27438   13.64416 
 C                     7.74837   22.18139   13.53998 
 C                     7.75601   23.53853   13.5167 
 C                     6.69722   21.39824   12.80408 
 C                     6.86965   24.25782   12.6278 
 C                     6.18878   22.14483   11.57242 
 C                     6.18225   23.57385   11.59428 
 C                     5.92053   21.46503   10.39607 
 C                     5.88846   24.29051   10.38396 
 C                     5.61079   22.17732   9.19501 
 C                     5.591     23.56204   9.18849 
 C                     5.45388   21.4017   7.88614 
 C                     5.45662   24.34247   7.88107 
 C                     5.97178   22.19603   6.72162 
 C                     5.96988   23.55293   6.71543 
 C                     7.03406   21.49205   6.07469 
 C                     7.02735   24.26282   6.06365 
 C                     8.04023   22.16183   5.40157 
 C                     8.03743   23.59404   5.3965 
 C                     9.38644   21.70355   5.49752 
 C                     9.38063   24.05966   5.49687 
 C                     11.91957   21.71656   6.70308 
 C                     11.91325   24.05467   6.70335 
 C                     10.213    22.88254   5.43479 
 C                     11.44663   22.88612   6.02424 
 C                     10.21894   22.15213   13.69929 
 C                     10.221    23.59941   13.71126 
 Cl                    4.55029   19.14362   10.70172 
 Cl                    3.72258   20.92868   7.70776 
 Cl                    3.72914   24.8416   7.69592 
 Cl                    5.28097   21.00912   13.85813 
 
 ITRead=  0  0  0  0  0  0  0  0  0  0  0  0  0  0  0  0  0  0  0  0
 ITRead=  0  0  0  0  0  0  0  0  0  0  0  0  0  0  0  0  0  0  0  0
 ITRead=  0  0  0  0  0  0  0  0  0  0  0  0  0  0  0  0  0  0  0  0
 ITRead=  0  0  0  0  0  0  0  0  0  0  0  0  0  0  0  0  0  0  0  0
 ITRead=  0  0  0  0  0  0  0  0
 MicOpt= -1 -1 -1 -1 -1 -1 -1 -1 -1 -1 -1 -1 -1 -1 -1 -1 -1 -1 -1 -1
 MicOpt= -1 -1 -1 -1 -1 -1 -1 -1 -1 -1 -1 -1 -1 -1 -1 -1 -1 -1 -1 -1
 MicOpt= -1 -1 -1 -1 -1 -1 -1 -1 -1 -1 -1 -1 -1 -1 -1 -1 -1 -1 -1 -1
 MicOpt= -1 -1 -1 -1 -1 -1 -1 -1 -1 -1 -1 -1 -1 -1 -1 -1 -1 -1 -1 -1
 MicOpt= -1 -1 -1 -1 -1 -1 -1 -1
 NAtoms=     88 NQM=       88 NQMF=       0 NMMI=      0 NMMIF=      0
                NMic=       0 NMicF=      0.
                    Isotopes and Nuclear Properties:
 (Nuclear quadrupole moments (NQMom) in fm**2, nuclear magnetic moments (NMagM)
  in nuclear magnetons)

  Atom         1           2           3           4           5           6           7           8           9          10
 IAtWgt=          12          12          12          12          12          12          12          12          12          12
 AtmWgt=  12.0000000  12.0000000  12.0000000  12.0000000  12.0000000  12.0000000  12.0000000  12.0000000  12.0000000  12.0000000
 NucSpn=           0           0           0           0           0           0           0           0           0           0
 AtZEff=  -0.0000000  -0.0000000  -0.0000000  -0.0000000  -0.0000000  -0.0000000  -0.0000000  -0.0000000  -0.0000000  -0.0000000
 NQMom=    0.0000000   0.0000000   0.0000000   0.0000000   0.0000000   0.0000000   0.0000000   0.0000000   0.0000000   0.0000000
 NMagM=    0.0000000   0.0000000   0.0000000   0.0000000   0.0000000   0.0000000   0.0000000   0.0000000   0.0000000   0.0000000
 AtZNuc=   6.0000000   6.0000000   6.0000000   6.0000000   6.0000000   6.0000000   6.0000000   6.0000000   6.0000000   6.0000000

  Atom        11          12          13          14          15          16          17          18          19          20
 IAtWgt=          12          12          12          12          12          12          12          12          12          12
 AtmWgt=  12.0000000  12.0000000  12.0000000  12.0000000  12.0000000  12.0000000  12.0000000  12.0000000  12.0000000  12.0000000
 NucSpn=           0           0           0           0           0           0           0           0           0           0
 AtZEff=  -0.0000000  -0.0000000  -0.0000000  -0.0000000  -0.0000000  -0.0000000  -0.0000000  -0.0000000  -0.0000000  -0.0000000
 NQMom=    0.0000000   0.0000000   0.0000000   0.0000000   0.0000000   0.0000000   0.0000000   0.0000000   0.0000000   0.0000000
 NMagM=    0.0000000   0.0000000   0.0000000   0.0000000   0.0000000   0.0000000   0.0000000   0.0000000   0.0000000   0.0000000
 AtZNuc=   6.0000000   6.0000000   6.0000000   6.0000000   6.0000000   6.0000000   6.0000000   6.0000000   6.0000000   6.0000000

  Atom        21          22          23          24          25          26          27          28          29          30
 IAtWgt=          12          12          12          12          12          12          12          12          12          12
 AtmWgt=  12.0000000  12.0000000  12.0000000  12.0000000  12.0000000  12.0000000  12.0000000  12.0000000  12.0000000  12.0000000
 NucSpn=           0           0           0           0           0           0           0           0           0           0
 AtZEff=  -0.0000000  -0.0000000  -0.0000000  -0.0000000  -0.0000000  -0.0000000  -0.0000000  -0.0000000  -0.0000000  -0.0000000
 NQMom=    0.0000000   0.0000000   0.0000000   0.0000000   0.0000000   0.0000000   0.0000000   0.0000000   0.0000000   0.0000000
 NMagM=    0.0000000   0.0000000   0.0000000   0.0000000   0.0000000   0.0000000   0.0000000   0.0000000   0.0000000   0.0000000
 AtZNuc=   6.0000000   6.0000000   6.0000000   6.0000000   6.0000000   6.0000000   6.0000000   6.0000000   6.0000000   6.0000000

  Atom        31          32          33          34          35          36          37          38          39          40
 IAtWgt=          12          12          12          12          12          12          12          12          12          12
 AtmWgt=  12.0000000  12.0000000  12.0000000  12.0000000  12.0000000  12.0000000  12.0000000  12.0000000  12.0000000  12.0000000
 NucSpn=           0           0           0           0           0           0           0           0           0           0
 AtZEff=  -0.0000000  -0.0000000  -0.0000000  -0.0000000  -0.0000000  -0.0000000  -0.0000000  -0.0000000  -0.0000000  -0.0000000
 NQMom=    0.0000000   0.0000000   0.0000000   0.0000000   0.0000000   0.0000000   0.0000000   0.0000000   0.0000000   0.0000000
 NMagM=    0.0000000   0.0000000   0.0000000   0.0000000   0.0000000   0.0000000   0.0000000   0.0000000   0.0000000   0.0000000
 AtZNuc=   6.0000000   6.0000000   6.0000000   6.0000000   6.0000000   6.0000000   6.0000000   6.0000000   6.0000000   6.0000000

  Atom        41          42          43          44          45          46          47          48          49          50
 IAtWgt=          12          12          12          12          12          12          12          12          12          12
 AtmWgt=  12.0000000  12.0000000  12.0000000  12.0000000  12.0000000  12.0000000  12.0000000  12.0000000  12.0000000  12.0000000
 NucSpn=           0           0           0           0           0           0           0           0           0           0
 AtZEff=  -0.0000000  -0.0000000  -0.0000000  -0.0000000  -0.0000000  -0.0000000  -0.0000000  -0.0000000  -0.0000000  -0.0000000
 NQMom=    0.0000000   0.0000000   0.0000000   0.0000000   0.0000000   0.0000000   0.0000000   0.0000000   0.0000000   0.0000000
 NMagM=    0.0000000   0.0000000   0.0000000   0.0000000   0.0000000   0.0000000   0.0000000   0.0000000   0.0000000   0.0000000
 AtZNuc=   6.0000000   6.0000000   6.0000000   6.0000000   6.0000000   6.0000000   6.0000000   6.0000000   6.0000000   6.0000000

  Atom        51          52          53          54          55          56          57          58          59          60
 IAtWgt=          12          12          12          12          12          12          12          12          12          12
 AtmWgt=  12.0000000  12.0000000  12.0000000  12.0000000  12.0000000  12.0000000  12.0000000  12.0000000  12.0000000  12.0000000
 NucSpn=           0           0           0           0           0           0           0           0           0           0
 AtZEff=  -0.0000000  -0.0000000  -0.0000000  -0.0000000  -0.0000000  -0.0000000  -0.0000000  -0.0000000  -0.0000000  -0.0000000
 NQMom=    0.0000000   0.0000000   0.0000000   0.0000000   0.0000000   0.0000000   0.0000000   0.0000000   0.0000000   0.0000000
 NMagM=    0.0000000   0.0000000   0.0000000   0.0000000   0.0000000   0.0000000   0.0000000   0.0000000   0.0000000   0.0000000
 AtZNuc=   6.0000000   6.0000000   6.0000000   6.0000000   6.0000000   6.0000000   6.0000000   6.0000000   6.0000000   6.0000000

  Atom        61          62          63          64          65          66          67          68          69          70
 IAtWgt=          12          12          12          12          12          12          12          12          12          12
 AtmWgt=  12.0000000  12.0000000  12.0000000  12.0000000  12.0000000  12.0000000  12.0000000  12.0000000  12.0000000  12.0000000
 NucSpn=           0           0           0           0           0           0           0           0           0           0
 AtZEff=  -0.0000000  -0.0000000  -0.0000000  -0.0000000  -0.0000000  -0.0000000  -0.0000000  -0.0000000  -0.0000000  -0.0000000
 NQMom=    0.0000000   0.0000000   0.0000000   0.0000000   0.0000000   0.0000000   0.0000000   0.0000000   0.0000000   0.0000000
 NMagM=    0.0000000   0.0000000   0.0000000   0.0000000   0.0000000   0.0000000   0.0000000   0.0000000   0.0000000   0.0000000
 AtZNuc=   6.0000000   6.0000000   6.0000000   6.0000000   6.0000000   6.0000000   6.0000000   6.0000000   6.0000000   6.0000000

  Atom        71          72          73          74          75          76          77          78          79          80
 IAtWgt=          12          12          12          12          12          12          12          12          12          12
 AtmWgt=  12.0000000  12.0000000  12.0000000  12.0000000  12.0000000  12.0000000  12.0000000  12.0000000  12.0000000  12.0000000
 NucSpn=           0           0           0           0           0           0           0           0           0           0
 AtZEff=  -0.0000000  -0.0000000  -0.0000000  -0.0000000  -0.0000000  -0.0000000  -0.0000000  -0.0000000  -0.0000000  -0.0000000
 NQMom=    0.0000000   0.0000000   0.0000000   0.0000000   0.0000000   0.0000000   0.0000000   0.0000000   0.0000000   0.0000000
 NMagM=    0.0000000   0.0000000   0.0000000   0.0000000   0.0000000   0.0000000   0.0000000   0.0000000   0.0000000   0.0000000
 AtZNuc=   6.0000000   6.0000000   6.0000000   6.0000000   6.0000000   6.0000000   6.0000000   6.0000000   6.0000000   6.0000000

  Atom        81          82          83          84          85          86          87          88
 IAtWgt=          12          12          12          12          35          35          35          35
 AtmWgt=  12.0000000  12.0000000  12.0000000  12.0000000  34.9688527  34.9688527  34.9688527  34.9688527
 NucSpn=           0           0           0           0           3           3           3           3
 AtZEff=  -0.0000000  -0.0000000  -0.0000000  -0.0000000  -0.0000000  -0.0000000  -0.0000000  -0.0000000
 NQMom=    0.0000000   0.0000000   0.0000000   0.0000000  -8.1650000  -8.1650000  -8.1650000  -8.1650000
 NMagM=    0.0000000   0.0000000   0.0000000   0.0000000   0.8218740   0.8218740   0.8218740   0.8218740
 AtZNuc=   6.0000000   6.0000000   6.0000000   6.0000000  17.0000000  17.0000000  17.0000000  17.0000000
 Leave Link  101 at Tue Jun 28 05:45:52 2022, MaxMem=  1342177280 cpu:               6.6 elap:               0.3
 (Enter /home/mkliu/g16/l103.exe)

 GradGradGradGradGradGradGradGradGradGradGradGradGradGradGradGradGradGrad
 Berny optimization.
 Initialization pass.
                           ----------------------------
                           !    Initial Parameters    !
                           ! (Angstroms and Degrees)  !
 --------------------------                            --------------------------
 ! Name  Definition              Value          Derivative Info.                !
 --------------------------------------------------------------------------------
 ! R1    R(1,5)                  1.42           estimate D2E/DX2                !
 ! R2    R(1,17)                 1.4101         estimate D2E/DX2                !
 ! R3    R(1,25)                 1.4263         estimate D2E/DX2                !
 ! R4    R(2,6)                  1.4337         estimate D2E/DX2                !
 ! R5    R(2,43)                 1.42           estimate D2E/DX2                !
 ! R6    R(2,44)                 1.4149         estimate D2E/DX2                !
 ! R7    R(3,7)                  1.4221         estimate D2E/DX2                !
 ! R8    R(3,18)                 1.4066         estimate D2E/DX2                !
 ! R9    R(3,26)                 1.4438         estimate D2E/DX2                !
 ! R10   R(4,8)                  1.4309         estimate D2E/DX2                !
 ! R11   R(4,45)                 1.4152         estimate D2E/DX2                !
 ! R12   R(4,46)                 1.4215         estimate D2E/DX2                !
 ! R13   R(5,9)                  1.4156         estimate D2E/DX2                !
 ! R14   R(5,29)                 1.4209         estimate D2E/DX2                !
 ! R15   R(6,10)                 1.3686         estimate D2E/DX2                !
 ! R16   R(6,15)                 1.4363         estimate D2E/DX2                !
 ! R17   R(7,12)                 1.4134         estimate D2E/DX2                !
 ! R18   R(7,30)                 1.4323         estimate D2E/DX2                !
 ! R19   R(8,11)                 1.3686         estimate D2E/DX2                !
 ! R20   R(8,16)                 1.4372         estimate D2E/DX2                !
 ! R21   R(9,13)                 1.4062         estimate D2E/DX2                !
 ! R22   R(9,35)                 1.4385         estimate D2E/DX2                !
 ! R23   R(10,49)                1.4412         estimate D2E/DX2                !
 ! R24   R(10,53)                1.4399         estimate D2E/DX2                !
 ! R25   R(11,50)                1.4401         estimate D2E/DX2                !
 ! R26   R(11,54)                1.4403         estimate D2E/DX2                !
 ! R27   R(12,14)                1.4077         estimate D2E/DX2                !
 ! R28   R(12,36)                1.4444         estimate D2E/DX2                !
 ! R29   R(13,15)                1.4143         estimate D2E/DX2                !
 ! R30   R(13,43)                1.4415         estimate D2E/DX2                !
 ! R31   R(14,16)                1.4172         estimate D2E/DX2                !
 ! R32   R(14,46)                1.4403         estimate D2E/DX2                !
 ! R33   R(15,17)                1.4131         estimate D2E/DX2                !
 ! R34   R(16,18)                1.4133         estimate D2E/DX2                !
 ! R35   R(17,19)                1.4402         estimate D2E/DX2                !
 ! R36   R(18,20)                1.4573         estimate D2E/DX2                !
 ! R37   R(19,21)                1.4131         estimate D2E/DX2                !
 ! R38   R(19,53)                1.4136         estimate D2E/DX2                !
 ! R39   R(20,22)                1.4096         estimate D2E/DX2                !
 ! R40   R(20,54)                1.4144         estimate D2E/DX2                !
 ! R41   R(21,23)                1.4276         estimate D2E/DX2                !
 ! R42   R(21,57)                1.4204         estimate D2E/DX2                !
 ! R43   R(22,24)                1.4435         estimate D2E/DX2                !
 ! R44   R(22,58)                1.4201         estimate D2E/DX2                !
 ! R45   R(23,25)                1.3521         estimate D2E/DX2                !
 ! R46   R(23,61)                1.4994         estimate D2E/DX2                !
 ! R47   R(24,26)                1.3838         estimate D2E/DX2                !
 ! R48   R(24,62)                1.4082         estimate D2E/DX2                !
 ! R49   R(25,27)                1.5012         estimate D2E/DX2                !
 ! R50   R(26,28)                1.4076         estimate D2E/DX2                !
 ! R51   R(27,29)                1.4972         estimate D2E/DX2                !
 ! R52   R(27,65)                1.5277         estimate D2E/DX2                !
 ! R53   R(27,85)                1.8019         estimate D2E/DX2                !
 ! R54   R(28,30)                1.4455         estimate D2E/DX2                !
 ! R55   R(28,66)                1.4162         estimate D2E/DX2                !
 ! R56   R(29,31)                1.3495         estimate D2E/DX2                !
 ! R57   R(30,32)                1.3526         estimate D2E/DX2                !
 ! R58   R(31,33)                1.4261         estimate D2E/DX2                !
 ! R59   R(31,69)                1.5027         estimate D2E/DX2                !
 ! R60   R(32,34)                1.4222         estimate D2E/DX2                !
 ! R61   R(32,70)                1.5064         estimate D2E/DX2                !
 ! R62   R(33,35)                1.4097         estimate D2E/DX2                !
 ! R63   R(33,73)                1.4216         estimate D2E/DX2                !
 ! R64   R(34,36)                1.4134         estimate D2E/DX2                !
 ! R65   R(34,74)                1.4235         estimate D2E/DX2                !
 ! R66   R(35,37)                1.4485         estimate D2E/DX2                !
 ! R67   R(36,38)                1.4484         estimate D2E/DX2                !
 ! R68   R(37,39)                1.4489         estimate D2E/DX2                !
 ! R69   R(37,77)                1.4061         estimate D2E/DX2                !
 ! R70   R(38,42)                1.4495         estimate D2E/DX2                !
 ! R71   R(38,78)                1.4073         estimate D2E/DX2                !
 ! R72   R(39,43)                1.4027         estimate D2E/DX2                !
 ! R73   R(39,79)                1.4148         estimate D2E/DX2                !
 ! R74   R(40,41)                1.4437         estimate D2E/DX2                !
 ! R75   R(40,44)                1.4028         estimate D2E/DX2                !
 ! R76   R(40,79)                1.4183         estimate D2E/DX2                !
 ! R77   R(41,45)                1.4021         estimate D2E/DX2                !
 ! R78   R(41,80)                1.4193         estimate D2E/DX2                !
 ! R79   R(42,46)                1.4018         estimate D2E/DX2                !
 ! R80   R(42,80)                1.416          estimate D2E/DX2                !
 ! R81   R(44,47)                1.4512         estimate D2E/DX2                !
 ! R82   R(45,48)                1.4507         estimate D2E/DX2                !
 ! R83   R(47,48)                1.4508         estimate D2E/DX2                !
 ! R84   R(47,49)                1.405          estimate D2E/DX2                !
 ! R85   R(48,50)                1.4052         estimate D2E/DX2                !
 ! R86   R(49,51)                1.4262         estimate D2E/DX2                !
 ! R87   R(50,52)                1.4263         estimate D2E/DX2                !
 ! R88   R(51,52)                1.3723         estimate D2E/DX2                !
 ! R89   R(51,55)                1.4423         estimate D2E/DX2                !
 ! R90   R(52,56)                1.4412         estimate D2E/DX2                !
 ! R91   R(53,55)                1.4179         estimate D2E/DX2                !
 ! R92   R(54,56)                1.4191         estimate D2E/DX2                !
 ! R93   R(55,83)                1.4095         estimate D2E/DX2                !
 ! R94   R(56,84)                1.4117         estimate D2E/DX2                !
 ! R95   R(57,59)                1.421          estimate D2E/DX2                !
 ! R96   R(57,83)                1.4178         estimate D2E/DX2                !
 ! R97   R(58,60)                1.4366         estimate D2E/DX2                !
 ! R98   R(58,84)                1.4114         estimate D2E/DX2                !
 ! R99   R(59,60)                1.3574         estimate D2E/DX2                !
 ! R100  R(59,61)                1.5033         estimate D2E/DX2                !
 ! R101  R(60,62)                1.4468         estimate D2E/DX2                !
 ! R102  R(61,63)                1.5274         estimate D2E/DX2                !
 ! R103  R(61,88)                1.8078         estimate D2E/DX2                !
 ! R104  R(62,64)                1.4172         estimate D2E/DX2                !
 ! R105  R(63,64)                1.4292         estimate D2E/DX2                !
 ! R106  R(63,65)                1.3849         estimate D2E/DX2                !
 ! R107  R(64,66)                1.4369         estimate D2E/DX2                !
 ! R108  R(65,67)                1.4303         estimate D2E/DX2                !
 ! R109  R(66,68)                1.4312         estimate D2E/DX2                !
 ! R110  R(67,68)                1.3849         estimate D2E/DX2                !
 ! R111  R(67,69)                1.5295         estimate D2E/DX2                !
 ! R112  R(68,70)                1.5285         estimate D2E/DX2                !
 ! R113  R(69,71)                1.5018         estimate D2E/DX2                !
 ! R114  R(69,86)                1.8036         estimate D2E/DX2                !
 ! R115  R(70,72)                1.4985         estimate D2E/DX2                !
 ! R116  R(70,87)                1.8076         estimate D2E/DX2                !
 ! R117  R(71,72)                1.3569         estimate D2E/DX2                !
 ! R118  R(71,73)                1.4292         estimate D2E/DX2                !
 ! R119  R(72,74)                1.4307         estimate D2E/DX2                !
 ! R120  R(73,75)                1.3835         estimate D2E/DX2                !
 ! R121  R(74,76)                1.383          estimate D2E/DX2                !
 ! R122  R(75,76)                1.4322         estimate D2E/DX2                !
 ! R123  R(75,77)                1.4253         estimate D2E/DX2                !
 ! R124  R(76,78)                1.4252         estimate D2E/DX2                !
 ! R125  R(77,81)                1.4412         estimate D2E/DX2                !
 ! R126  R(78,81)                1.443          estimate D2E/DX2                !
 ! R127  R(79,82)                1.4326         estimate D2E/DX2                !
 ! R128  R(80,82)                1.4298         estimate D2E/DX2                !
 ! R129  R(81,82)                1.3672         estimate D2E/DX2                !
 ! R130  R(83,84)                1.4473         estimate D2E/DX2                !
 ! A1    A(5,1,17)             121.8857         estimate D2E/DX2                !
 ! A2    A(5,1,25)             108.1092         estimate D2E/DX2                !
 ! A3    A(17,1,25)            121.8891         estimate D2E/DX2                !
 ! A4    A(6,2,43)             106.7332         estimate D2E/DX2                !
 ! A5    A(6,2,44)             120.7866         estimate D2E/DX2                !
 ! A6    A(43,2,44)            122.065          estimate D2E/DX2                !
 ! A7    A(7,3,18)             122.0942         estimate D2E/DX2                !
 ! A8    A(7,3,26)             107.1992         estimate D2E/DX2                !
 ! A9    A(18,3,26)            120.4498         estimate D2E/DX2                !
 ! A10   A(8,4,45)             120.828          estimate D2E/DX2                !
 ! A11   A(8,4,46)             106.7679         estimate D2E/DX2                !
 ! A12   A(45,4,46)            122.157          estimate D2E/DX2                !
 ! A13   A(1,5,9)              122.1388         estimate D2E/DX2                !
 ! A14   A(1,5,29)             108.0884         estimate D2E/DX2                !
 ! A15   A(9,5,29)             121.5631         estimate D2E/DX2                !
 ! A16   A(2,6,10)             119.4853         estimate D2E/DX2                !
 ! A17   A(2,6,15)             109.2882         estimate D2E/DX2                !
 ! A18   A(10,6,15)            120.6022         estimate D2E/DX2                !
 ! A19   A(3,7,12)             122.5689         estimate D2E/DX2                !
 ! A20   A(3,7,30)             107.197          estimate D2E/DX2                !
 ! A21   A(12,7,30)            120.0715         estimate D2E/DX2                !
 ! A22   A(4,8,11)             119.4983         estimate D2E/DX2                !
 ! A23   A(4,8,16)             109.3833         estimate D2E/DX2                !
 ! A24   A(11,8,16)            120.713          estimate D2E/DX2                !
 ! A25   A(5,9,13)             115.3387         estimate D2E/DX2                !
 ! A26   A(5,9,35)             119.5064         estimate D2E/DX2                !
 ! A27   A(13,9,35)            119.6104         estimate D2E/DX2                !
 ! A28   A(6,10,49)            120.2099         estimate D2E/DX2                !
 ! A29   A(6,10,53)            120.032          estimate D2E/DX2                !
 ! A30   A(49,10,53)           109.275          estimate D2E/DX2                !
 ! A31   A(8,11,50)            120.1789         estimate D2E/DX2                !
 ! A32   A(8,11,54)            120.1654         estimate D2E/DX2                !
 ! A33   A(50,11,54)           109.3673         estimate D2E/DX2                !
 ! A34   A(7,12,14)            114.749          estimate D2E/DX2                !
 ! A35   A(7,12,36)            119.8222         estimate D2E/DX2                !
 ! A36   A(14,12,36)           119.4507         estimate D2E/DX2                !
 ! A37   A(9,13,15)            122.2247         estimate D2E/DX2                !
 ! A38   A(9,13,43)            120.3834         estimate D2E/DX2                !
 ! A39   A(15,13,43)           108.5631         estimate D2E/DX2                !
 ! A40   A(12,14,16)           122.2944         estimate D2E/DX2                !
 ! A41   A(12,14,46)           120.4785         estimate D2E/DX2                !
 ! A42   A(16,14,46)           108.5262         estimate D2E/DX2                !
 ! A43   A(6,15,13)            106.8688         estimate D2E/DX2                !
 ! A44   A(6,15,17)            120.4123         estimate D2E/DX2                !
 ! A45   A(13,15,17)           122.2156         estimate D2E/DX2                !
 ! A46   A(8,16,14)            106.7567         estimate D2E/DX2                !
 ! A47   A(8,16,18)            120.5371         estimate D2E/DX2                !
 ! A48   A(14,16,18)           122.5515         estimate D2E/DX2                !
 ! A49   A(1,17,15)            115.3765         estimate D2E/DX2                !
 ! A50   A(1,17,19)            118.4176         estimate D2E/DX2                !
 ! A51   A(15,17,19)           119.1318         estimate D2E/DX2                !
 ! A52   A(3,18,16)            114.8381         estimate D2E/DX2                !
 ! A53   A(3,18,20)            119.4071         estimate D2E/DX2                !
 ! A54   A(16,18,20)           118.9234         estimate D2E/DX2                !
 ! A55   A(17,19,21)           118.0891         estimate D2E/DX2                !
 ! A56   A(17,19,53)           119.3179         estimate D2E/DX2                !
 ! A57   A(21,19,53)           115.5029         estimate D2E/DX2                !
 ! A58   A(18,20,22)           119.1667         estimate D2E/DX2                !
 ! A59   A(18,20,54)           118.9919         estimate D2E/DX2                !
 ! A60   A(22,20,54)           115.0423         estimate D2E/DX2                !
 ! A61   A(19,21,23)           121.7028         estimate D2E/DX2                !
 ! A62   A(19,21,57)           121.9059         estimate D2E/DX2                !
 ! A63   A(23,21,57)           108.4498         estimate D2E/DX2                !
 ! A64   A(20,22,24)           120.434          estimate D2E/DX2                !
 ! A65   A(20,22,58)           122.2589         estimate D2E/DX2                !
 ! A66   A(24,22,58)           107.1257         estimate D2E/DX2                !
 ! A67   A(21,23,25)           120.1526         estimate D2E/DX2                !
 ! A68   A(21,23,61)           111.3388         estimate D2E/DX2                !
 ! A69   A(25,23,61)           121.1611         estimate D2E/DX2                !
 ! A70   A(22,24,26)           120.204          estimate D2E/DX2                !
 ! A71   A(22,24,62)           109.9295         estimate D2E/DX2                !
 ! A72   A(26,24,62)           119.5658         estimate D2E/DX2                !
 ! A73   A(1,25,23)            119.7326         estimate D2E/DX2                !
 ! A74   A(1,25,27)            111.4049         estimate D2E/DX2                !
 ! A75   A(23,25,27)           121.7081         estimate D2E/DX2                !
 ! A76   A(3,26,24)            120.1321         estimate D2E/DX2                !
 ! A77   A(3,26,28)            109.8509         estimate D2E/DX2                !
 ! A78   A(24,26,28)           119.491          estimate D2E/DX2                !
 ! A79   A(25,27,29)           100.4894         estimate D2E/DX2                !
 ! A80   A(25,27,65)           110.598          estimate D2E/DX2                !
 ! A81   A(25,27,85)           113.2007         estimate D2E/DX2                !
 ! A82   A(29,27,65)           109.774          estimate D2E/DX2                !
 ! A83   A(29,27,85)           113.7062         estimate D2E/DX2                !
 ! A84   A(65,27,85)           108.8574         estimate D2E/DX2                !
 ! A85   A(26,28,30)           105.6409         estimate D2E/DX2                !
 ! A86   A(26,28,66)           121.295          estimate D2E/DX2                !
 ! A87   A(30,28,66)           119.6417         estimate D2E/DX2                !
 ! A88   A(5,29,27)            111.8274         estimate D2E/DX2                !
 ! A89   A(5,29,31)            119.3531         estimate D2E/DX2                !
 ! A90   A(27,29,31)           122.0458         estimate D2E/DX2                !
 ! A91   A(7,30,28)            109.1014         estimate D2E/DX2                !
 ! A92   A(7,30,32)            120.4147         estimate D2E/DX2                !
 ! A93   A(28,30,32)           120.6346         estimate D2E/DX2                !
 ! A94   A(29,31,33)           120.0745         estimate D2E/DX2                !
 ! A95   A(29,31,69)           121.3233         estimate D2E/DX2                !
 ! A96   A(33,31,69)           111.9659         estimate D2E/DX2                !
 ! A97   A(30,32,34)           119.8452         estimate D2E/DX2                !
 ! A98   A(30,32,70)           120.6221         estimate D2E/DX2                !
 ! A99   A(34,32,70)           112.4645         estimate D2E/DX2                !
 ! A100  A(31,33,35)           122.7651         estimate D2E/DX2                !
 ! A101  A(31,33,73)           106.9826         estimate D2E/DX2                !
 ! A102  A(35,33,73)           122.2619         estimate D2E/DX2                !
 ! A103  A(32,34,36)           122.1689         estimate D2E/DX2                !
 ! A104  A(32,34,74)           106.4902         estimate D2E/DX2                !
 ! A105  A(36,34,74)           122.6268         estimate D2E/DX2                !
 ! A106  A(9,35,33)            116.2212         estimate D2E/DX2                !
 ! A107  A(9,35,37)            120.0291         estimate D2E/DX2                !
 ! A108  A(33,35,37)           118.5912         estimate D2E/DX2                !
 ! A109  A(12,36,34)           116.7832         estimate D2E/DX2                !
 ! A110  A(12,36,38)           119.9668         estimate D2E/DX2                !
 ! A111  A(34,36,38)           118.1056         estimate D2E/DX2                !
 ! A112  A(35,37,39)           119.2032         estimate D2E/DX2                !
 ! A113  A(35,37,77)           118.0191         estimate D2E/DX2                !
 ! A114  A(39,37,77)           117.2919         estimate D2E/DX2                !
 ! A115  A(36,38,42)           119.307          estimate D2E/DX2                !
 ! A116  A(36,38,78)           118.1478         estimate D2E/DX2                !
 ! A117  A(42,38,78)           117.2224         estimate D2E/DX2                !
 ! A118  A(37,39,43)           119.4869         estimate D2E/DX2                !
 ! A119  A(37,39,79)           120.0384         estimate D2E/DX2                !
 ! A120  A(43,39,79)           114.6481         estimate D2E/DX2                !
 ! A121  A(41,40,44)           121.0559         estimate D2E/DX2                !
 ! A122  A(41,40,79)           108.3074         estimate D2E/DX2                !
 ! A123  A(44,40,79)           122.1942         estimate D2E/DX2                !
 ! A124  A(40,41,45)           120.9855         estimate D2E/DX2                !
 ! A125  A(40,41,80)           108.4376         estimate D2E/DX2                !
 ! A126  A(45,41,80)           122.1808         estimate D2E/DX2                !
 ! A127  A(38,42,46)           119.4637         estimate D2E/DX2                !
 ! A128  A(38,42,80)           120.0319         estimate D2E/DX2                !
 ! A129  A(46,42,80)           114.659          estimate D2E/DX2                !
 ! A130  A(2,43,13)            108.4241         estimate D2E/DX2                !
 ! A131  A(2,43,39)            122.3049         estimate D2E/DX2                !
 ! A132  A(13,43,39)           121.0055         estimate D2E/DX2                !
 ! A133  A(2,44,40)            114.7851         estimate D2E/DX2                !
 ! A134  A(2,44,47)            120.1407         estimate D2E/DX2                !
 ! A135  A(40,44,47)           119.1827         estimate D2E/DX2                !
 ! A136  A(4,45,41)            114.7817         estimate D2E/DX2                !
 ! A137  A(4,45,48)            120.1452         estimate D2E/DX2                !
 ! A138  A(41,45,48)           119.2245         estimate D2E/DX2                !
 ! A139  A(4,46,14)            108.4467         estimate D2E/DX2                !
 ! A140  A(4,46,42)            122.2463         estimate D2E/DX2                !
 ! A141  A(14,46,42)           121.1532         estimate D2E/DX2                !
 ! A142  A(44,47,48)           119.6785         estimate D2E/DX2                !
 ! A143  A(44,47,49)           116.8878         estimate D2E/DX2                !
 ! A144  A(48,47,49)           118.1208         estimate D2E/DX2                !
 ! A145  A(45,48,47)           119.7467         estimate D2E/DX2                !
 ! A146  A(45,48,50)           116.7968         estimate D2E/DX2                !
 ! A147  A(47,48,50)           118.1679         estimate D2E/DX2                !
 ! A148  A(10,49,47)           122.0301         estimate D2E/DX2                !
 ! A149  A(10,49,51)           105.624          estimate D2E/DX2                !
 ! A150  A(47,49,51)           122.1104         estimate D2E/DX2                !
 ! A151  A(11,50,48)           122.0852         estimate D2E/DX2                !
 ! A152  A(11,50,52)           105.594          estimate D2E/DX2                !
 ! A153  A(48,50,52)           122.1042         estimate D2E/DX2                !
 ! A154  A(49,51,52)           119.5096         estimate D2E/DX2                !
 ! A155  A(49,51,55)           109.6246         estimate D2E/DX2                !
 ! A156  A(52,51,55)           120.2459         estimate D2E/DX2                !
 ! A157  A(50,52,51)           119.4655         estimate D2E/DX2                !
 ! A158  A(50,52,56)           109.697          estimate D2E/DX2                !
 ! A159  A(51,52,56)           120.4182         estimate D2E/DX2                !
 ! A160  A(10,53,19)           120.4354         estimate D2E/DX2                !
 ! A161  A(10,53,55)           107.5203         estimate D2E/DX2                !
 ! A162  A(19,53,55)           122.1684         estimate D2E/DX2                !
 ! A163  A(11,54,20)           120.597          estimate D2E/DX2                !
 ! A164  A(11,54,56)           107.413          estimate D2E/DX2                !
 ! A165  A(20,54,56)           122.3264         estimate D2E/DX2                !
 ! A166  A(51,55,53)           107.4686         estimate D2E/DX2                !
 ! A167  A(51,55,83)           120.3716         estimate D2E/DX2                !
 ! A168  A(53,55,83)           122.3572         estimate D2E/DX2                !
 ! A169  A(52,56,54)           107.4826         estimate D2E/DX2                !
 ! A170  A(52,56,84)           120.2384         estimate D2E/DX2                !
 ! A171  A(54,56,84)           122.2518         estimate D2E/DX2                !
 ! A172  A(21,57,59)           107.8161         estimate D2E/DX2                !
 ! A173  A(21,57,83)           122.3062         estimate D2E/DX2                !
 ! A174  A(59,57,83)           121.4161         estimate D2E/DX2                !
 ! A175  A(22,58,60)           107.5161         estimate D2E/DX2                !
 ! A176  A(22,58,84)           122.3994         estimate D2E/DX2                !
 ! A177  A(60,58,84)           120.5589         estimate D2E/DX2                !
 ! A178  A(57,59,60)           119.6716         estimate D2E/DX2                !
 ! A179  A(57,59,61)           111.8973         estimate D2E/DX2                !
 ! A180  A(60,59,61)           121.0925         estimate D2E/DX2                !
 ! A181  A(58,60,59)           121.025          estimate D2E/DX2                !
 ! A182  A(58,60,62)           108.8576         estimate D2E/DX2                !
 ! A183  A(59,60,62)           120.2765         estimate D2E/DX2                !
 ! A184  A(23,61,59)           100.4121         estimate D2E/DX2                !
 ! A185  A(23,61,63)           110.9121         estimate D2E/DX2                !
 ! A186  A(23,61,88)           113.2121         estimate D2E/DX2                !
 ! A187  A(59,61,63)           111.8934         estimate D2E/DX2                !
 ! A188  A(59,61,88)           111.9933         estimate D2E/DX2                !
 ! A189  A(63,61,88)           108.3361         estimate D2E/DX2                !
 ! A190  A(24,62,60)           105.8274         estimate D2E/DX2                !
 ! A191  A(24,62,64)           121.1075         estimate D2E/DX2                !
 ! A192  A(60,62,64)           120.3498         estimate D2E/DX2                !
 ! A193  A(61,63,64)           118.55           estimate D2E/DX2                !
 ! A194  A(61,63,65)           120.631          estimate D2E/DX2                !
 ! A195  A(64,63,65)           120.1931         estimate D2E/DX2                !
 ! A196  A(62,64,63)           119.4388         estimate D2E/DX2                !
 ! A197  A(62,64,66)           118.211          estimate D2E/DX2                !
 ! A198  A(63,64,66)           119.1259         estimate D2E/DX2                !
 ! A199  A(27,65,63)           119.5739         estimate D2E/DX2                !
 ! A200  A(27,65,67)           119.3096         estimate D2E/DX2                !
 ! A201  A(63,65,67)           120.7152         estimate D2E/DX2                !
 ! A202  A(28,66,64)           117.996          estimate D2E/DX2                !
 ! A203  A(28,66,68)           119.3114         estimate D2E/DX2                !
 ! A204  A(64,66,68)           119.4855         estimate D2E/DX2                !
 ! A205  A(65,67,68)           120.3304         estimate D2E/DX2                !
 ! A206  A(65,67,69)           119.2269         estimate D2E/DX2                !
 ! A207  A(68,67,69)           120.1025         estimate D2E/DX2                !
 ! A208  A(66,68,67)           120.1342         estimate D2E/DX2                !
 ! A209  A(66,68,70)           118.2197         estimate D2E/DX2                !
 ! A210  A(67,68,70)           121.0509         estimate D2E/DX2                !
 ! A211  A(31,69,67)           109.5038         estimate D2E/DX2                !
 ! A212  A(31,69,71)           100.9524         estimate D2E/DX2                !
 ! A213  A(31,69,86)           113.5689         estimate D2E/DX2                !
 ! A214  A(67,69,71)           111.0991         estimate D2E/DX2                !
 ! A215  A(67,69,86)           108.4281         estimate D2E/DX2                !
 ! A216  A(71,69,86)           113.1455         estimate D2E/DX2                !
 ! A217  A(32,70,68)           110.8479         estimate D2E/DX2                !
 ! A218  A(32,70,72)           100.7306         estimate D2E/DX2                !
 ! A219  A(32,70,87)           112.3373         estimate D2E/DX2                !
 ! A220  A(68,70,72)           111.482          estimate D2E/DX2                !
 ! A221  A(68,70,87)           108.216          estimate D2E/DX2                !
 ! A222  A(72,70,87)           113.1499         estimate D2E/DX2                !
 ! A223  A(69,71,72)           122.1391         estimate D2E/DX2                !
 ! A224  A(69,71,73)           110.2917         estimate D2E/DX2                !
 ! A225  A(72,71,73)           119.4425         estimate D2E/DX2                !
 ! A226  A(70,72,71)           121.5883         estimate D2E/DX2                !
 ! A227  A(70,72,74)           110.2484         estimate D2E/DX2                !
 ! A228  A(71,72,74)           119.8157         estimate D2E/DX2                !
 ! A229  A(33,73,71)           109.3892         estimate D2E/DX2                !
 ! A230  A(33,73,75)           119.0203         estimate D2E/DX2                !
 ! A231  A(71,73,75)           121.4886         estimate D2E/DX2                !
 ! A232  A(34,74,72)           109.7307         estimate D2E/DX2                !
 ! A233  A(34,74,76)           118.8889         estimate D2E/DX2                !
 ! A234  A(72,74,76)           121.3085         estimate D2E/DX2                !
 ! A235  A(73,75,76)           118.974          estimate D2E/DX2                !
 ! A236  A(73,75,77)           119.9004         estimate D2E/DX2                !
 ! A237  A(76,75,77)           108.8817         estimate D2E/DX2                !
 ! A238  A(74,76,75)           118.9008         estimate D2E/DX2                !
 ! A239  A(74,76,78)           119.7622         estimate D2E/DX2                !
 ! A240  A(75,76,78)           108.9423         estimate D2E/DX2                !
 ! A241  A(37,77,75)           122.1129         estimate D2E/DX2                !
 ! A242  A(37,77,81)           121.4462         estimate D2E/DX2                !
 ! A243  A(75,77,81)           106.0054         estimate D2E/DX2                !
 ! A244  A(38,78,76)           122.3327         estimate D2E/DX2                !
 ! A245  A(38,78,81)           121.4776         estimate D2E/DX2                !
 ! A246  A(76,78,81)           105.9092         estimate D2E/DX2                !
 ! A247  A(39,79,40)           122.2579         estimate D2E/DX2                !
 ! A248  A(39,79,82)           120.3508         estimate D2E/DX2                !
 ! A249  A(40,79,82)           106.7739         estimate D2E/DX2                !
 ! A250  A(41,80,42)           122.2926         estimate D2E/DX2                !
 ! A251  A(41,80,82)           106.731          estimate D2E/DX2                !
 ! A252  A(42,80,82)           120.4185         estimate D2E/DX2                !
 ! A253  A(77,81,78)           109.5494         estimate D2E/DX2                !
 ! A254  A(77,81,82)           120.0564         estimate D2E/DX2                !
 ! A255  A(78,81,82)           119.9855         estimate D2E/DX2                !
 ! A256  A(79,82,80)           109.5368         estimate D2E/DX2                !
 ! A257  A(79,82,81)           120.0008         estimate D2E/DX2                !
 ! A258  A(80,82,81)           120.0902         estimate D2E/DX2                !
 ! A259  A(55,83,57)           115.1831         estimate D2E/DX2                !
 ! A260  A(55,83,84)           119.2933         estimate D2E/DX2                !
 ! A261  A(57,83,84)           118.7604         estimate D2E/DX2                !
 ! A262  A(56,84,58)           115.0499         estimate D2E/DX2                !
 ! A263  A(56,84,83)           119.3278         estimate D2E/DX2                !
 ! A264  A(58,84,83)           118.4607         estimate D2E/DX2                !
 ! D1    D(17,1,5,9)            -2.6065         estimate D2E/DX2                !
 ! D2    D(17,1,5,29)         -151.4219         estimate D2E/DX2                !
 ! D3    D(25,1,5,9)           146.4891         estimate D2E/DX2                !
 ! D4    D(25,1,5,29)           -2.3263         estimate D2E/DX2                !
 ! D5    D(5,1,17,15)           -5.6708         estimate D2E/DX2                !
 ! D6    D(5,1,17,19)          144.7054         estimate D2E/DX2                !
 ! D7    D(25,1,17,15)        -150.5754         estimate D2E/DX2                !
 ! D8    D(25,1,17,19)          -0.1992         estimate D2E/DX2                !
 ! D9    D(5,1,25,23)         -147.8873         estimate D2E/DX2                !
 ! D10   D(5,1,25,27)            3.04           estimate D2E/DX2                !
 ! D11   D(17,1,25,23)           1.2071         estimate D2E/DX2                !
 ! D12   D(17,1,25,27)         152.1344         estimate D2E/DX2                !
 ! D13   D(43,2,6,10)         -148.4656         estimate D2E/DX2                !
 ! D14   D(43,2,6,15)           -3.6324         estimate D2E/DX2                !
 ! D15   D(44,2,6,10)           -2.9365         estimate D2E/DX2                !
 ! D16   D(44,2,6,15)          141.8968         estimate D2E/DX2                !
 ! D17   D(6,2,43,13)            3.0629         estimate D2E/DX2                !
 ! D18   D(6,2,43,39)          151.6037         estimate D2E/DX2                !
 ! D19   D(44,2,43,13)        -141.9245         estimate D2E/DX2                !
 ! D20   D(44,2,43,39)           6.6163         estimate D2E/DX2                !
 ! D21   D(6,2,44,40)         -152.4366         estimate D2E/DX2                !
 ! D22   D(6,2,44,47)            0.3286         estimate D2E/DX2                !
 ! D23   D(43,2,44,40)         -12.198          estimate D2E/DX2                !
 ! D24   D(43,2,44,47)         140.5671         estimate D2E/DX2                !
 ! D25   D(18,3,7,12)            2.5551         estimate D2E/DX2                !
 ! D26   D(18,3,7,30)          147.65           estimate D2E/DX2                !
 ! D27   D(26,3,7,12)         -142.563          estimate D2E/DX2                !
 ! D28   D(26,3,7,30)            2.5319         estimate D2E/DX2                !
 ! D29   D(7,3,18,16)            6.1016         estimate D2E/DX2                !
 ! D30   D(7,3,18,20)         -144.6664         estimate D2E/DX2                !
 ! D31   D(26,3,18,16)         146.7765         estimate D2E/DX2                !
 ! D32   D(26,3,18,20)          -3.9915         estimate D2E/DX2                !
 ! D33   D(7,3,26,24)          148.5781         estimate D2E/DX2                !
 ! D34   D(7,3,26,28)            4.0192         estimate D2E/DX2                !
 ! D35   D(18,3,26,24)           2.7725         estimate D2E/DX2                !
 ! D36   D(18,3,26,28)        -141.7864         estimate D2E/DX2                !
 ! D37   D(45,4,8,11)            2.9721         estimate D2E/DX2                !
 ! D38   D(45,4,8,16)         -142.2234         estimate D2E/DX2                !
 ! D39   D(46,4,8,11)          148.7795         estimate D2E/DX2                !
 ! D40   D(46,4,8,16)            3.5839         estimate D2E/DX2                !
 ! D41   D(8,4,45,41)          152.4385         estimate D2E/DX2                !
 ! D42   D(8,4,45,48)           -0.4308         estimate D2E/DX2                !
 ! D43   D(46,4,45,41)          11.902          estimate D2E/DX2                !
 ! D44   D(46,4,45,48)        -140.9674         estimate D2E/DX2                !
 ! D45   D(8,4,46,14)           -2.715          estimate D2E/DX2                !
 ! D46   D(8,4,46,42)         -151.5006         estimate D2E/DX2                !
 ! D47   D(45,4,46,14)         142.5333         estimate D2E/DX2                !
 ! D48   D(45,4,46,42)          -6.2522         estimate D2E/DX2                !
 ! D49   D(1,5,9,13)             7.7976         estimate D2E/DX2                !
 ! D50   D(1,5,9,35)          -145.8584         estimate D2E/DX2                !
 ! D51   D(29,5,9,13)          152.5112         estimate D2E/DX2                !
 ! D52   D(29,5,9,35)           -1.1448         estimate D2E/DX2                !
 ! D53   D(1,5,29,27)            0.8126         estimate D2E/DX2                !
 ! D54   D(1,5,29,31)          152.5781         estimate D2E/DX2                !
 ! D55   D(9,5,29,27)         -148.2184         estimate D2E/DX2                !
 ! D56   D(9,5,29,31)            3.5471         estimate D2E/DX2                !
 ! D57   D(2,6,10,49)           -0.0119         estimate D2E/DX2                !
 ! D58   D(2,6,10,53)          141.0483         estimate D2E/DX2                !
 ! D59   D(15,6,10,49)        -140.8439         estimate D2E/DX2                !
 ! D60   D(15,6,10,53)           0.2163         estimate D2E/DX2                !
 ! D61   D(2,6,15,13)            2.7858         estimate D2E/DX2                !
 ! D62   D(2,6,15,17)         -142.696          estimate D2E/DX2                !
 ! D63   D(10,6,15,13)         147.1601         estimate D2E/DX2                !
 ! D64   D(10,6,15,17)           1.6783         estimate D2E/DX2                !
 ! D65   D(3,7,12,14)           -8.0668         estimate D2E/DX2                !
 ! D66   D(3,7,12,36)          144.5918         estimate D2E/DX2                !
 ! D67   D(30,7,12,14)        -148.8943         estimate D2E/DX2                !
 ! D68   D(30,7,12,36)           3.7644         estimate D2E/DX2                !
 ! D69   D(3,7,30,28)           -8.0404         estimate D2E/DX2                !
 ! D70   D(3,7,30,32)         -153.9957         estimate D2E/DX2                !
 ! D71   D(12,7,30,28)         138.0946         estimate D2E/DX2                !
 ! D72   D(12,7,30,32)          -7.8607         estimate D2E/DX2                !
 ! D73   D(4,8,11,50)            0.0917         estimate D2E/DX2                !
 ! D74   D(4,8,11,54)         -141.3237         estimate D2E/DX2                !
 ! D75   D(16,8,11,50)         141.3164         estimate D2E/DX2                !
 ! D76   D(16,8,11,54)          -0.0991         estimate D2E/DX2                !
 ! D77   D(4,8,16,14)           -3.0572         estimate D2E/DX2                !
 ! D78   D(4,8,16,18)          143.0444         estimate D2E/DX2                !
 ! D79   D(11,8,16,14)        -147.7586         estimate D2E/DX2                !
 ! D80   D(11,8,16,18)          -1.657          estimate D2E/DX2                !
 ! D81   D(5,9,13,15)           -4.8269         estimate D2E/DX2                !
 ! D82   D(5,9,13,43)         -148.5142         estimate D2E/DX2                !
 ! D83   D(35,9,13,15)         148.7999         estimate D2E/DX2                !
 ! D84   D(35,9,13,43)           5.1126         estimate D2E/DX2                !
 ! D85   D(5,9,35,33)           -4.6748         estimate D2E/DX2                !
 ! D86   D(5,9,35,37)          149.595          estimate D2E/DX2                !
 ! D87   D(13,9,35,33)        -157.203          estimate D2E/DX2                !
 ! D88   D(13,9,35,37)          -2.9332         estimate D2E/DX2                !
 ! D89   D(6,10,49,47)           5.8095         estimate D2E/DX2                !
 ! D90   D(6,10,49,51)         151.5006         estimate D2E/DX2                !
 ! D91   D(53,10,49,47)       -138.9902         estimate D2E/DX2                !
 ! D92   D(53,10,49,51)          6.7009         estimate D2E/DX2                !
 ! D93   D(6,10,53,19)          -2.4373         estimate D2E/DX2                !
 ! D94   D(6,10,53,55)        -148.847          estimate D2E/DX2                !
 ! D95   D(49,10,53,19)        142.4351         estimate D2E/DX2                !
 ! D96   D(49,10,53,55)         -3.9746         estimate D2E/DX2                !
 ! D97   D(8,11,50,48)          -5.9465         estimate D2E/DX2                !
 ! D98   D(8,11,50,52)        -151.6584         estimate D2E/DX2                !
 ! D99   D(54,11,50,48)        139.1949         estimate D2E/DX2                !
 ! D100  D(54,11,50,52)         -6.5171         estimate D2E/DX2                !
 ! D101  D(8,11,54,20)           2.4357         estimate D2E/DX2                !
 ! D102  D(8,11,54,56)         149.2114         estimate D2E/DX2                !
 ! D103  D(50,11,54,20)       -142.7112         estimate D2E/DX2                !
 ! D104  D(50,11,54,56)          4.0646         estimate D2E/DX2                !
 ! D105  D(7,12,14,16)           5.0331         estimate D2E/DX2                !
 ! D106  D(7,12,14,46)         148.9465         estimate D2E/DX2                !
 ! D107  D(36,12,14,16)       -147.7346         estimate D2E/DX2                !
 ! D108  D(36,12,14,46)         -3.8213         estimate D2E/DX2                !
 ! D109  D(7,12,36,34)           4.7304         estimate D2E/DX2                !
 ! D110  D(7,12,36,38)        -149.4518         estimate D2E/DX2                !
 ! D111  D(14,12,36,34)        156.1102         estimate D2E/DX2                !
 ! D112  D(14,12,36,38)          1.928          estimate D2E/DX2                !
 ! D113  D(9,13,15,6)         -148.2409         estimate D2E/DX2                !
 ! D114  D(9,13,15,17)          -3.5245         estimate D2E/DX2                !
 ! D115  D(43,13,15,6)          -0.8496         estimate D2E/DX2                !
 ! D116  D(43,13,15,17)        143.8669         estimate D2E/DX2                !
 ! D117  D(9,13,43,2)          146.701          estimate D2E/DX2                !
 ! D118  D(9,13,43,39)          -2.3253         estimate D2E/DX2                !
 ! D119  D(15,13,43,2)          -1.3971         estimate D2E/DX2                !
 ! D120  D(15,13,43,39)       -150.4234         estimate D2E/DX2                !
 ! D121  D(12,14,16,8)         148.9619         estimate D2E/DX2                !
 ! D122  D(12,14,16,18)          3.7045         estimate D2E/DX2                !
 ! D123  D(46,14,16,8)           1.3304         estimate D2E/DX2                !
 ! D124  D(46,14,16,18)       -143.927          estimate D2E/DX2                !
 ! D125  D(12,14,46,4)        -147.4559         estimate D2E/DX2                !
 ! D126  D(12,14,46,42)          1.7356         estimate D2E/DX2                !
 ! D127  D(16,14,46,4)           0.8686         estimate D2E/DX2                !
 ! D128  D(16,14,46,42)        150.06           estimate D2E/DX2                !
 ! D129  D(6,15,17,1)          148.8051         estimate D2E/DX2                !
 ! D130  D(6,15,17,19)          -1.347          estimate D2E/DX2                !
 ! D131  D(13,15,17,1)           8.6687         estimate D2E/DX2                !
 ! D132  D(13,15,17,19)       -141.4834         estimate D2E/DX2                !
 ! D133  D(8,16,18,3)         -149.8385         estimate D2E/DX2                !
 ! D134  D(8,16,18,20)           1.0801         estimate D2E/DX2                !
 ! D135  D(14,16,18,3)          -9.1524         estimate D2E/DX2                !
 ! D136  D(14,16,18,20)        141.7663         estimate D2E/DX2                !
 ! D137  D(1,17,19,21)          -0.8352         estimate D2E/DX2                !
 ! D138  D(1,17,19,53)        -150.0904         estimate D2E/DX2                !
 ! D139  D(15,17,19,21)        148.4154         estimate D2E/DX2                !
 ! D140  D(15,17,19,53)         -0.8398         estimate D2E/DX2                !
 ! D141  D(3,18,20,22)           1.0735         estimate D2E/DX2                !
 ! D142  D(3,18,20,54)         150.7815         estimate D2E/DX2                !
 ! D143  D(16,18,20,22)       -148.5069         estimate D2E/DX2                !
 ! D144  D(16,18,20,54)          1.2011         estimate D2E/DX2                !
 ! D145  D(17,19,21,23)          0.9325         estimate D2E/DX2                !
 ! D146  D(17,19,21,57)       -144.4276         estimate D2E/DX2                !
 ! D147  D(53,19,21,23)        151.3382         estimate D2E/DX2                !
 ! D148  D(53,19,21,57)          5.978          estimate D2E/DX2                !
 ! D149  D(17,19,53,10)          2.7268         estimate D2E/DX2                !
 ! D150  D(17,19,53,55)        144.1719         estimate D2E/DX2                !
 ! D151  D(21,19,53,10)       -147.2937         estimate D2E/DX2                !
 ! D152  D(21,19,53,55)         -5.8486         estimate D2E/DX2                !
 ! D153  D(18,20,22,24)          3.0575         estimate D2E/DX2                !
 ! D154  D(18,20,22,58)        143.833          estimate D2E/DX2                !
 ! D155  D(54,20,22,24)       -147.8004         estimate D2E/DX2                !
 ! D156  D(54,20,22,58)         -7.025          estimate D2E/DX2                !
 ! D157  D(18,20,54,11)         -2.9543         estimate D2E/DX2                !
 ! D158  D(18,20,54,56)       -144.7334         estimate D2E/DX2                !
 ! D159  D(22,20,54,11)        147.9577         estimate D2E/DX2                !
 ! D160  D(22,20,54,56)          6.1787         estimate D2E/DX2                !
 ! D161  D(19,21,23,25)          0.0576         estimate D2E/DX2                !
 ! D162  D(19,21,23,61)       -150.3317         estimate D2E/DX2                !
 ! D163  D(57,21,23,25)        149.4814         estimate D2E/DX2                !
 ! D164  D(57,21,23,61)         -0.9078         estimate D2E/DX2                !
 ! D165  D(19,21,57,59)        148.31           estimate D2E/DX2                !
 ! D166  D(19,21,57,83)         -0.0099         estimate D2E/DX2                !
 ! D167  D(23,21,57,59)         -1.0393         estimate D2E/DX2                !
 ! D168  D(23,21,57,83)       -149.3591         estimate D2E/DX2                !
 ! D169  D(20,22,24,26)         -4.3373         estimate D2E/DX2                !
 ! D170  D(20,22,24,62)        140.5838         estimate D2E/DX2                !
 ! D171  D(58,22,24,26)       -150.3117         estimate D2E/DX2                !
 ! D172  D(58,22,24,62)         -5.3906         estimate D2E/DX2                !
 ! D173  D(20,22,58,60)       -145.2514         estimate D2E/DX2                !
 ! D174  D(20,22,58,84)          1.0251         estimate D2E/DX2                !
 ! D175  D(24,22,58,60)         -0.0384         estimate D2E/DX2                !
 ! D176  D(24,22,58,84)        146.2381         estimate D2E/DX2                !
 ! D177  D(21,23,25,1)          -1.1177         estimate D2E/DX2                !
 ! D178  D(21,23,25,27)       -148.9921         estimate D2E/DX2                !
 ! D179  D(61,23,25,1)         146.3462         estimate D2E/DX2                !
 ! D180  D(61,23,25,27)         -1.5283         estimate D2E/DX2                !
 ! D181  D(21,23,61,59)          2.2948         estimate D2E/DX2                !
 ! D182  D(21,23,61,63)        120.7239         estimate D2E/DX2                !
 ! D183  D(21,23,61,88)       -117.2502         estimate D2E/DX2                !
 ! D184  D(25,23,61,59)       -147.7523         estimate D2E/DX2                !
 ! D185  D(25,23,61,63)        -29.3233         estimate D2E/DX2                !
 ! D186  D(25,23,61,88)         92.7026         estimate D2E/DX2                !
 ! D187  D(22,24,26,3)           1.4038         estimate D2E/DX2                !
 ! D188  D(22,24,26,28)        142.6044         estimate D2E/DX2                !
 ! D189  D(62,24,26,3)        -140.1946         estimate D2E/DX2                !
 ! D190  D(62,24,26,28)          1.006          estimate D2E/DX2                !
 ! D191  D(22,24,62,60)          8.4747         estimate D2E/DX2                !
 ! D192  D(22,24,62,64)       -133.1957         estimate D2E/DX2                !
 ! D193  D(26,24,62,60)        153.6521         estimate D2E/DX2                !
 ! D194  D(26,24,62,64)         11.9817         estimate D2E/DX2                !
 ! D195  D(1,25,27,29)          -2.3869         estimate D2E/DX2                !
 ! D196  D(1,25,27,65)        -118.3087         estimate D2E/DX2                !
 ! D197  D(1,25,27,85)         119.2283         estimate D2E/DX2                !
 ! D198  D(23,25,27,29)        147.8788         estimate D2E/DX2                !
 ! D199  D(23,25,27,65)         31.9571         estimate D2E/DX2                !
 ! D200  D(23,25,27,85)        -90.506          estimate D2E/DX2                !
 ! D201  D(3,26,28,30)          -8.7685         estimate D2E/DX2                !
 ! D202  D(3,26,28,66)         131.6966         estimate D2E/DX2                !
 ! D203  D(24,26,28,30)       -153.5876         estimate D2E/DX2                !
 ! D204  D(24,26,28,66)        -13.1225         estimate D2E/DX2                !
 ! D205  D(25,27,29,5)           0.9292         estimate D2E/DX2                !
 ! D206  D(25,27,29,31)       -149.9619         estimate D2E/DX2                !
 ! D207  D(65,27,29,5)         117.4659         estimate D2E/DX2                !
 ! D208  D(65,27,29,31)        -33.4252         estimate D2E/DX2                !
 ! D209  D(85,27,29,5)        -120.3272         estimate D2E/DX2                !
 ! D210  D(85,27,29,31)         88.7817         estimate D2E/DX2                !
 ! D211  D(25,27,65,63)        -30.9495         estimate D2E/DX2                !
 ! D212  D(25,27,65,67)        141.8331         estimate D2E/DX2                !
 ! D213  D(29,27,65,63)       -140.9355         estimate D2E/DX2                !
 ! D214  D(29,27,65,67)         31.8471         estimate D2E/DX2                !
 ! D215  D(85,27,65,63)         94.0166         estimate D2E/DX2                !
 ! D216  D(85,27,65,67)        -93.2007         estimate D2E/DX2                !
 ! D217  D(26,28,30,7)          10.358          estimate D2E/DX2                !
 ! D218  D(26,28,30,32)        156.2256         estimate D2E/DX2                !
 ! D219  D(66,28,30,7)        -130.8986         estimate D2E/DX2                !
 ! D220  D(66,28,30,32)         14.9689         estimate D2E/DX2                !
 ! D221  D(26,28,66,64)         12.0099         estimate D2E/DX2                !
 ! D222  D(26,28,66,68)       -147.6673         estimate D2E/DX2                !
 ! D223  D(30,28,66,64)        147.1584         estimate D2E/DX2                !
 ! D224  D(30,28,66,68)        -12.5189         estimate D2E/DX2                !
 ! D225  D(5,29,31,33)           0.1187         estimate D2E/DX2                !
 ! D226  D(5,29,31,69)        -149.0197         estimate D2E/DX2                !
 ! D227  D(27,29,31,33)        148.9129         estimate D2E/DX2                !
 ! D228  D(27,29,31,69)         -0.2255         estimate D2E/DX2                !
 ! D229  D(7,30,32,34)           3.0429         estimate D2E/DX2                !
 ! D230  D(7,30,32,70)         151.4228         estimate D2E/DX2                !
 ! D231  D(28,30,32,34)       -139.018          estimate D2E/DX2                !
 ! D232  D(28,30,32,70)          9.3619         estimate D2E/DX2                !
 ! D233  D(29,31,33,35)         -6.4274         estimate D2E/DX2                !
 ! D234  D(29,31,33,73)       -155.7757         estimate D2E/DX2                !
 ! D235  D(69,31,33,35)        145.3759         estimate D2E/DX2                !
 ! D236  D(69,31,33,73)         -3.9724         estimate D2E/DX2                !
 ! D237  D(29,31,69,67)         34.2904         estimate D2E/DX2                !
 ! D238  D(29,31,69,71)        151.5177         estimate D2E/DX2                !
 ! D239  D(29,31,69,86)        -87.0683         estimate D2E/DX2                !
 ! D240  D(33,31,69,67)       -117.1121         estimate D2E/DX2                !
 ! D241  D(33,31,69,71)          0.1153         estimate D2E/DX2                !
 ! D242  D(33,31,69,86)        121.5293         estimate D2E/DX2                !
 ! D243  D(30,32,34,36)          6.0024         estimate D2E/DX2                !
 ! D244  D(30,32,34,74)        154.2645         estimate D2E/DX2                !
 ! D245  D(70,32,34,36)       -144.7741         estimate D2E/DX2                !
 ! D246  D(70,32,34,74)          3.488          estimate D2E/DX2                !
 ! D247  D(30,32,70,68)        -32.4573         estimate D2E/DX2                !
 ! D248  D(30,32,70,72)       -150.557          estimate D2E/DX2                !
 ! D249  D(30,32,70,87)         88.7485         estimate D2E/DX2                !
 ! D250  D(34,32,70,68)        118.0646         estimate D2E/DX2                !
 ! D251  D(34,32,70,72)         -0.0351         estimate D2E/DX2                !
 ! D252  D(34,32,70,87)       -120.7296         estimate D2E/DX2                !
 ! D253  D(31,33,35,9)           8.5246         estimate D2E/DX2                !
 ! D254  D(31,33,35,37)       -146.1309         estimate D2E/DX2                !
 ! D255  D(73,33,35,9)         153.3125         estimate D2E/DX2                !
 ! D256  D(73,33,35,37)         -1.343          estimate D2E/DX2                !
 ! D257  D(31,33,73,71)          6.3936         estimate D2E/DX2                !
 ! D258  D(31,33,73,75)        152.3374         estimate D2E/DX2                !
 ! D259  D(35,33,73,71)       -143.144          estimate D2E/DX2                !
 ! D260  D(35,33,73,75)          2.7998         estimate D2E/DX2                !
 ! D261  D(32,34,36,12)         -9.7415         estimate D2E/DX2                !
 ! D262  D(32,34,36,38)        144.9351         estimate D2E/DX2                !
 ! D263  D(74,34,36,12)       -152.95           estimate D2E/DX2                !
 ! D264  D(74,34,36,38)          1.7266         estimate D2E/DX2                !
 ! D265  D(32,34,74,72)         -5.6979         estimate D2E/DX2                !
 ! D266  D(32,34,74,76)       -151.6345         estimate D2E/DX2                !
 ! D267  D(36,34,74,72)        142.3839         estimate D2E/DX2                !
 ! D268  D(36,34,74,76)         -3.5527         estimate D2E/DX2                !
 ! D269  D(9,35,37,39)          -1.9989         estimate D2E/DX2                !
 ! D270  D(9,35,37,77)        -155.1847         estimate D2E/DX2                !
 ! D271  D(33,35,37,39)        151.6707         estimate D2E/DX2                !
 ! D272  D(33,35,37,77)         -1.5152         estimate D2E/DX2                !
 ! D273  D(12,36,38,42)          2.0201         estimate D2E/DX2                !
 ! D274  D(12,36,38,78)        155.5642         estimate D2E/DX2                !
 ! D275  D(34,36,38,42)       -151.8273         estimate D2E/DX2                !
 ! D276  D(34,36,38,78)          1.7168         estimate D2E/DX2                !
 ! D277  D(35,37,39,43)          4.7709         estimate D2E/DX2                !
 ! D278  D(35,37,39,79)       -146.9217         estimate D2E/DX2                !
 ! D279  D(77,37,39,43)        158.1485         estimate D2E/DX2                !
 ! D280  D(77,37,39,79)          6.456          estimate D2E/DX2                !
 ! D281  D(35,37,77,75)          2.9924         estimate D2E/DX2                !
 ! D282  D(35,37,77,81)        142.932          estimate D2E/DX2                !
 ! D283  D(39,37,77,75)       -150.7068         estimate D2E/DX2                !
 ! D284  D(39,37,77,81)        -10.7672         estimate D2E/DX2                !
 ! D285  D(36,38,42,46)         -4.1001         estimate D2E/DX2                !
 ! D286  D(36,38,42,80)        147.5527         estimate D2E/DX2                !
 ! D287  D(78,38,42,46)       -157.8845         estimate D2E/DX2                !
 ! D288  D(78,38,42,80)         -6.2317         estimate D2E/DX2                !
 ! D289  D(36,38,78,76)         -3.4296         estimate D2E/DX2                !
 ! D290  D(36,38,78,81)       -143.5983         estimate D2E/DX2                !
 ! D291  D(42,38,78,76)        150.6655         estimate D2E/DX2                !
 ! D292  D(42,38,78,81)         10.4968         estimate D2E/DX2                !
 ! D293  D(37,39,43,2)        -147.3925         estimate D2E/DX2                !
 ! D294  D(37,39,43,13)         -2.6802         estimate D2E/DX2                !
 ! D295  D(79,39,43,2)           5.7569         estimate D2E/DX2                !
 ! D296  D(79,39,43,13)        150.4692         estimate D2E/DX2                !
 ! D297  D(37,39,79,40)        140.8248         estimate D2E/DX2                !
 ! D298  D(37,39,79,82)          0.915          estimate D2E/DX2                !
 ! D299  D(43,39,79,40)        -12.1644         estimate D2E/DX2                !
 ! D300  D(43,39,79,82)       -152.0742         estimate D2E/DX2                !
 ! D301  D(44,40,41,45)         -0.0094         estimate D2E/DX2                !
 ! D302  D(44,40,41,80)       -148.7762         estimate D2E/DX2                !
 ! D303  D(79,40,41,45)        148.6771         estimate D2E/DX2                !
 ! D304  D(79,40,41,80)         -0.0897         estimate D2E/DX2                !
 ! D305  D(41,40,44,2)         150.1484         estimate D2E/DX2                !
 ! D306  D(41,40,44,47)         -2.8959         estimate D2E/DX2                !
 ! D307  D(79,40,44,2)           5.8146         estimate D2E/DX2                !
 ! D308  D(79,40,44,47)       -147.2297         estimate D2E/DX2                !
 ! D309  D(41,40,79,39)       -141.6671         estimate D2E/DX2                !
 ! D310  D(41,40,79,82)          2.8522         estimate D2E/DX2                !
 ! D311  D(44,40,79,39)          6.5893         estimate D2E/DX2                !
 ! D312  D(44,40,79,82)        151.1086         estimate D2E/DX2                !
 ! D313  D(40,41,45,4)        -150.2385         estimate D2E/DX2                !
 ! D314  D(40,41,45,48)          2.8983         estimate D2E/DX2                !
 ! D315  D(80,41,45,4)          -5.773          estimate D2E/DX2                !
 ! D316  D(80,41,45,48)        147.3638         estimate D2E/DX2                !
 ! D317  D(40,41,80,42)        141.9128         estimate D2E/DX2                !
 ! D318  D(40,41,80,82)         -2.7147         estimate D2E/DX2                !
 ! D319  D(45,41,80,42)         -6.4044         estimate D2E/DX2                !
 ! D320  D(45,41,80,82)       -151.032          estimate D2E/DX2                !
 ! D321  D(38,42,46,4)         147.2192         estimate D2E/DX2                !
 ! D322  D(38,42,46,14)          2.2809         estimate D2E/DX2                !
 ! D323  D(80,42,46,4)          -5.8884         estimate D2E/DX2                !
 ! D324  D(80,42,46,14)       -150.8267         estimate D2E/DX2                !
 ! D325  D(38,42,80,41)       -140.9074         estimate D2E/DX2                !
 ! D326  D(38,42,80,82)         -0.9139         estimate D2E/DX2                !
 ! D327  D(46,42,80,41)         12.0349         estimate D2E/DX2                !
 ! D328  D(46,42,80,82)        152.0285         estimate D2E/DX2                !
 ! D329  D(2,44,47,48)        -148.7099         estimate D2E/DX2                !
 ! D330  D(2,44,47,49)           5.0857         estimate D2E/DX2                !
 ! D331  D(40,44,47,48)          2.8728         estimate D2E/DX2                !
 ! D332  D(40,44,47,49)        156.6685         estimate D2E/DX2                !
 ! D333  D(4,45,48,47)         148.8346         estimate D2E/DX2                !
 ! D334  D(4,45,48,50)          -5.0287         estimate D2E/DX2                !
 ! D335  D(41,45,48,47)         -2.8443         estimate D2E/DX2                !
 ! D336  D(41,45,48,50)       -156.7076         estimate D2E/DX2                !
[...]
 Alpha virt. eigenvalues --    1.21140   1.21773   1.21831   1.21979   1.22267
 Alpha virt. eigenvalues --    1.22649   1.22910   1.23178   1.23580   1.23913
 Alpha virt. eigenvalues --    1.24040   1.24218   1.24741   1.24848   1.25299
 Alpha virt. eigenvalues --    1.25448   1.25804   1.26143   1.26312   1.26497
 Alpha virt. eigenvalues --    1.26767   1.26972   1.27178   1.28054   1.28100
 Alpha virt. eigenvalues --    1.28353   1.28617   1.28867   1.29014   1.29650
 Alpha virt. eigenvalues --    1.29733   1.30332   1.30455   1.30996   1.31130
 Alpha virt. eigenvalues --    1.31505   1.31875   1.31991   1.32484   1.32637
 Alpha virt. eigenvalues --    1.32872   1.33328   1.33540   1.33592   1.33847
 Alpha virt. eigenvalues --    1.34263   1.34584   1.35277   1.35425   1.36000
 Alpha virt. eigenvalues --    1.36610   1.36920   1.37378   1.38084   1.39000
 Alpha virt. eigenvalues --    1.39473   1.40297   1.40637   1.40780   1.41329
 Alpha virt. eigenvalues --    1.41875   1.42364   1.42749   1.43230   1.44060
 Alpha virt. eigenvalues --    1.44770   1.45210   1.45468   1.46355   1.46691
 Alpha virt. eigenvalues --    1.47612   1.47772   1.48112   1.48489   1.48987
 Alpha virt. eigenvalues --    1.49999   1.50778   1.51238   1.51800   1.52104
 Alpha virt. eigenvalues --    1.52715   1.53256   1.53513   1.53725   1.54710
 Alpha virt. eigenvalues --    1.54911   1.55270   1.55605   1.56094   1.56272
 Alpha virt. eigenvalues --    1.56422   1.56983   1.57260   1.57356   1.58392
 Alpha virt. eigenvalues --    1.58600   1.59825   1.59889   1.60302   1.60931
 Alpha virt. eigenvalues --    1.61634   1.62312   1.63501   1.64001   1.64136
 Alpha virt. eigenvalues --    1.64448   1.64517   1.64672   1.64911   1.65068
 Alpha virt. eigenvalues --    1.65393   1.65493   1.65695   1.66173   1.66629
 Alpha virt. eigenvalues --    1.66723   1.67031   1.67338   1.67419   1.67862
 Alpha virt. eigenvalues --    1.68389   1.68832   1.68851   1.69220   1.69619
 Alpha virt. eigenvalues --    1.69637   1.70067   1.70200   1.70295   1.70436
 Alpha virt. eigenvalues --    1.70501   1.70828   1.70969   1.71165   1.71536
 Alpha virt. eigenvalues --    1.71638   1.72049   1.72245   1.72319   1.72735
 Alpha virt. eigenvalues --    1.73043   1.73213   1.73536   1.73604   1.73921
 Alpha virt. eigenvalues --    1.74301   1.74551   1.74701   1.74944   1.75076
 Alpha virt. eigenvalues --    1.75581   1.75641   1.75994   1.76216   1.76550
 Alpha virt. eigenvalues --    1.76646   1.76819   1.76979   1.77385   1.77648
 Alpha virt. eigenvalues --    1.78075   1.78322   1.78559   1.78803   1.79217
 Alpha virt. eigenvalues --    1.79415   1.79547   1.79961   1.80408   1.80458
 Alpha virt. eigenvalues --    1.80955   1.81120   1.81377   1.81603   1.82253
 Alpha virt. eigenvalues --    1.83098   1.83356   1.83917   1.84372   1.85030
 Alpha virt. eigenvalues --    1.85459   1.85684   1.85922   1.86393   1.87198
 Alpha virt. eigenvalues --    1.87664   1.88090   1.88568   1.88648   1.89294
 Alpha virt. eigenvalues --    1.89321   1.89616   1.90533   1.90721   1.91375
 Alpha virt. eigenvalues --    1.92038   1.92769   1.92965   1.93585   1.93736
 Alpha virt. eigenvalues --    1.93987   1.94030   1.95002   1.95277   1.95543
 Alpha virt. eigenvalues --    1.95730   1.95913   1.96226   1.96381   1.96867
 Alpha virt. eigenvalues --    1.96940   1.97356   1.97423   1.97654   1.97905
 Alpha virt. eigenvalues --    1.98368   1.98653   1.98727   1.99011   1.99140
 Alpha virt. eigenvalues --    1.99546   1.99549   1.99893   2.00066   2.00304
 Alpha virt. eigenvalues --    2.00489   2.00886   2.00965   2.01011   2.01255
 Alpha virt. eigenvalues --    2.01465   2.01690   2.01872   2.02104   2.02162
 Alpha virt. eigenvalues --    2.02734   2.02980   2.03267   2.03428   2.03779
 Alpha virt. eigenvalues --    2.04329   2.04346   2.04601   2.04652   2.05031
 Alpha virt. eigenvalues --    2.05269   2.05844   2.06284   2.06455   2.06759
 Alpha virt. eigenvalues --    2.06909   2.07539   2.08770   2.09092   2.09397
 Alpha virt. eigenvalues --    2.09619   2.10293   2.10897   2.10980   2.11330
 Alpha virt. eigenvalues --    2.12101   2.12444   2.12542   2.12895   2.13224
 Alpha virt. eigenvalues --    2.13817   2.14032   2.14128   2.14913   2.15826
 Alpha virt. eigenvalues --    2.16955   2.17121   2.17418   2.18314   2.19082
 Alpha virt. eigenvalues --    2.19276   2.19590   2.19628   2.19997   2.20337
 Alpha virt. eigenvalues --    2.20895   2.21286   2.21492   2.21989   2.22410
 Alpha virt. eigenvalues --    2.22853   2.23485   2.23745   2.23944   2.24223
 Alpha virt. eigenvalues --    2.24635   2.24948   2.25473   2.25864   2.26098
 Alpha virt. eigenvalues --    2.26343   2.27472   2.27799   2.28285   2.28496
 Alpha virt. eigenvalues --    2.28671   2.29054   2.29384   2.29783   2.30165
 Alpha virt. eigenvalues --    2.30458   2.30647   2.31239   2.31498   2.31913
 Alpha virt. eigenvalues --    2.32191   2.32773   2.33007   2.33382   2.34371
 Alpha virt. eigenvalues --    2.34997   2.35831   2.36717   2.37109   2.37843
 Alpha virt. eigenvalues --    2.38410   2.39195   2.39717   2.39957   2.40708
 Alpha virt. eigenvalues --    2.40890   2.41339   2.41909   2.42336   2.42962
 Alpha virt. eigenvalues --    2.43390   2.43629   2.43936   2.44304   2.44551
 Alpha virt. eigenvalues --    2.44943   2.45566   2.45956   2.46869   2.47951
 Alpha virt. eigenvalues --    2.48221   2.48710   2.48932   2.49317   2.50572
 Alpha virt. eigenvalues --    2.51239   2.51769   2.52197   2.52410   2.52704
 Alpha virt. eigenvalues --    2.52946   2.53422   2.53775   2.54161   2.54821
 Alpha virt. eigenvalues --    2.55281   2.55827   2.55979   2.56407   2.56487
 Alpha virt. eigenvalues --    2.56680   2.56708   2.57263   2.57717   2.57974
 Alpha virt. eigenvalues --    2.58134   2.58524   2.58867   2.58998   2.59255
 Alpha virt. eigenvalues --    2.59382   2.59895   2.59913   2.60756   2.60966
 Alpha virt. eigenvalues --    2.61165   2.61285   2.61840   2.62497   2.62653
 Alpha virt. eigenvalues --    2.62724   2.63478   2.63699   2.63887   2.64618
 Alpha virt. eigenvalues --    2.64819   2.65214   2.65284   2.65862   2.66077
 Alpha virt. eigenvalues --    2.66550   2.66819   2.66889   2.67579   2.67823
 Alpha virt. eigenvalues --    2.68061   2.68473   2.69006   2.69161   2.69819
 Alpha virt. eigenvalues --    2.70387   2.70646   2.70881   2.71113   2.71506
 Alpha virt. eigenvalues --    2.71939   2.72318   2.72728   2.73068   2.73510
 Alpha virt. eigenvalues --    2.74208   2.75018   2.75368   2.75890   2.76639
 Alpha virt. eigenvalues --    2.76900   2.77123   2.77559   2.78401   2.78759
 Alpha virt. eigenvalues --    2.79243   2.79338   2.79815   2.80275   2.80624
 Alpha virt. eigenvalues --    2.80810   2.81327   2.81601   2.82522   2.82802
 Alpha virt. eigenvalues --    2.83062   2.83460   2.83631   2.84310   2.84714
 Alpha virt. eigenvalues --    2.85043   2.85701   2.86001   2.86757   2.87817
 Alpha virt. eigenvalues --    2.88057   2.88589   2.88954   2.89135   2.89790
 Alpha virt. eigenvalues --    2.90105   2.90844   2.91045   2.91293   2.92001
 Alpha virt. eigenvalues --    2.92341   2.92781   2.93022   2.93515   2.93643
 Alpha virt. eigenvalues --    2.93929   2.94650   2.94820   2.95236   2.96062
 Alpha virt. eigenvalues --    2.96420   2.96566   2.97077   2.98862   2.99673
 Alpha virt. eigenvalues --    3.00174   3.00457   3.00988   3.03102   3.03886
 Alpha virt. eigenvalues --    3.05836   3.06123   3.08532   3.10136   3.11162
 Alpha virt. eigenvalues --    3.11740   3.13329   3.14181   3.16298   3.17614
 Alpha virt. eigenvalues --    3.19541   3.20546   3.21167   3.21667   3.23207
 Alpha virt. eigenvalues --    3.24663   3.26096   3.28522   3.29548   3.30613
 Alpha virt. eigenvalues --    3.32712   3.34968   3.36397   3.37059   3.38145
 Alpha virt. eigenvalues --    3.38745   3.42471   3.43343   3.44918   3.45596
 Alpha virt. eigenvalues --    3.48738   3.49892   3.52032   3.53494   3.56788
 Alpha virt. eigenvalues --    3.60464   3.64960   4.01254   4.01694   4.01819
 Alpha virt. eigenvalues --    4.02232   4.02884   4.03348   4.03971   4.05200
 Alpha virt. eigenvalues --    4.05740   4.05847   4.06367   4.07240   4.07369
 Alpha virt. eigenvalues --    4.07598   4.08497   4.09235   4.09734   4.10825
 Alpha virt. eigenvalues --    4.10964   4.11421   4.11920   4.12680   4.14373
 Alpha virt. eigenvalues --    4.15925   4.16558   4.16896   4.17126   4.18874
 Alpha virt. eigenvalues --    4.20448   4.20609   4.21095   4.21690   4.22199
 Alpha virt. eigenvalues --    4.23323   4.23833   4.24749   4.26333   4.27196
 Alpha virt. eigenvalues --    4.28025   4.28445   4.29182   4.29717   4.30211
 Alpha virt. eigenvalues --    4.30668   4.32665   4.34793   4.34964   4.37078
 Alpha virt. eigenvalues --    4.37798   4.39135   4.41336   4.41809   4.44485
 Alpha virt. eigenvalues --    4.46338   4.47035   4.48110   4.48848   4.49613
 Alpha virt. eigenvalues --    4.51505   4.53286   4.54160   4.57145   4.58749
 Alpha virt. eigenvalues --    4.59191   4.60582   4.61756   4.64473   4.64821
 Alpha virt. eigenvalues --    4.67221   4.68263   4.70448   4.75086   4.77476
 Alpha virt. eigenvalues --    4.80908   4.82428   4.84643   4.87000   4.90539
 Alpha virt. eigenvalues --    4.92615   4.94397   4.98839   5.01344   5.07297
 Alpha virt. eigenvalues --    5.12304   5.14022   5.18661   5.20688   5.30135
          Condensed to atoms (all electrons):
 Mulliken charges:
               1
     1  C    0.002762
     2  C   -0.022676
     3  C   -0.024726
     4  C   -0.022682
     5  C    0.006915
     6  C   -0.015433
     7  C   -0.016243
     8  C   -0.016594
     9  C    0.045520
    10  C   -0.000931
    11  C   -0.002344
    12  C    0.051930
    13  C   -0.029071
    14  C   -0.029928
    15  C   -0.022455
    16  C   -0.024259
    17  C    0.048577
    18  C    0.057998
    19  C    0.047868
    20  C    0.058094
    21  C    0.004089
    22  C   -0.021920
    23  C    0.086855
    24  C   -0.008573
    25  C    0.087887
    26  C   -0.005534
    27  C   -0.372219
    28  C   -0.033706
    29  C    0.087517
    30  C   -0.000588
    31  C    0.086058
    32  C    0.071972
    33  C    0.002814
    34  C    0.004460
    35  C    0.036178
    36  C    0.034724
    37  C    0.047989
    38  C    0.048786
    39  C    0.055365
    40  C   -0.030671
    41  C   -0.030591
    42  C    0.052194
    43  C   -0.030930
    44  C    0.054343
    45  C    0.054497
    46  C   -0.030352
    47  C    0.048128
    48  C    0.046652
    49  C   -0.023465
    50  C   -0.023135
    51  C   -0.012392
    52  C   -0.009165
    53  C   -0.019625
    54  C   -0.022354
    55  C   -0.018017
    56  C   -0.020986
    57  C    0.009751
    58  C   -0.018760
    59  C    0.070041
    60  C    0.004799
    61  C   -0.354291
    62  C   -0.035852
    63  C    0.098340
    64  C    0.069220
    65  C    0.127921
    66  C    0.068752
    67  C    0.124315
    68  C    0.097357
    69  C   -0.369358
    70  C   -0.353548
    71  C    0.090450
    72  C    0.091464
    73  C    0.023535
    74  C    0.021607
    75  C   -0.016832
    76  C   -0.017668
    77  C   -0.024903
    78  C   -0.022123
    79  C   -0.022887
    80  C   -0.021864
    81  C   -0.003661
    82  C   -0.017951
    83  C    0.048450
    84  C    0.056140
    85  Cl   0.005596
    86  Cl   0.002194
    87  Cl  -0.010826
    88  Cl  -0.008013
 Sum of Mulliken charges =  -0.00000
 Mulliken charges with hydrogens summed into heavy atoms:
               1
     1  C    0.002762
     2  C   -0.022676
     3  C   -0.024726
     4  C   -0.022682
     5  C    0.006915
     6  C   -0.015433
     7  C   -0.016243
     8  C   -0.016594
     9  C    0.045520
    10  C   -0.000931
    11  C   -0.002344
    12  C    0.051930
    13  C   -0.029071
    14  C   -0.029928
    15  C   -0.022455
    16  C   -0.024259
    17  C    0.048577
    18  C    0.057998
    19  C    0.047868
    20  C    0.058094
    21  C    0.004089
    22  C   -0.021920
    23  C    0.086855
    24  C   -0.008573
    25  C    0.087887
    26  C   -0.005534
    27  C   -0.372219
    28  C   -0.033706
    29  C    0.087517
    30  C   -0.000588
    31  C    0.086058
    32  C    0.071972
    33  C    0.002814
    34  C    0.004460
    35  C    0.036178
    36  C    0.034724
    37  C    0.047989
    38  C    0.048786
    39  C    0.055365
    40  C   -0.030671
    41  C   -0.030591
    42  C    0.052194
    43  C   -0.030930
    44  C    0.054343
    45  C    0.054497
    46  C   -0.030352
    47  C    0.048128
    48  C    0.046652
    49  C   -0.023465
    50  C   -0.023135
    51  C   -0.012392
    52  C   -0.009165
    53  C   -0.019625
    54  C   -0.022354
    55  C   -0.018017
    56  C   -0.020986
    57  C    0.009751
    58  C   -0.018760
    59  C    0.070041
    60  C    0.004799
    61  C   -0.354291
    62  C   -0.035852
    63  C    0.098340
    64  C    0.069220
    65  C    0.127921
    66  C    0.068752
    67  C    0.124315
    68  C    0.097357
    69  C   -0.369358
    70  C   -0.353548
    71  C    0.090450
    72  C    0.091464
    73  C    0.023535
    74  C    0.021607
    75  C   -0.016832
    76  C   -0.017668
    77  C   -0.024903
    78  C   -0.022123
    79  C   -0.022887
    80  C   -0.021864
    81  C   -0.003661
    82  C   -0.017951
    83  C    0.048450
    84  C    0.056140
    85  Cl   0.005596
    86  Cl   0.002194
    87  Cl  -0.010826
    88  Cl  -0.008013
 Electronic spatial extent (au):  <R**2>=          41720.5298
 Charge=             -0.0000 electrons
 Dipole moment (field-independent basis, Debye):
    X=              5.5220    Y=             -0.5422    Z=              1.2951  Tot=              5.6977
 Quadrupole moment (field-independent basis, Debye-Ang):
   XX=           -529.6556   YY=           -507.8661   ZZ=           -502.9290
   XY=              5.8904   XZ=             -5.2202   YZ=             -0.6773
 Traceless Quadrupole moment (field-independent basis, Debye-Ang):
   XX=            -16.1720   YY=              5.6175   ZZ=             10.5545
   XY=              5.8904   XZ=             -5.2202   YZ=             -0.6773
 Octapole moment (field-independent basis, Debye-Ang**2):
  XXX=             13.6659  YYY=             -4.2042  ZZZ=             -8.5386  XYY=              8.1044
  XXY=             10.0998  XXZ=              1.7590  XZZ=            -30.8063  YZZ=             10.5149
  YYZ=             17.1706  XYZ=              7.5684
 Hexadecapole moment (field-independent basis, Debye-Ang**3):
 XXXX=         -23941.9998 YYYY=         -20277.3058 ZZZZ=         -17070.9907 XXXY=            -51.6898
 XXXZ=             61.1685 YYYX=             58.7102 YYYZ=             42.9895 ZZZX=            -13.1964
 ZZZY=             -7.7837 XXYY=          -7462.1197 XXZZ=          -6807.6429 YYZZ=          -6251.4106
 XXYZ=            -39.5832 YYXZ=            -50.3300 ZZXY=            -17.7696
 N-N= 1.719630330874D+04 E-N=-4.617163451042D+04  KE= 5.006221523240D+03
 No NMR shielding tensors so no spin-rotation constants.
 Leave Link  601 at Tue Jun 28 06:47:22 2022, MaxMem=  1342177280 cpu:              22.6 elap:               1.2
 (Enter /home/mkliu/g16/l9999.exe)
 1\1\GINC-NODE01\FOpt\RB3LYP\6-31G(d,p)\C84Cl4\MKLIU\28-Jun-2022\0\\#P 
 opt b3lyp/6-31G(d, p) empiricaldispersion=GD3\\force\\0,1\C,8.28876273
 7,18.8946983484,10.5462905793\C,12.3310773423,20.1501279625,8.94839329
 41\C,8.2725918192,26.9002817954,10.5306244677\C,12.3143963335,25.61511
 45294,8.952929762\C,7.9725549349,18.9522194663,9.1554824894\C,11.89695
 97251,19.5712577142,10.1963660819\C,7.9661855705,26.8598780298,9.13584
 95388\C,11.8766234619,26.1892765007,10.1981388769\C,8.9825020157,19.09
 72903908,8.1591616752\C,12.1630227752,20.2194253418,11.3742645563\C,12
 .1437119446,25.5404732135,11.375635048\C,8.9725799355,26.6970232333,8.
 1415741958\C,10.3179516892,19.0086341459,8.6170361099\C,10.3069092376,
 26.7636247395,8.6107523467\C,10.6340121685,18.8937341318,9.9965468353\
 C,10.613670239,26.8682968269,9.997062309\C,9.6296195372,18.9323553025,
 11.0054315371\C,9.6037477355,26.8328309396,11.0008164852\C,9.907242142
 4,19.6229521922,12.2562707025\C,9.8850920973,26.1259465437,12.26777318
 34\C,8.818117836,20.2355749007,12.9371443311\C,8.8146536331,25.5129752
 256,12.9669340182\C,7.4735161665,20.1640348448,12.43364704\C,7.4661671
 389,25.5136478527,12.4099736002\C,7.2170811783,19.5086253079,11.278733
 4951\C,7.1988892141,26.2000749725,11.2302095949\C,6.1002097787,19.9344
 418707,10.3491849425\C,6.2964214783,25.6612485564,10.2923556799\C,6.68
 36030442,19.5502273649,9.009348145\C,6.6946916155,26.1946816621,8.9973
 45015\C,6.3812443112,20.2162282549,7.8740382875\C,6.3847582253,25.5441
 205763,7.8535637775\C,7.3514224502,20.3247620803,6.8206356019\C,7.3431
 048622,25.4481775705,6.7947647878\C,8.6846417299,19.8573854616,6.95718
 55095\C,8.6774917295,25.9217512518,6.9407289049\C,9.7521763164,20.5849
 398783,6.267735317\C,9.746002558,25.1857454758,6.263061185\C,11.104080
 7847,20.5690820406,6.832665195\C,12.8076152405,22.1560495669,7.7238123
 54\C,12.8020436981,23.6145305476,7.7246799535\C,11.0974911674,25.20267
 72681,6.8303056444\C,11.3726626746,19.7685856262,7.9620981261\C,12.970
 3882013,21.4249168637,8.9171742064\C,12.9605068697,24.3437129493,8.919
 6764582\C,11.3605757032,26.0010982067,7.9604509029\C,13.2100194583,22.
 150966755,10.1703818759\C,13.2041265452,23.6173599778,10.1706246721\C,
 12.8768969104,21.4847701293,11.3728198326\C,12.8656460136,24.281392226
 3,11.3733024764\C,12.4242391295,22.1932310995,12.5330006656\C,12.41781
 22733,23.5692124964,12.5327469282\C,11.180744556,20.2309223091,12.4435
 136796\C,11.1642322552,25.5258212632,12.4482097339\C,11.3362624863,21.
 4541392362,13.1559990672\C,11.3321270757,24.3038482143,13.1624497855\C
 ,8.9776334724,21.4644665086,13.6460416782\C,8.9817638637,24.2840326802
 ,13.6717811081\C,7.7444259619,22.1841668783,13.5668842747\C,7.74580446
 87,23.5408139953,13.5463968095\C,6.681676215,21.3892504781,12.83216844
 03\C,6.851349972,24.2688565614,12.655040895\C,6.1422658951,22.14396542
 43,11.5976152084\C,6.1385177628,23.5862285464,11.6191345195\C,5.867311
 3062,21.4585574883,10.4166040834\C,5.8434942021,24.3088867279,10.40066
 62295\C,5.5557248667,22.1796376757,9.2026440992\C,5.541983491,23.57280
 35064,9.1956987493\C,5.4319046739,21.3994121592,7.8746028799\C,5.43523
 24786,24.3563521964,7.868171851\C,5.9604128031,22.200435055,6.70306409
 36\C,5.9555804499,23.5590265516,6.6947092272\C,7.0302028644,21.4875386
 862,6.0569986112\C,7.0235931385,24.2745426287,6.0436694896\C,8.0394262
 167,22.1580889103,5.3780412042\C,8.0368893813,23.6022092015,5.37227443
 06\C,9.3920702288,21.6971794925,5.4694754378\C,9.3870785716,24.0675047
 12,5.4691918118\C,11.9470781356,21.7089523548,6.6786558456\C,11.942751
 8336,24.0614219612,6.6775703247\C,10.2304709282,22.8828395164,5.410726
 9184\C,11.4665391254,22.8862145603,5.9991678122\C,10.230354759,22.1435
 615236,13.7176832998\C,10.2298728004,23.6082556354,13.7293078212\Cl,4.
 5297805101,19.0380859932,10.7155057694\Cl,3.6731249311,20.8992063357,7
 .6145893784\Cl,3.6800840458,24.8974375212,7.6265459941\Cl,5.270454032,
 20.9881195244,13.9632086746\\Version=ES64L-G16RevA.03\State=1-A\HF=-50
 41.8256586\RMSD=4.618e-09\RMSF=8.324e-05\Dipole=2.2102371,0.3507477,-0
 .1298229\Quadrupole=-11.9855496,5.3239088,6.6616407,-4.9444055,2.36244
 39,2.8409724\PG=C01 [X(C84Cl4)]\\@


 THE RARE EARTHS PERPLEX US IN OUR RESEARCHES,
 BAFFLE US IN OUR SPECULATIONS, AND HAUNT US IN OUR
 VERY DREAMS.  THEY STRETCH LIKE AN UNKNOWN BEFORE US,
 MOCKING, MYSTIFYING, AND MURMURING STRANGE REVELATIONS
 AND POSSIBILITIES.  -- SIR WILLIAM CROOKE, 1832-1919
 Job cpu time:       1 days  0 hours 33 minutes 23.9 seconds.
 Elapsed time:       0 days  1 hours  1 minutes 29.5 seconds.
 File lengths (MBytes):  RWF=   1098 Int=      0 D2E=      0 Chk=    138 Scr=      1
 Normal termination of Gaussian 16 at Tue Jun 28 06:47:23 2022.
