 Entering Gaussian System, Link 0=g16
 Input=4_addons_C84_14_Cl22_rank_0.gjf
 Output=4_addons_C84_14_Cl22_rank_0.log
 Initial command:
 /home/mkliu/g16/l1.exe "/data/scratch/Gau-131101.inp" -scrdir="/data/scratch/"
 Entering Link 1 = /home/mkliu/g16/l1.exe PID=    131102.
  
 Copyright (c) 1988,1990,1992,1993,1995,1998,2003,2009,2016,
            Gaussian, Inc.  All Rights Reserved.
  
 This is part of the Gaussian(R) 16 program.  It is based on
 the Gaussian(R) 09 system (copyright 2009, Gaussian, Inc.),
 the Gaussian(R) 03 system (copyright 2003, Gaussian, Inc.),
 the Gaussian(R) 98 system (copyright 1998, Gaussian, Inc.),
 the Gaussian(R) 94 system (copyright 1995, Gaussian, Inc.),
 the Gaussian 92(TM) system (copyright 1992, Gaussian, Inc.),
 the Gaussian 90(TM) system (copyright 1990, Gaussian, Inc.),
 the Gaussian 88(TM) system (copyright 1988, Gaussian, Inc.),
 the Gaussian 86(TM) system (copyright 1986, Carnegie Mellon
 University), and the Gaussian 82(TM) system (copyright 1983,
 Carnegie Mellon University). Gaussian is a federally registered
 trademark of Gaussian, Inc.
  
 This software contains proprietary and confidential information,
 including trade secrets, belonging to Gaussian, Inc.
  
 This software is provided under written license and may be
 used, copied, transmitted, or stored only in accord with that
 written license.
  
 The following legend is applicable only to US Government
 contracts under FAR:
  
                    RESTRICTED RIGHTS LEGEND
  
 Use, reproduction and disclosure by the US Government is
 subject to restrictions as set forth in subparagraphs (a)
 and (c) of the Commercial Computer Software - Restricted
 Rights clause in FAR 52.227-19.
  
 Gaussian, Inc.
 340 Quinnipiac St., Bldg. 40, Wallingford CT 06492
  
  
 ---------------------------------------------------------------
 Warning -- This program may not be used in any manner that
 competes with the business of Gaussian, Inc. or will provide
 assistance to any competitor of Gaussian, Inc.  The licensee
 of this program is prohibited from giving any competitor of
 Gaussian, Inc. access to this program.  By using this program,
 the user acknowledges that Gaussian, Inc. is engaged in the
 business of creating and licensing software in the field of
 computational chemistry and represents and warrants to the
 licensee that it is not a competitor of Gaussian, Inc. and that
 it will not use this program in any manner prohibited above.
 ---------------------------------------------------------------
  

 Cite this work as:
 Gaussian 16, Revision A.03,
 M. J. Frisch, G. W. Trucks, H. B. Schlegel, G. E. Scuseria, 
 M. A. Robb, J. R. Cheeseman, G. Scalmani, V. Barone, 
 G. A. Petersson, H. Nakatsuji, X. Li, M. Caricato, A. V. Marenich, 
 J. Bloino, B. G. Janesko, R. Gomperts, B. Mennucci, H. P. Hratchian, 
 J. V. Ortiz, A. F. Izmaylov, J. L. Sonnenberg, D. Williams-Young, 
 F. Ding, F. Lipparini, F. Egidi, J. Goings, B. Peng, A. Petrone, 
 T. Henderson, D. Ranasinghe, V. G. Zakrzewski, J. Gao, N. Rega, 
 G. Zheng, W. Liang, M. Hada, M. Ehara, K. Toyota, R. Fukuda, 
 J. Hasegawa, M. Ishida, T. Nakajima, Y. Honda, O. Kitao, H. Nakai, 
 T. Vreven, K. Throssell, J. A. Montgomery, Jr., J. E. Peralta, 
 F. Ogliaro, M. J. Bearpark, J. J. Heyd, E. N. Brothers, K. N. Kudin, 
 V. N. Staroverov, T. A. Keith, R. Kobayashi, J. Normand, 
 K. Raghavachari, A. P. Rendell, J. C. Burant, S. S. Iyengar, 
 J. Tomasi, M. Cossi, J. M. Millam, M. Klene, C. Adamo, R. Cammi, 
 J. W. Ochterski, R. L. Martin, K. Morokuma, O. Farkas, 
 J. B. Foresman, and D. J. Fox, Gaussian, Inc., Wallingford CT, 2016.
 
 ******************************************
 Gaussian 16:  ES64L-G16RevA.03 25-Dec-2016
                29-Jun-2022 
 ******************************************
 %mem=10GB
 %chk=4_addons_C84_14_Cl22_rank_0.chk
 %nprocshared=24
 Will use up to   24 processors via shared memory.
 ------------------------------------------------
 #P opt b3lyp/6-31G(d, p) empiricaldispersion=GD3
 ------------------------------------------------
 1/18=20,19=15,26=3,38=1/1,3;
 2/9=110,12=2,17=6,18=5,40=1/2;
 3/5=1,6=6,7=101,11=2,25=1,30=1,71=1,74=-5,124=31/1,2,3;
 4//1;
 5/5=2,38=5/2;
 6/7=2,8=2,9=2,10=2,28=1/1;
 7//1,2,3,16;
 1/18=20,19=15,26=3/3(2);
 2/9=110/2;
 99//99;
 2/9=110/2;
 3/5=1,6=6,7=101,11=2,25=1,30=1,71=1,74=-5,124=31/1,2,3;
 4/5=5,16=3,69=1/1;
 5/5=2,38=5/2;
 7//1,2,3,16;
 1/18=20,19=15,26=3/3(-5);
 2/9=110/2;
 6/7=2,8=2,9=2,10=2,19=2,28=1/1;
 99/9=1/99;
 Leave Link    1 at Wed Jun 29 01:43:32 2022, MaxMem=  1342177280 cpu:               0.7 elap:               0.1
 (Enter /home/mkliu/g16/l101.exe)
 -----
 force
 -----
 Symbolic Z-matrix:
 Charge =  0 Multiplicity = 1
 C                     8.2952    18.90446   10.53926 
 C                     12.29221   20.17038   8.94598 
 C                     8.2923    26.84558   10.54082 
 C                     12.29023   25.58324   8.94705 
 C                     7.97872   18.94338   9.15189 
 C                     11.87053   19.58739   10.18327 
 C                     7.97585   26.80698   9.15343 
 C                     11.86813   26.16543   10.18457 
 C                     8.97203   19.09726   8.14905 
 C                     12.14357   20.23057   11.362 
 C                     12.14164   25.52198   11.36305 
 C                     8.96928   26.65422   8.15053 
 C                     10.29615   19.0323   8.61199 
 C                     10.29335   26.71998   8.61351 
 C                     10.61507   18.91936   9.98928 
 C                     10.61218   26.8326   9.99084 
 C                     9.62776   18.94913   10.99859 
 C                     9.62489   26.80171   11.00014 
 C                     9.90309   19.63875   12.23282 
 C                     9.90073   26.11181   12.2341 
 C                     8.82501   20.25786   12.90529 
 C                     8.8231    25.49164   12.90633 
 C                     7.49168   20.19383   12.40731 
 C                     7.48972   25.55488   12.40836 
 C                     7.23284   19.52246   11.26121 
 C                     7.2304    26.22652   11.26252 
 C                     6.12782   19.95007   10.34396 
 C                     6.12569   25.79845   10.34511 
 C                     6.70558   19.54637   9.01951 
 C                     6.70315   26.2031   9.02082 
 C                     6.41419   20.23048   7.88648 
 C                     6.41226   25.51923   7.88751 
 C                     7.34996   20.29124   6.79717 
 C                     7.34809   25.45958   6.79818 
 C                     8.67532   19.84204   6.94689 
 C                     8.67312   25.9097   6.94808 
 C                     9.72639   20.58133   6.27741 
 C                     9.72472   25.17145   6.27831 
 C                     11.06327   20.57524   6.83753 
 C                     12.75506   22.15651   7.73287 
 C                     12.75454   23.59792   7.73316 
 C                     11.0616   25.17831   6.83843 
 C                     11.33717   19.78629   7.96362 
 C                     12.93035   21.4317   8.92132 
 C                     12.92931   24.3224   8.92189 
 C                     11.33492   25.96701   7.96483 
 C                     13.17411   22.15062   10.15857 
 C                     13.17358   23.60317   10.15886 
 C                     12.85071   21.48712   11.35307 
 C                     12.8497   24.26596   11.35362 
 C                     12.4016   22.18984   12.51094 
 C                     12.4011   23.56244   12.51122 
 C                     11.16751   20.24365   12.41686 
 C                     11.16559   25.50776   12.41791 
 C                     11.32129   21.46257   13.12615 
 C                     11.32025   24.28868   13.12672 
 C                     8.97848   21.48593   13.60078 
 C                     8.97747   24.2634   13.60133 
 C                     7.7476    22.19706   13.53057 
 C                     7.74711   23.55139   13.53082 
 C                     6.6991    21.40641   12.80603 
 C                     6.69803   24.34156   12.80658 
 C                     6.21764   22.16012   11.5681 
 C                     6.21712   23.58797   11.56837 
 C                     5.91813   21.46081   10.41027 
 C                     5.9171    24.28752   10.41082 
 C                     5.58907   22.15581   9.20499 
 C                     5.58856   23.59275   9.20527 
 C                     5.69247   21.48319   7.95879 
 C                     5.69145   24.26596   7.95933 
 C                     5.98562   22.1795   6.77013 
 C                     5.98512   23.57032   6.77041 
 C                     7.01574   21.45974   6.05308 
 C                     7.01471   24.29112   6.05364 
 C                     8.01387   22.15172   5.40082 
 C                     8.01334   23.60014   5.40111 
 C                     9.36051   21.69653   5.49764 
 C                     9.35965   24.05629   5.4981 
 C                     11.89842   21.70871   6.69394 
 C                     11.89757   24.04549   6.69439 
 C                     10.18655   22.87672   5.43808 
 C                     11.42426   22.87706   6.01857 
 C                     10.22247   22.15416   13.67661 
 C                     10.22194   23.59606   13.6769 
 Cl                    4.5567    19.13334   10.69598 
 Cl                    5.26859   21.01993   13.83419 
 Cl                    5.26723   24.72656   13.83491 
 Cl                    4.55397   26.61389   10.69746 
 
 ITRead=  0  0  0  0  0  0  0  0  0  0  0  0  0  0  0  0  0  0  0  0
 ITRead=  0  0  0  0  0  0  0  0  0  0  0  0  0  0  0  0  0  0  0  0
 ITRead=  0  0  0  0  0  0  0  0  0  0  0  0  0  0  0  0  0  0  0  0
 ITRead=  0  0  0  0  0  0  0  0  0  0  0  0  0  0  0  0  0  0  0  0
 ITRead=  0  0  0  0  0  0  0  0
 MicOpt= -1 -1 -1 -1 -1 -1 -1 -1 -1 -1 -1 -1 -1 -1 -1 -1 -1 -1 -1 -1
 MicOpt= -1 -1 -1 -1 -1 -1 -1 -1 -1 -1 -1 -1 -1 -1 -1 -1 -1 -1 -1 -1
 MicOpt= -1 -1 -1 -1 -1 -1 -1 -1 -1 -1 -1 -1 -1 -1 -1 -1 -1 -1 -1 -1
 MicOpt= -1 -1 -1 -1 -1 -1 -1 -1 -1 -1 -1 -1 -1 -1 -1 -1 -1 -1 -1 -1
 MicOpt= -1 -1 -1 -1 -1 -1 -1 -1
 NAtoms=     88 NQM=       88 NQMF=       0 NMMI=      0 NMMIF=      0
                NMic=       0 NMicF=      0.
                    Isotopes and Nuclear Properties:
 (Nuclear quadrupole moments (NQMom) in fm**2, nuclear magnetic moments (NMagM)
  in nuclear magnetons)

  Atom         1           2           3           4           5           6           7           8           9          10
 IAtWgt=          12          12          12          12          12          12          12          12          12          12
 AtmWgt=  12.0000000  12.0000000  12.0000000  12.0000000  12.0000000  12.0000000  12.0000000  12.0000000  12.0000000  12.0000000
 NucSpn=           0           0           0           0           0           0           0           0           0           0
 AtZEff=  -0.0000000  -0.0000000  -0.0000000  -0.0000000  -0.0000000  -0.0000000  -0.0000000  -0.0000000  -0.0000000  -0.0000000
 NQMom=    0.0000000   0.0000000   0.0000000   0.0000000   0.0000000   0.0000000   0.0000000   0.0000000   0.0000000   0.0000000
 NMagM=    0.0000000   0.0000000   0.0000000   0.0000000   0.0000000   0.0000000   0.0000000   0.0000000   0.0000000   0.0000000
 AtZNuc=   6.0000000   6.0000000   6.0000000   6.0000000   6.0000000   6.0000000   6.0000000   6.0000000   6.0000000   6.0000000

  Atom        11          12          13          14          15          16          17          18          19          20
 IAtWgt=          12          12          12          12          12          12          12          12          12          12
 AtmWgt=  12.0000000  12.0000000  12.0000000  12.0000000  12.0000000  12.0000000  12.0000000  12.0000000  12.0000000  12.0000000
 NucSpn=           0           0           0           0           0           0           0           0           0           0
 AtZEff=  -0.0000000  -0.0000000  -0.0000000  -0.0000000  -0.0000000  -0.0000000  -0.0000000  -0.0000000  -0.0000000  -0.0000000
 NQMom=    0.0000000   0.0000000   0.0000000   0.0000000   0.0000000   0.0000000   0.0000000   0.0000000   0.0000000   0.0000000
 NMagM=    0.0000000   0.0000000   0.0000000   0.0000000   0.0000000   0.0000000   0.0000000   0.0000000   0.0000000   0.0000000
 AtZNuc=   6.0000000   6.0000000   6.0000000   6.0000000   6.0000000   6.0000000   6.0000000   6.0000000   6.0000000   6.0000000

  Atom        21          22          23          24          25          26          27          28          29          30
 IAtWgt=          12          12          12          12          12          12          12          12          12          12
 AtmWgt=  12.0000000  12.0000000  12.0000000  12.0000000  12.0000000  12.0000000  12.0000000  12.0000000  12.0000000  12.0000000
 NucSpn=           0           0           0           0           0           0           0           0           0           0
 AtZEff=  -0.0000000  -0.0000000  -0.0000000  -0.0000000  -0.0000000  -0.0000000  -0.0000000  -0.0000000  -0.0000000  -0.0000000
 NQMom=    0.0000000   0.0000000   0.0000000   0.0000000   0.0000000   0.0000000   0.0000000   0.0000000   0.0000000   0.0000000
 NMagM=    0.0000000   0.0000000   0.0000000   0.0000000   0.0000000   0.0000000   0.0000000   0.0000000   0.0000000   0.0000000
 AtZNuc=   6.0000000   6.0000000   6.0000000   6.0000000   6.0000000   6.0000000   6.0000000   6.0000000   6.0000000   6.0000000

  Atom        31          32          33          34          35          36          37          38          39          40
 IAtWgt=          12          12          12          12          12          12          12          12          12          12
 AtmWgt=  12.0000000  12.0000000  12.0000000  12.0000000  12.0000000  12.0000000  12.0000000  12.0000000  12.0000000  12.0000000
 NucSpn=           0           0           0           0           0           0           0           0           0           0
 AtZEff=  -0.0000000  -0.0000000  -0.0000000  -0.0000000  -0.0000000  -0.0000000  -0.0000000  -0.0000000  -0.0000000  -0.0000000
 NQMom=    0.0000000   0.0000000   0.0000000   0.0000000   0.0000000   0.0000000   0.0000000   0.0000000   0.0000000   0.0000000
 NMagM=    0.0000000   0.0000000   0.0000000   0.0000000   0.0000000   0.0000000   0.0000000   0.0000000   0.0000000   0.0000000
 AtZNuc=   6.0000000   6.0000000   6.0000000   6.0000000   6.0000000   6.0000000   6.0000000   6.0000000   6.0000000   6.0000000

  Atom        41          42          43          44          45          46          47          48          49          50
 IAtWgt=          12          12          12          12          12          12          12          12          12          12
 AtmWgt=  12.0000000  12.0000000  12.0000000  12.0000000  12.0000000  12.0000000  12.0000000  12.0000000  12.0000000  12.0000000
 NucSpn=           0           0           0           0           0           0           0           0           0           0
 AtZEff=  -0.0000000  -0.0000000  -0.0000000  -0.0000000  -0.0000000  -0.0000000  -0.0000000  -0.0000000  -0.0000000  -0.0000000
 NQMom=    0.0000000   0.0000000   0.0000000   0.0000000   0.0000000   0.0000000   0.0000000   0.0000000   0.0000000   0.0000000
 NMagM=    0.0000000   0.0000000   0.0000000   0.0000000   0.0000000   0.0000000   0.0000000   0.0000000   0.0000000   0.0000000
 AtZNuc=   6.0000000   6.0000000   6.0000000   6.0000000   6.0000000   6.0000000   6.0000000   6.0000000   6.0000000   6.0000000

  Atom        51          52          53          54          55          56          57          58          59          60
 IAtWgt=          12          12          12          12          12          12          12          12          12          12
 AtmWgt=  12.0000000  12.0000000  12.0000000  12.0000000  12.0000000  12.0000000  12.0000000  12.0000000  12.0000000  12.0000000
 NucSpn=           0           0           0           0           0           0           0           0           0           0
 AtZEff=  -0.0000000  -0.0000000  -0.0000000  -0.0000000  -0.0000000  -0.0000000  -0.0000000  -0.0000000  -0.0000000  -0.0000000
 NQMom=    0.0000000   0.0000000   0.0000000   0.0000000   0.0000000   0.0000000   0.0000000   0.0000000   0.0000000   0.0000000
 NMagM=    0.0000000   0.0000000   0.0000000   0.0000000   0.0000000   0.0000000   0.0000000   0.0000000   0.0000000   0.0000000
 AtZNuc=   6.0000000   6.0000000   6.0000000   6.0000000   6.0000000   6.0000000   6.0000000   6.0000000   6.0000000   6.0000000

  Atom        61          62          63          64          65          66          67          68          69          70
 IAtWgt=          12          12          12          12          12          12          12          12          12          12
 AtmWgt=  12.0000000  12.0000000  12.0000000  12.0000000  12.0000000  12.0000000  12.0000000  12.0000000  12.0000000  12.0000000
 NucSpn=           0           0           0           0           0           0           0           0           0           0
 AtZEff=  -0.0000000  -0.0000000  -0.0000000  -0.0000000  -0.0000000  -0.0000000  -0.0000000  -0.0000000  -0.0000000  -0.0000000
 NQMom=    0.0000000   0.0000000   0.0000000   0.0000000   0.0000000   0.0000000   0.0000000   0.0000000   0.0000000   0.0000000
 NMagM=    0.0000000   0.0000000   0.0000000   0.0000000   0.0000000   0.0000000   0.0000000   0.0000000   0.0000000   0.0000000
 AtZNuc=   6.0000000   6.0000000   6.0000000   6.0000000   6.0000000   6.0000000   6.0000000   6.0000000   6.0000000   6.0000000

  Atom        71          72          73          74          75          76          77          78          79          80
 IAtWgt=          12          12          12          12          12          12          12          12          12          12
 AtmWgt=  12.0000000  12.0000000  12.0000000  12.0000000  12.0000000  12.0000000  12.0000000  12.0000000  12.0000000  12.0000000
 NucSpn=           0           0           0           0           0           0           0           0           0           0
 AtZEff=  -0.0000000  -0.0000000  -0.0000000  -0.0000000  -0.0000000  -0.0000000  -0.0000000  -0.0000000  -0.0000000  -0.0000000
 NQMom=    0.0000000   0.0000000   0.0000000   0.0000000   0.0000000   0.0000000   0.0000000   0.0000000   0.0000000   0.0000000
 NMagM=    0.0000000   0.0000000   0.0000000   0.0000000   0.0000000   0.0000000   0.0000000   0.0000000   0.0000000   0.0000000
 AtZNuc=   6.0000000   6.0000000   6.0000000   6.0000000   6.0000000   6.0000000   6.0000000   6.0000000   6.0000000   6.0000000

  Atom        81          82          83          84          85          86          87          88
 IAtWgt=          12          12          12          12          35          35          35          35
 AtmWgt=  12.0000000  12.0000000  12.0000000  12.0000000  34.9688527  34.9688527  34.9688527  34.9688527
 NucSpn=           0           0           0           0           3           3           3           3
 AtZEff=  -0.0000000  -0.0000000  -0.0000000  -0.0000000  -0.0000000  -0.0000000  -0.0000000  -0.0000000
 NQMom=    0.0000000   0.0000000   0.0000000   0.0000000  -8.1650000  -8.1650000  -8.1650000  -8.1650000
 NMagM=    0.0000000   0.0000000   0.0000000   0.0000000   0.8218740   0.8218740   0.8218740   0.8218740
 AtZNuc=   6.0000000   6.0000000   6.0000000   6.0000000  17.0000000  17.0000000  17.0000000  17.0000000
 Leave Link  101 at Wed Jun 29 01:43:33 2022, MaxMem=  1342177280 cpu:               6.4 elap:               0.3
 (Enter /home/mkliu/g16/l103.exe)

 GradGradGradGradGradGradGradGradGradGradGradGradGradGradGradGradGradGrad
 Berny optimization.
 Initialization pass.
                           ----------------------------
                           !    Initial Parameters    !
                           ! (Angstroms and Degrees)  !
 --------------------------                            --------------------------
 ! Name  Definition              Value          Derivative Info.                !
 --------------------------------------------------------------------------------
 ! R1    R(1,5)                  1.4235         estimate D2E/DX2                !
 ! R2    R(1,17)                 1.4102         estimate D2E/DX2                !
 ! R3    R(1,25)                 1.4254         estimate D2E/DX2                !
 ! R4    R(2,6)                  1.4313         estimate D2E/DX2                !
 ! R5    R(2,43)                 1.4229         estimate D2E/DX2                !
 ! R6    R(2,44)                 1.4138         estimate D2E/DX2                !
 ! R7    R(3,7)                  1.4235         estimate D2E/DX2                !
 ! R8    R(3,18)                 1.4102         estimate D2E/DX2                !
 ! R9    R(3,26)                 1.4254         estimate D2E/DX2                !
 ! R10   R(4,8)                  1.4313         estimate D2E/DX2                !
 ! R11   R(4,45)                 1.4138         estimate D2E/DX2                !
 ! R12   R(4,46)                 1.4229         estimate D2E/DX2                !
 ! R13   R(5,9)                  1.4199         estimate D2E/DX2                !
 ! R14   R(5,29)                 1.4149         estimate D2E/DX2                !
 ! R15   R(6,10)                 1.3703         estimate D2E/DX2                !
 ! R16   R(6,15)                 1.4353         estimate D2E/DX2                !
 ! R17   R(7,12)                 1.4199         estimate D2E/DX2                !
 ! R18   R(7,30)                 1.4149         estimate D2E/DX2                !
 ! R19   R(8,11)                 1.3703         estimate D2E/DX2                !
 ! R20   R(8,16)                 1.4353         estimate D2E/DX2                !
 ! R21   R(9,13)                 1.4042         estimate D2E/DX2                !
 ! R22   R(9,35)                 1.445          estimate D2E/DX2                !
 ! R23   R(10,49)                1.4419         estimate D2E/DX2                !
 ! R24   R(10,53)                1.4372         estimate D2E/DX2                !
 ! R25   R(11,50)                1.4419         estimate D2E/DX2                !
 ! R26   R(11,54)                1.4372         estimate D2E/DX2                !
 ! R27   R(12,14)                1.4042         estimate D2E/DX2                !
 ! R28   R(12,36)                1.445          estimate D2E/DX2                !
 ! R29   R(13,15)                1.4182         estimate D2E/DX2                !
 ! R30   R(13,43)                1.4397         estimate D2E/DX2                !
 ! R31   R(14,16)                1.4182         estimate D2E/DX2                !
 ! R32   R(14,46)                1.4397         estimate D2E/DX2                !
 ! R33   R(15,17)                1.4122         estimate D2E/DX2                !
 ! R34   R(16,18)                1.4122         estimate D2E/DX2                !
 ! R35   R(17,19)                1.4404         estimate D2E/DX2                !
 ! R36   R(18,20)                1.4404         estimate D2E/DX2                !
 ! R37   R(19,21)                1.4134         estimate D2E/DX2                !
 ! R38   R(19,53)                1.4137         estimate D2E/DX2                !
 ! R39   R(20,22)                1.4134         estimate D2E/DX2                !
 ! R40   R(20,54)                1.4137         estimate D2E/DX2                !
 ! R41   R(21,23)                1.4247         estimate D2E/DX2                !
 ! R42   R(21,57)                1.4197         estimate D2E/DX2                !
 ! R43   R(22,24)                1.4247         estimate D2E/DX2                !
 ! R44   R(22,58)                1.4197         estimate D2E/DX2                !
 ! R45   R(23,25)                1.3532         estimate D2E/DX2                !
 ! R46   R(23,61)                1.5025         estimate D2E/DX2                !
 ! R47   R(24,26)                1.3532         estimate D2E/DX2                !
 ! R48   R(24,62)                1.5025         estimate D2E/DX2                !
 ! R49   R(25,27)                1.4984         estimate D2E/DX2                !
 ! R50   R(26,28)                1.4984         estimate D2E/DX2                !
 ! R51   R(27,29)                1.5003         estimate D2E/DX2                !
 ! R52   R(27,65)                1.5267         estimate D2E/DX2                !
 ! R53   R(27,85)                1.8054         estimate D2E/DX2                !
 ! R54   R(28,30)                1.5003         estimate D2E/DX2                !
 ! R55   R(28,66)                1.5267         estimate D2E/DX2                !
 ! R56   R(28,88)                1.8054         estimate D2E/DX2                !
 ! R57   R(29,31)                1.3552         estimate D2E/DX2                !
 ! R58   R(30,32)                1.3552         estimate D2E/DX2                !
 ! R59   R(31,33)                1.4373         estimate D2E/DX2                !
 ! R60   R(31,69)                1.4475         estimate D2E/DX2                !
 ! R61   R(32,34)                1.4373         estimate D2E/DX2                !
 ! R62   R(32,70)                1.4476         estimate D2E/DX2                !
 ! R63   R(33,35)                1.4074         estimate D2E/DX2                !
 ! R64   R(33,73)                1.4251         estimate D2E/DX2                !
 ! R65   R(34,36)                1.4074         estimate D2E/DX2                !
 ! R66   R(34,74)                1.4251         estimate D2E/DX2                !
 ! R67   R(35,37)                1.449          estimate D2E/DX2                !
 ! R68   R(36,38)                1.449          estimate D2E/DX2                !
 ! R69   R(37,39)                1.4495         estimate D2E/DX2                !
 ! R70   R(37,77)                1.4091         estimate D2E/DX2                !
 ! R71   R(38,42)                1.4495         estimate D2E/DX2                !
 ! R72   R(38,78)                1.4091         estimate D2E/DX2                !
 ! R73   R(39,43)                1.402          estimate D2E/DX2                !
 ! R74   R(39,79)                1.4152         estimate D2E/DX2                !
 ! R75   R(40,41)                1.4414         estimate D2E/DX2                !
 ! R76   R(40,44)                1.403          estimate D2E/DX2                !
 ! R77   R(40,79)                1.4191         estimate D2E/DX2                !
 ! R78   R(41,45)                1.403          estimate D2E/DX2                !
 ! R79   R(41,80)                1.4191         estimate D2E/DX2                !
 ! R80   R(42,46)                1.402          estimate D2E/DX2                !
 ! R81   R(42,80)                1.4152         estimate D2E/DX2                !
 ! R82   R(44,47)                1.4516         estimate D2E/DX2                !
 ! R83   R(45,48)                1.4516         estimate D2E/DX2                !
 ! R84   R(47,48)                1.4526         estimate D2E/DX2                !
 ! R85   R(47,49)                1.4041         estimate D2E/DX2                !
 ! R86   R(48,50)                1.4042         estimate D2E/DX2                !
 ! R87   R(49,51)                1.427          estimate D2E/DX2                !
 ! R88   R(50,52)                1.427          estimate D2E/DX2                !
 ! R89   R(51,52)                1.3726         estimate D2E/DX2                !
 ! R90   R(51,55)                1.4403         estimate D2E/DX2                !
 ! R91   R(52,56)                1.4403         estimate D2E/DX2                !
 ! R92   R(53,55)                1.4186         estimate D2E/DX2                !
 ! R93   R(54,56)                1.4186         estimate D2E/DX2                !
 ! R94   R(55,83)                1.4102         estimate D2E/DX2                !
 ! R95   R(56,84)                1.4102         estimate D2E/DX2                !
 ! R96   R(57,59)                1.4233         estimate D2E/DX2                !
 ! R97   R(57,83)                1.4141         estimate D2E/DX2                !
 ! R98   R(58,60)                1.4233         estimate D2E/DX2                !
 ! R99   R(58,84)                1.4141         estimate D2E/DX2                !
 ! R100  R(59,60)                1.3543         estimate D2E/DX2                !
 ! R101  R(59,61)                1.4998         estimate D2E/DX2                !
 ! R102  R(60,62)                1.4998         estimate D2E/DX2                !
 ! R103  R(61,63)                1.5272         estimate D2E/DX2                !
 ! R104  R(61,86)                1.8036         estimate D2E/DX2                !
 ! R105  R(62,64)                1.5272         estimate D2E/DX2                !
 ! R106  R(62,87)                1.8036         estimate D2E/DX2                !
 ! R107  R(63,64)                1.4279         estimate D2E/DX2                !
 ! R108  R(63,65)                1.3854         estimate D2E/DX2                !
 ! R109  R(64,66)                1.3854         estimate D2E/DX2                !
 ! R110  R(65,67)                1.4297         estimate D2E/DX2                !
 ! R111  R(66,68)                1.4297         estimate D2E/DX2                !
 ! R112  R(67,68)                1.4369         estimate D2E/DX2                !
 ! R113  R(67,69)                1.4199         estimate D2E/DX2                !
 ! R114  R(68,70)                1.4199         estimate D2E/DX2                !
 ! R115  R(69,71)                1.4084         estimate D2E/DX2                !
 ! R116  R(70,72)                1.4084         estimate D2E/DX2                !
 ! R117  R(71,72)                1.3908         estimate D2E/DX2                !
 ! R118  R(71,73)                1.4469         estimate D2E/DX2                !
 ! R119  R(72,74)                1.4469         estimate D2E/DX2                !
 ! R120  R(73,75)                1.3786         estimate D2E/DX2                !
 ! R121  R(74,76)                1.3786         estimate D2E/DX2                !
 ! R122  R(75,76)                1.4484         estimate D2E/DX2                !
 ! R123  R(75,77)                1.4248         estimate D2E/DX2                !
 ! R124  R(76,78)                1.4248         estimate D2E/DX2                !
 ! R125  R(77,81)                1.4418         estimate D2E/DX2                !
 ! R126  R(78,81)                1.4418         estimate D2E/DX2                !
 ! R127  R(79,82)                1.4304         estimate D2E/DX2                !
 ! R128  R(80,82)                1.4304         estimate D2E/DX2                !
 ! R129  R(81,82)                1.3671         estimate D2E/DX2                !
 ! R130  R(83,84)                1.4419         estimate D2E/DX2                !
 ! A1    A(5,1,17)             121.7796         estimate D2E/DX2                !
 ! A2    A(5,1,25)             108.4259         estimate D2E/DX2                !
 ! A3    A(17,1,25)            121.7061         estimate D2E/DX2                !
 ! A4    A(6,2,43)             106.8054         estimate D2E/DX2                !
 ! A5    A(6,2,44)             120.761          estimate D2E/DX2                !
 ! A6    A(43,2,44)            122.1229         estimate D2E/DX2                !
 ! A7    A(7,3,18)             121.7799         estimate D2E/DX2                !
 ! A8    A(7,3,26)             108.4257         estimate D2E/DX2                !
 ! A9    A(18,3,26)            121.7062         estimate D2E/DX2                !
 ! A10   A(8,4,45)             120.7607         estimate D2E/DX2                !
 ! A11   A(8,4,46)             106.8062         estimate D2E/DX2                !
 ! A12   A(45,4,46)            122.1226         estimate D2E/DX2                !
 ! A13   A(1,5,9)              122.3966         estimate D2E/DX2                !
 ! A14   A(1,5,29)             107.6299         estimate D2E/DX2                !
 ! A15   A(9,5,29)             121.1454         estimate D2E/DX2                !
 ! A16   A(2,6,10)             119.586          estimate D2E/DX2                !
 ! A17   A(2,6,15)             109.2956         estimate D2E/DX2                !
 ! A18   A(10,6,15)            120.5991         estimate D2E/DX2                !
 ! A19   A(3,7,12)             122.3965         estimate D2E/DX2                !
 ! A20   A(3,7,30)             107.6302         estimate D2E/DX2                !
 ! A21   A(12,7,30)            121.1454         estimate D2E/DX2                !
 ! A22   A(4,8,11)             119.5864         estimate D2E/DX2                !
 ! A23   A(4,8,16)             109.295          estimate D2E/DX2                !
 ! A24   A(11,8,16)            120.5991         estimate D2E/DX2                !
 ! A25   A(5,9,13)             114.9485         estimate D2E/DX2                !
 ! A26   A(5,9,35)             119.9879         estimate D2E/DX2                !
 ! A27   A(13,9,35)            119.4566         estimate D2E/DX2                !
 ! A28   A(6,10,49)            120.0954         estimate D2E/DX2                !
 ! A29   A(6,10,53)            120.0207         estimate D2E/DX2                !
 ! A30   A(49,10,53)           109.2492         estimate D2E/DX2                !
 ! A31   A(8,11,50)            120.0954         estimate D2E/DX2                !
 ! A32   A(8,11,54)            120.0208         estimate D2E/DX2                !
 ! A33   A(50,11,54)           109.249          estimate D2E/DX2                !
 ! A34   A(7,12,14)            114.9485         estimate D2E/DX2                !
 ! A35   A(7,12,36)            119.9878         estimate D2E/DX2                !
 ! A36   A(14,12,36)           119.4566         estimate D2E/DX2                !
 ! A37   A(9,13,15)            122.4047         estimate D2E/DX2                !
 ! A38   A(9,13,43)            120.607          estimate D2E/DX2                !
 ! A39   A(15,13,43)           108.4488         estimate D2E/DX2                !
 ! A40   A(12,14,16)           122.4046         estimate D2E/DX2                !
 ! A41   A(12,14,46)           120.6067         estimate D2E/DX2                !
 ! A42   A(16,14,46)           108.4494         estimate D2E/DX2                !
 ! A43   A(6,15,13)            106.9115         estimate D2E/DX2                !
 ! A44   A(6,15,17)            120.3389         estimate D2E/DX2                !
 ! A45   A(13,15,17)           122.3556         estimate D2E/DX2                !
 ! A46   A(8,16,14)            106.9115         estimate D2E/DX2                !
 ! A47   A(8,16,18)            120.3387         estimate D2E/DX2                !
 ! A48   A(14,16,18)           122.3559         estimate D2E/DX2                !
 ! A49   A(1,17,15)            115.2876         estimate D2E/DX2                !
 ! A50   A(1,17,19)            118.3522         estimate D2E/DX2                !
 ! A51   A(15,17,19)           119.2657         estimate D2E/DX2                !
 ! A52   A(3,18,16)            115.2873         estimate D2E/DX2                !
 ! A53   A(3,18,20)            118.3523         estimate D2E/DX2                !
 ! A54   A(16,18,20)           119.2659         estimate D2E/DX2                !
 ! A55   A(17,19,21)           118.1379         estimate D2E/DX2                !
 ! A56   A(17,19,53)           119.1684         estimate D2E/DX2                !
 ! A57   A(21,19,53)           115.648          estimate D2E/DX2                !
 ! A58   A(18,20,22)           118.1377         estimate D2E/DX2                !
 ! A59   A(18,20,54)           119.1685         estimate D2E/DX2                !
 ! A60   A(22,20,54)           115.6478         estimate D2E/DX2                !
 ! A61   A(19,21,23)           121.8587         estimate D2E/DX2                !
 ! A62   A(19,21,57)           121.9741         estimate D2E/DX2                !
 ! A63   A(23,21,57)           108.1367         estimate D2E/DX2                !
 ! A64   A(20,22,24)           121.8587         estimate D2E/DX2                !
 ! A65   A(20,22,58)           121.9743         estimate D2E/DX2                !
 ! A66   A(24,22,58)           108.1362         estimate D2E/DX2                !
 ! A67   A(21,23,25)           119.823          estimate D2E/DX2                !
 ! A68   A(21,23,61)           111.3853         estimate D2E/DX2                !
 ! A69   A(25,23,61)           121.617          estimate D2E/DX2                !
 ! A70   A(22,24,26)           119.823          estimate D2E/DX2                !
 ! A71   A(22,24,62)           111.3856         estimate D2E/DX2                !
 ! A72   A(26,24,62)           121.6168         estimate D2E/DX2                !
 ! A73   A(1,25,23)            120.0996         estimate D2E/DX2                !
 ! A74   A(1,25,27)            111.3038         estimate D2E/DX2                !
 ! A75   A(23,25,27)           121.1924         estimate D2E/DX2                !
 ! A76   A(3,26,24)            120.0996         estimate D2E/DX2                !
 ! A77   A(3,26,28)            111.3043         estimate D2E/DX2                !
 ! A78   A(24,26,28)           121.192          estimate D2E/DX2                !
 ! A79   A(25,27,29)           100.3474         estimate D2E/DX2                !
 ! A80   A(25,27,65)           110.9226         estimate D2E/DX2                !
 ! A81   A(25,27,85)           113.1607         estimate D2E/DX2                !
 ! A82   A(29,27,65)           110.9471         estimate D2E/DX2                !
 ! A83   A(29,27,85)           112.676          estimate D2E/DX2                !
 ! A84   A(65,27,85)           108.6427         estimate D2E/DX2                !
 ! A85   A(26,28,30)           100.3469         estimate D2E/DX2                !
 ! A86   A(26,28,66)           110.9229         estimate D2E/DX2                !
 ! A87   A(26,28,88)           113.1605         estimate D2E/DX2                !
 ! A88   A(30,28,66)           110.9471         estimate D2E/DX2                !
 ! A89   A(30,28,88)           112.6764         estimate D2E/DX2                !
 ! A90   A(66,28,88)           108.6428         estimate D2E/DX2                !
 ! A91   A(5,29,27)            112.2459         estimate D2E/DX2                !
 ! A92   A(5,29,31)            119.1308         estimate D2E/DX2                !
 ! A93   A(27,29,31)           121.2928         estimate D2E/DX2                !
 ! A94   A(7,30,28)            112.2459         estimate D2E/DX2                !
 ! A95   A(7,30,32)            119.131          estimate D2E/DX2                !
 ! A96   A(28,30,32)           121.2928         estimate D2E/DX2                !
 ! A97   A(29,31,33)           120.9946         estimate D2E/DX2                !
 ! A98   A(29,31,69)           120.1516         estimate D2E/DX2                !
 ! A99   A(33,31,69)           109.0182         estimate D2E/DX2                !
 ! A100  A(30,32,34)           120.9945         estimate D2E/DX2                !
 ! A101  A(30,32,70)           120.151          estimate D2E/DX2                !
 ! A102  A(34,32,70)           109.0186         estimate D2E/DX2                !
 ! A103  A(31,33,35)           121.2641         estimate D2E/DX2                !
 ! A104  A(31,33,73)           106.1225         estimate D2E/DX2                !
 ! A105  A(35,33,73)           122.5556         estimate D2E/DX2                !
 ! A106  A(32,34,36)           121.2639         estimate D2E/DX2                !
 ! A107  A(32,34,74)           106.1218         estimate D2E/DX2                !
 ! A108  A(36,34,74)           122.5561         estimate D2E/DX2                !
 ! A109  A(9,35,33)            116.512          estimate D2E/DX2                !
 ! A110  A(9,35,37)            119.8961         estimate D2E/DX2                !
 ! A111  A(33,35,37)           118.1065         estimate D2E/DX2                !
 ! A112  A(12,36,34)           116.5122         estimate D2E/DX2                !
 ! A113  A(12,36,38)           119.8964         estimate D2E/DX2                !
 ! A114  A(34,36,38)           118.106          estimate D2E/DX2                !
 ! A115  A(35,37,39)           119.2323         estimate D2E/DX2                !
 ! A116  A(35,37,77)           118.108          estimate D2E/DX2                !
 ! A117  A(39,37,77)           117.1706         estimate D2E/DX2                !
 ! A118  A(36,38,42)           119.2319         estimate D2E/DX2                !
 ! A119  A(36,38,78)           118.1079         estimate D2E/DX2                !
 ! A120  A(42,38,78)           117.1712         estimate D2E/DX2                !
 ! A121  A(37,39,43)           119.534          estimate D2E/DX2                !
 ! A122  A(37,39,79)           120.1124         estimate D2E/DX2                !
 ! A123  A(43,39,79)           114.6399         estimate D2E/DX2                !
 ! A124  A(41,40,44)           121.0966         estimate D2E/DX2                !
 ! A125  A(41,40,79)           108.3902         estimate D2E/DX2                !
 ! A126  A(44,40,79)           122.1783         estimate D2E/DX2                !
 ! A127  A(40,41,45)           121.097          estimate D2E/DX2                !
 ! A128  A(40,41,80)           108.3892         estimate D2E/DX2                !
 ! A129  A(45,41,80)           122.179          estimate D2E/DX2                !
 ! A130  A(38,42,46)           119.5339         estimate D2E/DX2                !
 ! A131  A(38,42,80)           120.112          estimate D2E/DX2                !
 ! A132  A(46,42,80)           114.6399         estimate D2E/DX2                !
 ! A133  A(2,43,13)            108.4083         estimate D2E/DX2                !
 ! A134  A(2,43,39)            122.26           estimate D2E/DX2                !
 ! A135  A(13,43,39)           121.0101         estimate D2E/DX2                !
 ! A136  A(2,44,40)            114.7892         estimate D2E/DX2                !
 ! A137  A(2,44,47)            120.1848         estimate D2E/DX2                !
 ! A138  A(40,44,47)           119.1512         estimate D2E/DX2                !
 ! A139  A(4,45,41)            114.789          estimate D2E/DX2                !
 ! A140  A(4,45,48)            120.1846         estimate D2E/DX2                !
 ! A141  A(41,45,48)           119.1511         estimate D2E/DX2                !
 ! A142  A(4,46,14)            108.4074         estimate D2E/DX2                !
 ! A143  A(4,46,42)            122.2605         estimate D2E/DX2                !
 ! A144  A(14,46,42)           121.0104         estimate D2E/DX2                !
 ! A145  A(44,47,48)           119.6947         estimate D2E/DX2                !
 ! A146  A(44,47,49)           116.8966         estimate D2E/DX2                !
 ! A147  A(48,47,49)           118.1822         estimate D2E/DX2                !
 ! A148  A(45,48,47)           119.6944         estimate D2E/DX2                !
 ! A149  A(45,48,50)           116.8972         estimate D2E/DX2                !
 ! A150  A(47,48,50)           118.182          estimate D2E/DX2                !
 ! A151  A(10,49,47)           122.0066         estimate D2E/DX2                !
 ! A152  A(10,49,51)           105.6513         estimate D2E/DX2                !
 ! A153  A(47,49,51)           122.0093         estimate D2E/DX2                !
 ! A154  A(11,50,48)           122.0061         estimate D2E/DX2                !
 ! A155  A(11,50,52)           105.6514         estimate D2E/DX2                !
 ! A156  A(48,50,52)           122.0094         estimate D2E/DX2                !
 ! A157  A(49,51,52)           119.5213         estimate D2E/DX2                !
 ! A158  A(49,51,55)           109.5116         estimate D2E/DX2                !
 ! A159  A(52,51,55)           120.3037         estimate D2E/DX2                !
 ! A160  A(50,52,51)           119.5208         estimate D2E/DX2                !
 ! A161  A(50,52,56)           109.5118         estimate D2E/DX2                !
 ! A162  A(51,52,56)           120.3036         estimate D2E/DX2                !
 ! A163  A(10,53,19)           120.5291         estimate D2E/DX2                !
 ! A164  A(10,53,55)           107.5283         estimate D2E/DX2                !
 ! A165  A(19,53,55)           121.9847         estimate D2E/DX2                !
 ! A166  A(11,54,20)           120.5289         estimate D2E/DX2                !
 ! A167  A(11,54,56)           107.5287         estimate D2E/DX2                !
 ! A168  A(20,54,56)           121.9843         estimate D2E/DX2                !
 ! A169  A(51,55,53)           107.5536         estimate D2E/DX2                !
 ! A170  A(51,55,83)           120.2338         estimate D2E/DX2                !
 ! A171  A(53,55,83)           122.1459         estimate D2E/DX2                !
 ! A172  A(52,56,54)           107.5531         estimate D2E/DX2                !
 ! A173  A(52,56,84)           120.2336         estimate D2E/DX2                !
 ! A174  A(54,56,84)           122.1463         estimate D2E/DX2                !
 ! A175  A(21,57,59)           108.334          estimate D2E/DX2                !
 ! A176  A(21,57,83)           122.0145         estimate D2E/DX2                !
 ! A177  A(59,57,83)           121.8242         estimate D2E/DX2                !
 ! A178  A(22,58,60)           108.3344         estimate D2E/DX2                !
 ! A179  A(22,58,84)           122.0144         estimate D2E/DX2                !
 ! A180  A(60,58,84)           121.824          estimate D2E/DX2                !
 ! A181  A(57,59,60)           119.9968         estimate D2E/DX2                !
 ! A182  A(57,59,61)           111.4091         estimate D2E/DX2                !
 ! A183  A(60,59,61)           121.803          estimate D2E/DX2                !
 ! A184  A(58,60,59)           119.9971         estimate D2E/DX2                !
 ! A185  A(58,60,62)           111.409          estimate D2E/DX2                !
 ! A186  A(59,60,62)           121.8033         estimate D2E/DX2                !
 ! A187  A(23,61,59)           100.6534         estimate D2E/DX2                !
 ! A188  A(23,61,63)           110.4561         estimate D2E/DX2                !
 ! A189  A(23,61,86)           113.3742         estimate D2E/DX2                !
 ! A190  A(59,61,63)           110.5978         estimate D2E/DX2                !
 ! A191  A(59,61,86)           113.0823         estimate D2E/DX2                !
 ! A192  A(63,61,86)           108.5302         estimate D2E/DX2                !
 ! A193  A(24,62,60)           100.6534         estimate D2E/DX2                !
 ! A194  A(24,62,64)           110.4572         estimate D2E/DX2                !
 ! A195  A(24,62,87)           113.3746         estimate D2E/DX2                !
 ! A196  A(60,62,64)           110.5981         estimate D2E/DX2                !
 ! A197  A(60,62,87)           113.0814         estimate D2E/DX2                !
 ! A198  A(64,62,87)           108.5295         estimate D2E/DX2                !
 ! A199  A(61,63,64)           119.5698         estimate D2E/DX2                !
 ! A200  A(61,63,65)           119.7671         estimate D2E/DX2                !
 ! A201  A(64,63,65)           120.3219         estimate D2E/DX2                !
 ! A202  A(62,64,63)           119.5697         estimate D2E/DX2                !
 ! A203  A(62,64,66)           119.7667         estimate D2E/DX2                !
 ! A204  A(63,64,66)           120.3224         estimate D2E/DX2                !
 ! A205  A(27,65,63)           120.4052         estimate D2E/DX2                !
 ! A206  A(27,65,67)           118.4279         estimate D2E/DX2                !
 ! A207  A(63,65,67)           120.593          estimate D2E/DX2                !
 ! A208  A(28,66,64)           120.4051         estimate D2E/DX2                !
 ! A209  A(28,66,68)           118.4281         estimate D2E/DX2                !
 ! A210  A(64,66,68)           120.5929         estimate D2E/DX2                !
 ! A211  A(65,67,68)           119.0809         estimate D2E/DX2                !
 ! A212  A(65,67,69)           119.529          estimate D2E/DX2                !
 ! A213  A(68,67,69)           118.288          estimate D2E/DX2                !
 ! A214  A(66,68,67)           119.0806         estimate D2E/DX2                !
 ! A215  A(66,68,70)           119.5286         estimate D2E/DX2                !
 ! A216  A(67,68,70)           118.2891         estimate D2E/DX2                !
 ! A217  A(31,69,67)           119.3467         estimate D2E/DX2                !
 ! A218  A(31,69,71)           106.3747         estimate D2E/DX2                !
 ! A219  A(67,69,71)           121.4441         estimate D2E/DX2                !
 ! A220  A(32,70,68)           119.3472         estimate D2E/DX2                !
 ! A221  A(32,70,72)           106.3743         estimate D2E/DX2                !
 ! A222  A(68,70,72)           121.4434         estimate D2E/DX2                !
 ! A223  A(69,71,72)           119.6136         estimate D2E/DX2                !
 ! A224  A(69,71,73)           108.6936         estimate D2E/DX2                !
 ! A225  A(72,71,73)           119.8562         estimate D2E/DX2                !
 ! A226  A(70,72,71)           119.6138         estimate D2E/DX2                !
 ! A227  A(70,72,74)           108.6937         estimate D2E/DX2                !
 ! A228  A(71,72,74)           119.8565         estimate D2E/DX2                !
 ! A229  A(33,73,71)           108.428          estimate D2E/DX2                !
 ! A230  A(33,73,75)           119.263          estimate D2E/DX2                !
 ! A231  A(71,73,75)           120.0173         estimate D2E/DX2                !
 ! A232  A(34,74,72)           108.4286         estimate D2E/DX2                !
 ! A233  A(34,74,76)           119.2628         estimate D2E/DX2                !
 ! A234  A(72,74,76)           120.0175         estimate D2E/DX2                !
 ! A235  A(73,75,76)           120.105          estimate D2E/DX2                !
 ! A236  A(73,75,77)           119.4587         estimate D2E/DX2                !
 ! A237  A(76,75,77)           108.6514         estimate D2E/DX2                !
 ! A238  A(74,76,75)           120.1048         estimate D2E/DX2                !
 ! A239  A(74,76,78)           119.4584         estimate D2E/DX2                !
 ! A240  A(75,76,78)           108.6521         estimate D2E/DX2                !
 ! A241  A(37,77,75)           122.402          estimate D2E/DX2                !
 ! A242  A(37,77,81)           121.4622         estimate D2E/DX2                !
 ! A243  A(75,77,81)           106.092          estimate D2E/DX2                !
 ! A244  A(38,78,76)           122.4026         estimate D2E/DX2                !
 ! A245  A(38,78,81)           121.4619         estimate D2E/DX2                !
 ! A246  A(76,78,81)           106.0914         estimate D2E/DX2                !
 ! A247  A(39,79,40)           122.3225         estimate D2E/DX2                !
 ! A248  A(39,79,82)           120.4297         estimate D2E/DX2                !
 ! A249  A(40,79,82)           106.7407         estimate D2E/DX2                !
 ! A250  A(41,80,42)           122.3221         estimate D2E/DX2                !
 ! A251  A(41,80,82)           106.7411         estimate D2E/DX2                !
 ! A252  A(42,80,82)           120.4299         estimate D2E/DX2                !
 ! A253  A(77,81,78)           109.8397         estimate D2E/DX2                !
 ! A254  A(77,81,82)           120.0905         estimate D2E/DX2                !
 ! A255  A(78,81,82)           120.0908         estimate D2E/DX2                !
 ! A256  A(79,82,80)           109.539          estimate D2E/DX2                !
 ! A257  A(79,82,81)           120.0275         estimate D2E/DX2                !
 ! A258  A(80,82,81)           120.0272         estimate D2E/DX2                !
 ! A259  A(55,83,57)           115.6431         estimate D2E/DX2                !
 ! A260  A(55,83,84)           119.3919         estimate D2E/DX2                !
 ! A261  A(57,83,84)           118.1785         estimate D2E/DX2                !
 ! A262  A(56,84,58)           115.643          estimate D2E/DX2                !
 ! A263  A(56,84,83)           119.3919         estimate D2E/DX2                !
 ! A264  A(58,84,83)           118.1787         estimate D2E/DX2                !
 ! D1    D(17,1,5,9)            -3.2684         estimate D2E/DX2                !
 ! D2    D(17,1,5,29)         -150.8748         estimate D2E/DX2                !
 ! D3    D(25,1,5,9)           145.8313         estimate D2E/DX2                !
 ! D4    D(25,1,5,29)           -1.7752         estimate D2E/DX2                !
 ! D5    D(5,1,17,15)           -5.1641         estimate D2E/DX2                !
 ! D6    D(5,1,17,19)          145.2134         estimate D2E/DX2                !
 ! D7    D(25,1,17,15)        -150.226          estimate D2E/DX2                !
 ! D8    D(25,1,17,19)           0.1515         estimate D2E/DX2                !
 ! D9    D(5,1,25,23)         -147.9702         estimate D2E/DX2                !
 ! D10   D(5,1,25,27)            2.3253         estimate D2E/DX2                !
 ! D11   D(17,1,25,23)           1.1566         estimate D2E/DX2                !
 ! D12   D(17,1,25,27)         151.4521         estimate D2E/DX2                !
 ! D13   D(43,2,6,10)         -148.7354         estimate D2E/DX2                !
 ! D14   D(43,2,6,15)           -3.7544         estimate D2E/DX2                !
 ! D15   D(44,2,6,10)           -3.0287         estimate D2E/DX2                !
 ! D16   D(44,2,6,15)          141.9524         estimate D2E/DX2                !
 ! D17   D(6,2,43,13)            3.0909         estimate D2E/DX2                !
 ! D18   D(6,2,43,39)          151.5387         estimate D2E/DX2                !
 ! D19   D(44,2,43,13)        -142.0418         estimate D2E/DX2                !
 ! D20   D(44,2,43,39)           6.4059         estimate D2E/DX2                !
 ! D21   D(6,2,44,40)         -152.4103         estimate D2E/DX2                !
 ! D22   D(6,2,44,47)            0.3815         estimate D2E/DX2                !
 ! D23   D(43,2,44,40)         -11.9686         estimate D2E/DX2                !
 ! D24   D(43,2,44,47)         140.8232         estimate D2E/DX2                !
 ! D25   D(18,3,7,12)            3.2684         estimate D2E/DX2                !
 ! D26   D(18,3,7,30)          150.8751         estimate D2E/DX2                !
 ! D27   D(26,3,7,12)         -145.8315         estimate D2E/DX2                !
 ! D28   D(26,3,7,30)            1.7752         estimate D2E/DX2                !
 ! D29   D(7,3,18,16)            5.1638         estimate D2E/DX2                !
 ! D30   D(7,3,18,20)         -145.2137         estimate D2E/DX2                !
 ! D31   D(26,3,18,16)         150.226          estimate D2E/DX2                !
 ! D32   D(26,3,18,20)          -0.1515         estimate D2E/DX2                !
 ! D33   D(7,3,26,24)          147.9702         estimate D2E/DX2                !
 ! D34   D(7,3,26,28)           -2.3254         estimate D2E/DX2                !
 ! D35   D(18,3,26,24)          -1.1569         estimate D2E/DX2                !
 ! D36   D(18,3,26,28)        -151.4525         estimate D2E/DX2                !
 ! D37   D(45,4,8,11)            3.0282         estimate D2E/DX2                !
 ! D38   D(45,4,8,16)         -141.9526         estimate D2E/DX2                !
 ! D39   D(46,4,8,11)          148.7353         estimate D2E/DX2                !
 ! D40   D(46,4,8,16)            3.7545         estimate D2E/DX2                !
 ! D41   D(8,4,45,41)          152.4099         estimate D2E/DX2                !
 ! D42   D(8,4,45,48)           -0.3807         estimate D2E/DX2                !
 ! D43   D(46,4,45,41)          11.9675         estimate D2E/DX2                !
 ! D44   D(46,4,45,48)        -140.8232         estimate D2E/DX2                !
 ! D45   D(8,4,46,14)           -3.0911         estimate D2E/DX2                !
 ! D46   D(8,4,46,42)         -151.5385         estimate D2E/DX2                !
 ! D47   D(45,4,46,14)         142.042          estimate D2E/DX2                !
 ! D48   D(45,4,46,42)          -6.4054         estimate D2E/DX2                !
 ! D49   D(1,5,9,13)             7.9555         estimate D2E/DX2                !
 ! D50   D(1,5,9,35)          -145.5098         estimate D2E/DX2                !
 ! D51   D(29,5,9,13)          151.3317         estimate D2E/DX2                !
 ! D52   D(29,5,9,35)           -2.1337         estimate D2E/DX2                !
 ! D53   D(1,5,29,27)            0.6162         estimate D2E/DX2                !
 ! D54   D(1,5,29,31)          151.1206         estimate D2E/DX2                !
 ! D55   D(9,5,29,27)         -147.4773         estimate D2E/DX2                !
 ! D56   D(9,5,29,31)            3.0271         estimate D2E/DX2                !
 ! D57   D(2,6,10,49)            0.0378         estimate D2E/DX2                !
 ! D58   D(2,6,10,53)          140.841          estimate D2E/DX2                !
 ! D59   D(15,6,10,49)        -140.9687         estimate D2E/DX2                !
 ! D60   D(15,6,10,53)          -0.1654         estimate D2E/DX2                !
 ! D61   D(2,6,15,13)            2.9577         estimate D2E/DX2                !
 ! D62   D(2,6,15,17)         -142.7389         estimate D2E/DX2                !
 ! D63   D(10,6,15,13)         147.5242         estimate D2E/DX2                !
 ! D64   D(10,6,15,17)           1.8276         estimate D2E/DX2                !
 ! D65   D(3,7,12,14)           -7.9553         estimate D2E/DX2                !
 ! D66   D(3,7,12,36)          145.51           estimate D2E/DX2                !
 ! D67   D(30,7,12,14)        -151.3317         estimate D2E/DX2                !
 ! D68   D(30,7,12,36)           2.1335         estimate D2E/DX2                !
 ! D69   D(3,7,30,28)           -0.6162         estimate D2E/DX2                !
 ! D70   D(3,7,30,32)         -151.1209         estimate D2E/DX2                !
 ! D71   D(12,7,30,28)         147.4775         estimate D2E/DX2                !
 ! D72   D(12,7,30,32)          -3.0272         estimate D2E/DX2                !
 ! D73   D(4,8,11,50)           -0.0378         estimate D2E/DX2                !
 ! D74   D(4,8,11,54)         -140.8409         estimate D2E/DX2                !
 ! D75   D(16,8,11,50)         140.9682         estimate D2E/DX2                !
 ! D76   D(16,8,11,54)           0.1651         estimate D2E/DX2                !
 ! D77   D(4,8,16,14)           -2.9578         estimate D2E/DX2                !
 ! D78   D(4,8,16,18)          142.7392         estimate D2E/DX2                !
 ! D79   D(11,8,16,14)        -147.5242         estimate D2E/DX2                !
 ! D80   D(11,8,16,18)          -1.8272         estimate D2E/DX2                !
 ! D81   D(5,9,13,15)           -4.3902         estimate D2E/DX2                !
 ! D82   D(5,9,13,43)         -148.5822         estimate D2E/DX2                !
 ! D83   D(35,9,13,15)         149.2262         estimate D2E/DX2                !
 ! D84   D(35,9,13,43)           5.0342         estimate D2E/DX2                !
 ! D85   D(5,9,35,33)           -4.9279         estimate D2E/DX2                !
 ! D86   D(5,9,35,37)          148.4638         estimate D2E/DX2                !
 ! D87   D(13,9,35,33)        -157.2055         estimate D2E/DX2                !
 ! D88   D(13,9,35,37)          -3.8139         estimate D2E/DX2                !
 ! D89   D(6,10,49,47)           5.8445         estimate D2E/DX2                !
 ! D90   D(6,10,49,51)         151.358          estimate D2E/DX2                !
 ! D91   D(53,10,49,47)       -138.7327         estimate D2E/DX2                !
 ! D92   D(53,10,49,51)          6.7808         estimate D2E/DX2                !
 ! D93   D(6,10,53,19)          -2.3289         estimate D2E/DX2                !
 ! D94   D(6,10,53,55)        -148.5455         estimate D2E/DX2                !
 ! D95   D(49,10,53,19)        142.2791         estimate D2E/DX2                !
 ! D96   D(49,10,53,55)         -3.9375         estimate D2E/DX2                !
 ! D97   D(8,11,50,48)          -5.8445         estimate D2E/DX2                !
 ! D98   D(8,11,50,52)        -151.3577         estimate D2E/DX2                !
 ! D99   D(54,11,50,48)        138.7327         estimate D2E/DX2                !
 ! D100  D(54,11,50,52)         -6.7805         estimate D2E/DX2                !
 ! D101  D(8,11,54,20)           2.3288         estimate D2E/DX2                !
 ! D102  D(8,11,54,56)         148.5451         estimate D2E/DX2                !
 ! D103  D(50,11,54,20)       -142.2791         estimate D2E/DX2                !
 ! D104  D(50,11,54,56)          3.9372         estimate D2E/DX2                !
 ! D105  D(7,12,14,16)           4.3899         estimate D2E/DX2                !
 ! D106  D(7,12,14,46)         148.5825         estimate D2E/DX2                !
 ! D107  D(36,12,14,16)       -149.2263         estimate D2E/DX2                !
 ! D108  D(36,12,14,46)         -5.0337         estimate D2E/DX2                !
 ! D109  D(7,12,36,34)           4.928          estimate D2E/DX2                !
 ! D110  D(7,12,36,38)        -148.4636         estimate D2E/DX2                !
 ! D111  D(14,12,36,34)        157.2055         estimate D2E/DX2                !
 ! D112  D(14,12,36,38)          3.8139         estimate D2E/DX2                !
 ! D113  D(9,13,15,6)         -148.938          estimate D2E/DX2                !
 ! D114  D(9,13,15,17)          -4.093          estimate D2E/DX2                !
 ! D115  D(43,13,15,6)          -1.0003         estimate D2E/DX2                !
 ! D116  D(43,13,15,17)        143.8447         estimate D2E/DX2                !
 ! D117  D(9,13,43,2)          147.3045         estimate D2E/DX2                !
 ! D118  D(9,13,43,39)          -1.6118         estimate D2E/DX2                !
 ! D119  D(15,13,43,2)          -1.3144         estimate D2E/DX2                !
 ! D120  D(15,13,43,39)       -150.2307         estimate D2E/DX2                !
 ! D121  D(12,14,16,8)         148.9383         estimate D2E/DX2                !
 ! D122  D(12,14,16,18)          4.0932         estimate D2E/DX2                !
 ! D123  D(46,14,16,8)           1.0003         estimate D2E/DX2                !
 ! D124  D(46,14,16,18)       -143.8449         estimate D2E/DX2                !
 ! D125  D(12,14,46,4)        -147.3047         estimate D2E/DX2                !
 ! D126  D(12,14,46,42)          1.6113         estimate D2E/DX2                !
 ! D127  D(16,14,46,4)           1.3145         estimate D2E/DX2                !
 ! D128  D(16,14,46,42)        150.2305         estimate D2E/DX2                !
 ! D129  D(6,15,17,1)          149.0927         estimate D2E/DX2                !
 ! D130  D(6,15,17,19)          -0.9975         estimate D2E/DX2                !
 ! D131  D(13,15,17,1)           8.7582         estimate D2E/DX2                !
 ! D132  D(13,15,17,19)       -141.332          estimate D2E/DX2                !
 ! D133  D(8,16,18,3)         -149.0928         estimate D2E/DX2                !
 ! D134  D(8,16,18,20)           0.9973         estimate D2E/DX2                !
 ! D135  D(14,16,18,3)          -8.7581         estimate D2E/DX2                !
 ! D136  D(14,16,18,20)        141.3321         estimate D2E/DX2                !
 ! D137  D(1,17,19,21)          -1.239          estimate D2E/DX2                !
 ! D138  D(1,17,19,53)        -150.6274         estimate D2E/DX2                !
 ! D139  D(15,17,19,21)        147.9433         estimate D2E/DX2                !
 ! D140  D(15,17,19,53)         -1.4451         estimate D2E/DX2                !
 ! D141  D(3,18,20,22)           1.2392         estimate D2E/DX2                !
 ! D142  D(3,18,20,54)         150.627          estimate D2E/DX2                !
 ! D143  D(16,18,20,22)       -147.9429         estimate D2E/DX2                !
 ! D144  D(16,18,20,54)          1.4449         estimate D2E/DX2                !
 ! D145  D(17,19,21,23)          1.1195         estimate D2E/DX2                !
 ! D146  D(17,19,21,57)       -143.9629         estimate D2E/DX2                !
 ! D147  D(53,19,21,23)        151.5656         estimate D2E/DX2                !
 ! D148  D(53,19,21,57)          6.4832         estimate D2E/DX2                !
 ! D149  D(17,19,53,10)          3.1127         estimate D2E/DX2                !
 ! D150  D(17,19,53,55)        144.4203         estimate D2E/DX2                !
 ! D151  D(21,19,53,10)       -147.0121         estimate D2E/DX2                !
 ! D152  D(21,19,53,55)         -5.7045         estimate D2E/DX2                !
 ! D153  D(18,20,22,24)         -1.1194         estimate D2E/DX2                !
 ! D154  D(18,20,22,58)        143.9623         estimate D2E/DX2                !
 ! D155  D(54,20,22,24)       -151.565          estimate D2E/DX2                !
 ! D156  D(54,20,22,58)         -6.4833         estimate D2E/DX2                !
 ! D157  D(18,20,54,11)         -3.1123         estimate D2E/DX2                !
 ! D158  D(18,20,54,56)       -144.4198         estimate D2E/DX2                !
 ! D159  D(22,20,54,11)        147.0118         estimate D2E/DX2                !
 ! D160  D(22,20,54,56)          5.7043         estimate D2E/DX2                !
 ! D161  D(19,21,23,25)          0.167          estimate D2E/DX2                !
 ! D162  D(19,21,23,61)       -150.692          estimate D2E/DX2                !
 ! D163  D(57,21,23,25)        149.4403         estimate D2E/DX2                !
 ! D164  D(57,21,23,61)         -1.4188         estimate D2E/DX2                !
 ! D165  D(19,21,57,59)        148.7576         estimate D2E/DX2                !
 ! D166  D(19,21,57,83)         -0.8224         estimate D2E/DX2                !
 ! D167  D(23,21,57,59)         -0.4729         estimate D2E/DX2                !
 ! D168  D(23,21,57,83)       -150.053          estimate D2E/DX2                !
 ! D169  D(20,22,24,26)         -0.1674         estimate D2E/DX2                !
 ! D170  D(20,22,24,62)        150.6918         estimate D2E/DX2                !
 ! D171  D(58,22,24,26)       -149.4403         estimate D2E/DX2                !
 ! D172  D(58,22,24,62)          1.4189         estimate D2E/DX2                !
 ! D173  D(20,22,58,60)       -148.7574         estimate D2E/DX2                !
 ! D174  D(20,22,58,84)          0.8226         estimate D2E/DX2                !
 ! D175  D(24,22,58,60)          0.4727         estimate D2E/DX2                !
 ! D176  D(24,22,58,84)        150.0527         estimate D2E/DX2                !
 ! D177  D(21,23,25,1)          -1.2997         estimate D2E/DX2                !
 ! D178  D(21,23,25,27)       -148.6374         estimate D2E/DX2                !
 ! D179  D(61,23,25,1)         146.5281         estimate D2E/DX2                !
 ! D180  D(61,23,25,27)         -0.8096         estimate D2E/DX2                !
 ! D181  D(21,23,61,59)          2.5468         estimate D2E/DX2                !
 ! D182  D(21,23,61,63)        119.4342         estimate D2E/DX2                !
 ! D183  D(21,23,61,86)       -118.5106         estimate D2E/DX2                !
 ! D184  D(25,23,61,59)       -147.7105         estimate D2E/DX2                !
 ! D185  D(25,23,61,63)        -30.8231         estimate D2E/DX2                !
 ! D186  D(25,23,61,86)         91.2321         estimate D2E/DX2                !
 ! D187  D(22,24,26,3)           1.3003         estimate D2E/DX2                !
 ! D188  D(22,24,26,28)        148.6383         estimate D2E/DX2                !
 ! D189  D(62,24,26,3)        -146.5279         estimate D2E/DX2                !
 ! D190  D(62,24,26,28)          0.8102         estimate D2E/DX2                !
 ! D191  D(22,24,62,60)         -2.5468         estimate D2E/DX2                !
 ! D192  D(22,24,62,64)       -119.4348         estimate D2E/DX2                !
 ! D193  D(22,24,62,87)        118.5098         estimate D2E/DX2                !
 ! D194  D(26,24,62,60)        147.7107         estimate D2E/DX2                !
 ! D195  D(26,24,62,64)         30.8227         estimate D2E/DX2                !
 ! D196  D(26,24,62,87)        -91.2327         estimate D2E/DX2                !
 ! D197  D(1,25,27,29)          -1.8186         estimate D2E/DX2                !
 ! D198  D(1,25,27,65)        -119.1332         estimate D2E/DX2                !
 ! D199  D(1,25,27,85)         118.4699         estimate D2E/DX2                !
 ! D200  D(23,25,27,29)        148.1047         estimate D2E/DX2                !
 ! D201  D(23,25,27,65)         30.7901         estimate D2E/DX2                !
 ! D202  D(23,25,27,85)        -91.6068         estimate D2E/DX2                !
 ! D203  D(3,26,28,30)           1.8187         estimate D2E/DX2                !
 ! D204  D(3,26,28,66)         119.1331         estimate D2E/DX2                !
 ! D205  D(3,26,28,88)        -118.4699         estimate D2E/DX2                !
 ! D206  D(24,26,28,30)       -148.1049         estimate D2E/DX2                !
 ! D207  D(24,26,28,66)        -30.7905         estimate D2E/DX2                !
 ! D208  D(24,26,28,88)         91.6065         estimate D2E/DX2                !
 ! D209  D(25,27,29,5)           0.7105         estimate D2E/DX2                !
 ! D210  D(25,27,29,31)       -149.0712         estimate D2E/DX2                !
 ! D211  D(65,27,29,5)         118.0069         estimate D2E/DX2                !
 ! D212  D(65,27,29,31)        -31.7748         estimate D2E/DX2                !
 ! D213  D(85,27,29,5)        -119.9265         estimate D2E/DX2                !
 ! D214  D(85,27,29,31)         90.2918         estimate D2E/DX2                !
 ! D215  D(25,27,65,63)        -28.5393         estimate D2E/DX2                !
 ! D216  D(25,27,65,67)        142.826          estimate D2E/DX2                !
 ! D217  D(29,27,65,63)       -139.1647         estimate D2E/DX2                !
 ! D218  D(29,27,65,67)         32.2006         estimate D2E/DX2                !
 ! D219  D(85,27,65,63)         96.4465         estimate D2E/DX2                !
 ! D220  D(85,27,65,67)        -92.1882         estimate D2E/DX2                !
 ! D221  D(26,28,30,7)          -0.7105         estimate D2E/DX2                !
 ! D222  D(26,28,30,32)        149.0715         estimate D2E/DX2                !
 ! D223  D(66,28,30,7)        -118.0069         estimate D2E/DX2                !
 ! D224  D(66,28,30,32)         31.7751         estimate D2E/DX2                !
 ! D225  D(88,28,30,7)         119.9261         estimate D2E/DX2                !
 ! D226  D(88,28,30,32)        -90.2919         estimate D2E/DX2                !
 ! D227  D(26,28,66,64)         28.5398         estimate D2E/DX2                !
 ! D228  D(26,28,66,68)       -142.8254         estimate D2E/DX2                !
 ! D229  D(30,28,66,64)        139.1647         estimate D2E/DX2                !
 ! D230  D(30,28,66,68)        -32.2005         estimate D2E/DX2                !
 ! D231  D(88,28,66,64)        -96.4459         estimate D2E/DX2                !
 ! D232  D(88,28,66,68)         92.1889         estimate D2E/DX2                !
 ! D233  D(5,29,31,33)           3.2629         estimate D2E/DX2                !
 ! D234  D(5,29,31,69)        -138.7906         estimate D2E/DX2                !
 ! D235  D(27,29,31,33)        151.0349         estimate D2E/DX2                !
 ! D236  D(27,29,31,69)          8.9814         estimate D2E/DX2                !
 ! D237  D(7,30,32,34)          -3.2625         estimate D2E/DX2                !
 ! D238  D(7,30,32,70)         138.7907         estimate D2E/DX2                !
 ! D239  D(28,30,32,34)       -151.0348         estimate D2E/DX2                !
 ! D240  D(28,30,32,70)         -8.9816         estimate D2E/DX2                !
 ! D241  D(29,31,33,35)        -10.7898         estimate D2E/DX2                !
 ! D242  D(29,31,33,73)       -156.9721         estimate D2E/DX2                !
 ! D243  D(69,31,33,35)        134.9865         estimate D2E/DX2                !
 ! D244  D(69,31,33,73)        -11.1959         estimate D2E/DX2                !
 ! D245  D(29,31,69,67)         15.8301         estimate D2E/DX2                !
 ! D246  D(29,31,69,71)        157.9201         estimate D2E/DX2                !
 ! D247  D(33,31,69,67)       -130.2828         estimate D2E/DX2                !
 ! D248  D(33,31,69,71)         11.8072         estimate D2E/DX2                !
 ! D249  D(30,32,34,36)         10.7893         estimate D2E/DX2                !
 ! D250  D(30,32,34,74)        156.9714         estimate D2E/DX2                !
 ! D251  D(70,32,34,36)       -134.9864         estimate D2E/DX2                !
 ! D252  D(70,32,34,74)         11.1956         estimate D2E/DX2                !
 ! D253  D(30,32,70,68)        -15.8307         estimate D2E/DX2                !
 ! D254  D(30,32,70,72)       -157.9196         estimate D2E/DX2                !
 ! D255  D(34,32,70,68)        130.2819         estimate D2E/DX2                !
 ! D256  D(34,32,70,72)        -11.807          estimate D2E/DX2                !
 ! D257  D(31,33,35,9)          11.2181         estimate D2E/DX2                !
 ! D258  D(31,33,35,37)       -142.6652         estimate D2E/DX2                !
 ! D259  D(73,33,35,9)         151.8473         estimate D2E/DX2                !
 ! D260  D(73,33,35,37)         -2.036          estimate D2E/DX2                !
 ! D261  D(31,33,73,71)          6.318          estimate D2E/DX2                !
 ! D262  D(31,33,73,75)        148.6097         estimate D2E/DX2                !
 ! D263  D(35,33,73,71)       -139.3201         estimate D2E/DX2                !
 ! D264  D(35,33,73,75)          2.9716         estimate D2E/DX2                !
 ! D265  D(32,34,36,12)        -11.2179         estimate D2E/DX2                !
 ! D266  D(32,34,36,38)        142.6656         estimate D2E/DX2                !
 ! D267  D(74,34,36,12)       -151.8463         estimate D2E/DX2                !
 ! D268  D(74,34,36,38)          2.0372         estimate D2E/DX2                !
 ! D269  D(32,34,74,72)         -6.3178         estimate D2E/DX2                !
 ! D270  D(32,34,74,76)       -148.6104         estimate D2E/DX2                !
 ! D271  D(36,34,74,72)        139.3197         estimate D2E/DX2                !
 ! D272  D(36,34,74,76)         -2.9729         estimate D2E/DX2                !
 ! D273  D(9,35,37,39)          -0.7705         estimate D2E/DX2                !
 ! D274  D(9,35,37,77)        -153.9166         estimate D2E/DX2                !
 ! D275  D(33,35,37,39)        152.2049         estimate D2E/DX2                !
 ! D276  D(33,35,37,77)         -0.9412         estimate D2E/DX2                !
 ! D277  D(12,36,38,42)          0.7701         estimate D2E/DX2                !
 ! D278  D(12,36,38,78)        153.9165         estimate D2E/DX2                !
 ! D279  D(34,36,38,42)       -152.2054         estimate D2E/DX2                !
 ! D280  D(34,36,38,78)          0.941          estimate D2E/DX2                !
 ! D281  D(35,37,39,43)          4.174          estimate D2E/DX2                !
 ! D282  D(35,37,39,79)       -147.7736         estimate D2E/DX2                !
 ! D283  D(77,37,39,43)        157.5673         estimate D2E/DX2                !
 ! D284  D(77,37,39,79)          5.6197         estimate D2E/DX2                !
 ! D285  D(35,37,77,75)          3.0635         estimate D2E/DX2                !
 ! D286  D(35,37,77,81)        143.7079         estimate D2E/DX2                !
 ! D287  D(39,37,77,75)       -150.6357         estimate D2E/DX2                !
 ! D288  D(39,37,77,81)         -9.9913         estimate D2E/DX2                !
 ! D289  D(36,38,42,46)         -4.1736         estimate D2E/DX2                !
 ! D290  D(36,38,42,80)        147.773          estimate D2E/DX2                !
 ! D291  D(78,38,42,46)       -157.567          estimate D2E/DX2                !
 ! D292  D(78,38,42,80)         -5.6204         estimate D2E/DX2                !
 ! D293  D(36,38,78,76)         -3.064          estimate D2E/DX2                !
 ! D294  D(36,38,78,81)       -143.7075         estimate D2E/DX2                !
 ! D295  D(42,38,78,76)        150.6352         estimate D2E/DX2                !
 ! D296  D(42,38,78,81)          9.9918         estimate D2E/DX2                !
 ! D297  D(37,39,43,2)        -147.6532         estimate D2E/DX2                !
 ! D298  D(37,39,43,13)         -3.0542         estimate D2E/DX2                !
 ! D299  D(79,39,43,2)           5.7593         estimate D2E/DX2                !
 ! D300  D(79,39,43,13)        150.3583         estimate D2E/DX2                !
 ! D301  D(37,39,79,40)        141.2504         estimate D2E/DX2                !
 ! D302  D(37,39,79,82)          1.1681         estimate D2E/DX2                !
 ! D303  D(43,39,79,40)        -11.9955         estimate D2E/DX2                !
 ! D304  D(43,39,79,82)       -152.0778         estimate D2E/DX2                !
 ! D305  D(44,40,41,45)          0.0002         estimate D2E/DX2                !
 ! D306  D(44,40,41,80)       -148.8626         estimate D2E/DX2                !
 ! D307  D(79,40,41,45)        148.8627         estimate D2E/DX2                !
 ! D308  D(79,40,41,80)         -0.0001         estimate D2E/DX2                !
 ! D309  D(41,40,44,2)         150.3262         estimate D2E/DX2                !
 ! D310  D(41,40,44,47)         -2.7663         estimate D2E/DX2                !
 ! D311  D(79,40,44,2)           5.7582         estimate D2E/DX2                !
 ! D312  D(79,40,44,47)       -147.3343         estimate D2E/DX2                !
 ! D313  D(41,40,79,39)       -142.0108         estimate D2E/DX2                !
 ! D314  D(41,40,79,82)          2.6945         estimate D2E/DX2                !
 ! D315  D(44,40,79,39)          6.4458         estimate D2E/DX2                !
 ! D316  D(44,40,79,82)        151.1511         estimate D2E/DX2                !
 ! D317  D(40,41,45,4)        -150.3255         estimate D2E/DX2                !
 ! D318  D(40,41,45,48)          2.7659         estimate D2E/DX2                !
 ! D319  D(80,41,45,4)          -5.7576         estimate D2E/DX2                !
 ! D320  D(80,41,45,48)        147.3338         estimate D2E/DX2                !
 ! D321  D(40,41,80,42)        142.0115         estimate D2E/DX2                !
 ! D322  D(40,41,80,82)         -2.6943         estimate D2E/DX2                !
 ! D323  D(45,41,80,42)         -6.4454         estimate D2E/DX2                !
 ! D324  D(45,41,80,82)       -151.1511         estimate D2E/DX2                !
 ! D325  D(38,42,46,4)         147.6525         estimate D2E/DX2                !
 ! D326  D(38,42,46,14)          3.0542         estimate D2E/DX2                !
 ! D327  D(80,42,46,4)          -5.7589         estimate D2E/DX2                !
 ! D328  D(80,42,46,14)       -150.3572         estimate D2E/DX2                !
 ! D329  D(38,42,80,41)       -141.2504         estimate D2E/DX2                !
 ! D330  D(38,42,80,82)         -1.1676         estimate D2E/DX2                !
 ! D331  D(46,42,80,41)         11.9945         estimate D2E/DX2                !
 ! D332  D(46,42,80,82)        152.0774         estimate D2E/DX2                !
 ! D333  D(2,44,47,48)        -148.8945         estimate D2E/DX2                !
 ! D334  D(2,44,47,49)           5.1183         estimate D2E/DX2                !
 ! D335  D(40,44,47,48)          2.7268         estimate D2E/DX2                !
 ! D336  D(40,44,47,49)        156.7396         estimate D2E/DX2                !
[...]
 Alpha virt. eigenvalues --    1.19776   1.19913   1.20270   1.20506   1.20701
 Alpha virt. eigenvalues --    1.21336   1.21543   1.21728   1.21860   1.22611
 Alpha virt. eigenvalues --    1.22748   1.23342   1.23425   1.23582   1.23617
 Alpha virt. eigenvalues --    1.24511   1.24520   1.24602   1.25038   1.25163
 Alpha virt. eigenvalues --    1.25694   1.25939   1.26070   1.26255   1.26508
 Alpha virt. eigenvalues --    1.26876   1.27007   1.27136   1.27336   1.27538
 Alpha virt. eigenvalues --    1.28031   1.28670   1.28697   1.29318   1.29335
 Alpha virt. eigenvalues --    1.30061   1.30215   1.30432   1.30825   1.31201
 Alpha virt. eigenvalues --    1.31474   1.31700   1.32162   1.32252   1.32613
 Alpha virt. eigenvalues --    1.32890   1.33455   1.33837   1.33981   1.34174
 Alpha virt. eigenvalues --    1.34442   1.34769   1.35415   1.35806   1.36531
 Alpha virt. eigenvalues --    1.37267   1.37585   1.37850   1.37876   1.38922
 Alpha virt. eigenvalues --    1.39571   1.39852   1.40590   1.40724   1.40989
 Alpha virt. eigenvalues --    1.41960   1.42547   1.43105   1.43463   1.45006
 Alpha virt. eigenvalues --    1.45315   1.45587   1.45733   1.46281   1.46388
 Alpha virt. eigenvalues --    1.47009   1.47807   1.48283   1.48324   1.49049
 Alpha virt. eigenvalues --    1.50559   1.50821   1.50928   1.51735   1.51872
 Alpha virt. eigenvalues --    1.52148   1.53262   1.53616   1.53977   1.54198
 Alpha virt. eigenvalues --    1.55003   1.55215   1.55354   1.56045   1.56208
 Alpha virt. eigenvalues --    1.56843   1.56930   1.57437   1.58036   1.58410
 Alpha virt. eigenvalues --    1.58615   1.59485   1.59870   1.60350   1.60840
 Alpha virt. eigenvalues --    1.61678   1.61858   1.63400   1.63735   1.64181
 Alpha virt. eigenvalues --    1.64215   1.64534   1.64605   1.65012   1.65195
 Alpha virt. eigenvalues --    1.65417   1.65572   1.65760   1.66151   1.66821
 Alpha virt. eigenvalues --    1.66961   1.67008   1.67084   1.67697   1.68210
 Alpha virt. eigenvalues --    1.68332   1.68777   1.69025   1.69161   1.69244
 Alpha virt. eigenvalues --    1.69757   1.69909   1.70007   1.70143   1.70249
 Alpha virt. eigenvalues --    1.70398   1.70830   1.71125   1.71301   1.71516
 Alpha virt. eigenvalues --    1.71923   1.72104   1.72287   1.72571   1.72780
 Alpha virt. eigenvalues --    1.73015   1.73566   1.73646   1.73860   1.73918
 Alpha virt. eigenvalues --    1.74349   1.74432   1.74848   1.75023   1.75213
 Alpha virt. eigenvalues --    1.75659   1.75756   1.76072   1.76306   1.76382
 Alpha virt. eigenvalues --    1.76632   1.76927   1.77134   1.77474   1.77846
 Alpha virt. eigenvalues --    1.77870   1.78528   1.78584   1.78957   1.79340
 Alpha virt. eigenvalues --    1.79719   1.79739   1.80048   1.80153   1.80560
 Alpha virt. eigenvalues --    1.80631   1.81224   1.81574   1.81648   1.82041
 Alpha virt. eigenvalues --    1.82960   1.83383   1.84384   1.84521   1.85027
 Alpha virt. eigenvalues --    1.85251   1.85992   1.86227   1.86685   1.87324
 Alpha virt. eigenvalues --    1.87487   1.87508   1.88022   1.88920   1.89113
 Alpha virt. eigenvalues --    1.89906   1.90209   1.90416   1.90481   1.91368
 Alpha virt. eigenvalues --    1.92601   1.92890   1.93055   1.93514   1.93704
 Alpha virt. eigenvalues --    1.94127   1.94196   1.94515   1.94978   1.95222
 Alpha virt. eigenvalues --    1.95779   1.96169   1.96386   1.96396   1.96537
 Alpha virt. eigenvalues --    1.96855   1.96894   1.97020   1.97233   1.98154
 Alpha virt. eigenvalues --    1.98543   1.98727   1.98826   1.99247   1.99276
 Alpha virt. eigenvalues --    1.99582   1.99697   1.99830   2.00049   2.00315
 Alpha virt. eigenvalues --    2.00657   2.00909   2.01008   2.01057   2.01185
 Alpha virt. eigenvalues --    2.01530   2.01591   2.01919   2.02053   2.02216
 Alpha virt. eigenvalues --    2.02304   2.02859   2.03203   2.03250   2.03664
 Alpha virt. eigenvalues --    2.04075   2.04227   2.04718   2.05083   2.05240
 Alpha virt. eigenvalues --    2.05592   2.05836   2.06358   2.06469   2.07224
 Alpha virt. eigenvalues --    2.07336   2.07936   2.08362   2.08605   2.09264
 Alpha virt. eigenvalues --    2.10098   2.10340   2.10423   2.10836   2.11334
 Alpha virt. eigenvalues --    2.11924   2.12122   2.12842   2.13343   2.13409
 Alpha virt. eigenvalues --    2.14010   2.14394   2.14827   2.15080   2.15519
 Alpha virt. eigenvalues --    2.16906   2.17085   2.18095   2.18655   2.18742
 Alpha virt. eigenvalues --    2.19200   2.19807   2.19887   2.20352   2.20714
 Alpha virt. eigenvalues --    2.20975   2.21728   2.21767   2.21853   2.22179
 Alpha virt. eigenvalues --    2.22379   2.22722   2.23512   2.23726   2.24050
 Alpha virt. eigenvalues --    2.24768   2.25161   2.25556   2.25799   2.26106
 Alpha virt. eigenvalues --    2.27024   2.27053   2.27261   2.27891   2.28407
 Alpha virt. eigenvalues --    2.28629   2.29011   2.29416   2.29729   2.29944
 Alpha virt. eigenvalues --    2.30303   2.30681   2.31372   2.31374   2.32502
 Alpha virt. eigenvalues --    2.32642   2.32959   2.33288   2.33982   2.34404
 Alpha virt. eigenvalues --    2.34991   2.36029   2.36146   2.37668   2.37814
 Alpha virt. eigenvalues --    2.38823   2.39136   2.39271   2.39924   2.40355
 Alpha virt. eigenvalues --    2.40977   2.41018   2.41661   2.42395   2.42404
 Alpha virt. eigenvalues --    2.43400   2.43862   2.44190   2.44329   2.44736
 Alpha virt. eigenvalues --    2.44992   2.45643   2.46087   2.47152   2.48210
 Alpha virt. eigenvalues --    2.48441   2.48953   2.49198   2.49305   2.50185
 Alpha virt. eigenvalues --    2.50937   2.51471   2.52122   2.52566   2.52945
 Alpha virt. eigenvalues --    2.53187   2.53511   2.53541   2.54584   2.54892
 Alpha virt. eigenvalues --    2.55049   2.55205   2.56312   2.56391   2.56856
 Alpha virt. eigenvalues --    2.56913   2.56997   2.57668   2.57760   2.57911
 Alpha virt. eigenvalues --    2.58157   2.58257   2.58334   2.58831   2.59244
 Alpha virt. eigenvalues --    2.59602   2.59851   2.60148   2.60514   2.60884
 Alpha virt. eigenvalues --    2.61091   2.61533   2.61926   2.62290   2.62399
 Alpha virt. eigenvalues --    2.63127   2.63645   2.63848   2.64376   2.64693
 Alpha virt. eigenvalues --    2.65146   2.65338   2.65545   2.66011   2.66204
 Alpha virt. eigenvalues --    2.66489   2.66983   2.67266   2.67453   2.67793
 Alpha virt. eigenvalues --    2.68069   2.68607   2.68731   2.68807   2.68850
 Alpha virt. eigenvalues --    2.70055   2.70511   2.71203   2.71567   2.71818
 Alpha virt. eigenvalues --    2.71826   2.72628   2.72978   2.73187   2.73598
 Alpha virt. eigenvalues --    2.74180   2.74650   2.75109   2.75613   2.75616
 Alpha virt. eigenvalues --    2.76490   2.77010   2.77236   2.78728   2.78832
 Alpha virt. eigenvalues --    2.79360   2.79436   2.79865   2.80266   2.80848
 Alpha virt. eigenvalues --    2.81647   2.81735   2.82099   2.82101   2.82555
 Alpha virt. eigenvalues --    2.83072   2.83252   2.83756   2.84285   2.84747
 Alpha virt. eigenvalues --    2.84951   2.85612   2.85856   2.87932   2.87992
 Alpha virt. eigenvalues --    2.88479   2.88540   2.88839   2.89417   2.89929
 Alpha virt. eigenvalues --    2.90283   2.91012   2.91275   2.91767   2.92110
 Alpha virt. eigenvalues --    2.92236   2.92504   2.92614   2.93346   2.94096
 Alpha virt. eigenvalues --    2.94119   2.94580   2.94599   2.94909   2.95942
 Alpha virt. eigenvalues --    2.96725   2.97122   2.97458   2.98432   2.98886
 Alpha virt. eigenvalues --    2.99564   3.01122   3.01193   3.03513   3.03832
 Alpha virt. eigenvalues --    3.05951   3.06147   3.09191   3.09875   3.10121
 Alpha virt. eigenvalues --    3.11471   3.13989   3.14754   3.15372   3.18946
 Alpha virt. eigenvalues --    3.19311   3.19970   3.21183   3.21291   3.23325
 Alpha virt. eigenvalues --    3.24266   3.25776   3.26314   3.30001   3.32390
 Alpha virt. eigenvalues --    3.33339   3.34275   3.36489   3.37118   3.38508
 Alpha virt. eigenvalues --    3.39308   3.42158   3.43935   3.44282   3.46538
 Alpha virt. eigenvalues --    3.49202   3.49219   3.52115   3.52619   3.57105
 Alpha virt. eigenvalues --    3.60419   3.66442   4.01259   4.01740   4.01917
 Alpha virt. eigenvalues --    4.02454   4.03142   4.03262   4.03986   4.05101
 Alpha virt. eigenvalues --    4.05672   4.05849   4.06291   4.07122   4.07275
 Alpha virt. eigenvalues --    4.07612   4.08451   4.09190   4.09664   4.10323
 Alpha virt. eigenvalues --    4.10595   4.11835   4.12179   4.12991   4.14618
 Alpha virt. eigenvalues --    4.16103   4.16296   4.16825   4.17634   4.18824
 Alpha virt. eigenvalues --    4.20192   4.20609   4.20909   4.22577   4.22767
 Alpha virt. eigenvalues --    4.23057   4.23854   4.24849   4.26231   4.27628
 Alpha virt. eigenvalues --    4.28092   4.28212   4.28585   4.29410   4.30556
 Alpha virt. eigenvalues --    4.31514   4.32450   4.34444   4.35776   4.37398
 Alpha virt. eigenvalues --    4.37926   4.39040   4.41048   4.41719   4.44346
 Alpha virt. eigenvalues --    4.46579   4.47452   4.48530   4.48629   4.48828
 Alpha virt. eigenvalues --    4.51397   4.53099   4.54003   4.57394   4.58082
 Alpha virt. eigenvalues --    4.60051   4.61038   4.61119   4.64626   4.65433
 Alpha virt. eigenvalues --    4.67533   4.68713   4.70626   4.74809   4.77065
 Alpha virt. eigenvalues --    4.81124   4.82068   4.85903   4.87351   4.90564
 Alpha virt. eigenvalues --    4.92429   4.94433   4.96985   5.02149   5.07772
 Alpha virt. eigenvalues --    5.12574   5.14294   5.18523   5.20731   5.30510
          Condensed to atoms (all electrons):
 Mulliken charges:
               1
     1  C    0.000348
     2  C   -0.023363
     3  C    0.000348
     4  C   -0.023363
     5  C    0.009009
     6  C   -0.015316
     7  C    0.009009
     8  C   -0.015316
     9  C    0.045283
    10  C   -0.002427
    11  C   -0.002427
    12  C    0.045283
    13  C   -0.027848
    14  C   -0.027848
    15  C   -0.020909
    16  C   -0.020909
    17  C    0.047413
    18  C    0.047412
    19  C    0.048344
    20  C    0.048344
    21  C    0.005739
    22  C    0.005739
    23  C    0.086331
    24  C    0.086331
    25  C    0.087657
    26  C    0.087657
    27  C   -0.356987
    28  C   -0.356987
    29  C    0.070145
    30  C    0.070145
    31  C    0.000917
    32  C    0.000917
    33  C   -0.018864
    34  C   -0.018864
    35  C    0.042436
    36  C    0.042436
    37  C    0.043406
    38  C    0.043406
    39  C    0.056831
    40  C   -0.031804
    41  C   -0.031804
    42  C    0.056831
    43  C   -0.034460
    44  C    0.054178
    45  C    0.054178
    46  C   -0.034460
    47  C    0.048750
    48  C    0.048750
    49  C   -0.024198
    50  C   -0.024198
    51  C   -0.010489
    52  C   -0.010489
    53  C   -0.020177
    54  C   -0.020178
    55  C   -0.018556
    56  C   -0.018556
    57  C    0.006613
    58  C    0.006613
    59  C    0.087354
    60  C    0.087354
    61  C   -0.371567
    62  C   -0.371567
    63  C    0.124829
    64  C    0.124829
    65  C    0.100375
    66  C    0.100375
    67  C    0.068537
    68  C    0.068537
    69  C   -0.035498
    70  C   -0.035498
    71  C   -0.000350
    72  C   -0.000350
    73  C   -0.005066
    74  C   -0.005066
    75  C   -0.004444
    76  C   -0.004444
    77  C   -0.023932
    78  C   -0.023932
    79  C   -0.022635
    80  C   -0.022635
    81  C   -0.001708
    82  C   -0.022073
    83  C    0.049323
    84  C    0.049323
    85  Cl  -0.007013
    86  Cl   0.003977
    87  Cl   0.003977
    88  Cl  -0.007013
 Sum of Mulliken charges =  -0.00000
 Mulliken charges with hydrogens summed into heavy atoms:
               1
     1  C    0.000348
     2  C   -0.023363
     3  C    0.000348
     4  C   -0.023363
     5  C    0.009009
     6  C   -0.015316
     7  C    0.009009
     8  C   -0.015316
     9  C    0.045283
    10  C   -0.002427
    11  C   -0.002427
    12  C    0.045283
    13  C   -0.027848
    14  C   -0.027848
    15  C   -0.020909
    16  C   -0.020909
    17  C    0.047413
    18  C    0.047412
    19  C    0.048344
    20  C    0.048344
    21  C    0.005739
    22  C    0.005739
    23  C    0.086331
    24  C    0.086331
    25  C    0.087657
    26  C    0.087657
    27  C   -0.356987
    28  C   -0.356987
    29  C    0.070145
    30  C    0.070145
    31  C    0.000917
    32  C    0.000917
    33  C   -0.018864
    34  C   -0.018864
    35  C    0.042436
    36  C    0.042436
    37  C    0.043406
    38  C    0.043406
    39  C    0.056831
    40  C   -0.031804
    41  C   -0.031804
    42  C    0.056831
    43  C   -0.034460
    44  C    0.054178
    45  C    0.054178
    46  C   -0.034460
    47  C    0.048750
    48  C    0.048750
    49  C   -0.024198
    50  C   -0.024198
    51  C   -0.010489
    52  C   -0.010489
    53  C   -0.020177
    54  C   -0.020178
    55  C   -0.018556
    56  C   -0.018556
    57  C    0.006613
    58  C    0.006613
    59  C    0.087354
    60  C    0.087354
    61  C   -0.371567
    62  C   -0.371567
    63  C    0.124829
    64  C    0.124829
    65  C    0.100375
    66  C    0.100375
    67  C    0.068537
    68  C    0.068537
    69  C   -0.035498
    70  C   -0.035498
    71  C   -0.000350
    72  C   -0.000350
    73  C   -0.005066
    74  C   -0.005066
    75  C   -0.004444
    76  C   -0.004444
    77  C   -0.023932
    78  C   -0.023932
    79  C   -0.022635
    80  C   -0.022635
    81  C   -0.001708
    82  C   -0.022073
    83  C    0.049323
    84  C    0.049323
    85  Cl  -0.007013
    86  Cl   0.003977
    87  Cl   0.003977
    88  Cl  -0.007013
 Electronic spatial extent (au):  <R**2>=          41602.0981
 Charge=              0.0000 electrons
 Dipole moment (field-independent basis, Debye):
    X=              5.0613    Y=              0.0000    Z=              1.6067  Tot=              5.3102
 Quadrupole moment (field-independent basis, Debye-Ang):
   XX=           -532.0875   YY=           -510.3128   ZZ=           -497.7356
   XY=              0.0000   XZ=             -4.8943   YZ=             -0.0000
 Traceless Quadrupole moment (field-independent basis, Debye-Ang):
   XX=            -18.7089   YY=              3.0658   ZZ=             15.6431
   XY=              0.0000   XZ=             -4.8943   YZ=             -0.0000
 Octapole moment (field-independent basis, Debye-Ang**2):
  XXX=             -7.4162  YYY=              0.0000  ZZZ=             -2.2760  XYY=              7.1140
  XXY=             -0.0000  XXZ=              0.1672  XZZ=            -26.8135  YZZ=              0.0000
  YYZ=             19.0817  XYZ=              0.0000
 Hexadecapole moment (field-independent basis, Debye-Ang**3):
 XXXX=         -23324.9423 YYYY=         -19503.3412 ZZZZ=         -18288.0693 XXXY=              0.0001
 XXXZ=             75.4719 YYYX=             -0.0001 YYYZ=             -0.0001 ZZZX=              1.1528
 ZZZY=             -0.0000 XXYY=          -7251.3333 XXZZ=          -6882.8761 YYZZ=          -6325.9150
 XXYZ=             -0.0001 YYXZ=            -68.5472 ZZXY=             -0.0000
 N-N= 1.720444966205D+04 E-N=-4.618794350275D+04  KE= 5.006226157035D+03
 No NMR shielding tensors so no spin-rotation constants.
 Leave Link  601 at Wed Jun 29 02:47:28 2022, MaxMem=  1342177280 cpu:              22.8 elap:               1.2
 (Enter /home/mkliu/g16/l9999.exe)
 1\1\GINC-NODE02\FOpt\RB3LYP\6-31G(d,p)\C84Cl4\MKLIU\29-Jun-2022\0\\#P 
 opt b3lyp/6-31G(d, p) empiricaldispersion=GD3\\force\\0,1\C,8.28642502
 71,18.8758261277,10.5455452076\C,12.3212874546,20.1423972882,8.9388887
 643\C,8.2834932951,26.8742074767,10.5471217501\C,12.3192829694,25.6112
 281955,8.9399666333\C,7.9703823722,18.9173505626,9.1506170072\C,11.892
 2130357,19.5648551627,10.1858877332\C,7.9674810046,26.8330012639,9.152
 1771723\C,11.889785405,26.18796402,10.1871931915\C,8.9770429589,19.065
 6753091,8.1454726922\C,12.1622569793,20.2110422266,11.3659578922\C,12.
 1603030742,25.5415099793,11.3670085364\C,8.9742498996,26.6858108377,8.
 1469745754\C,10.3107219965,18.9950620045,8.6053302522\C,10.3078768207,
 26.7572207163,8.6068601728\C,10.6292171687,18.8874374632,9.98938015\C,
 10.62629328,26.8645331157,9.9909524616\C,9.6293551211,18.9235662525,11
 .0010113874\C,9.6264581239,26.827272345,11.0025692068\C,9.9064269762,1
 9.6213199659,12.2481637413\C,9.904041523,26.1292303019,12.249446459\C,
 8.8180299551,20.2397510784,12.9233718794\C,8.8160982828,25.5097353446,
 12.9244105486\C,7.4755202885,20.1670707389,12.4223077045\C,7.473535583
 8,25.5816290323,12.4233750003\C,7.2165062277,19.4936907963,11.27708531
 46\C,7.2140278562,26.2552702366,11.2784180344\C,6.1077457225,19.926187
 5987,10.3446862572\C,6.1055845686,25.8223284647,10.3458483328\C,6.6917
 466098,19.5233940072,9.0076756986\C,6.6892898733,26.226077013,9.008996
 8768\C,6.3942048727,20.2050022495,7.8761730431\C,6.3922477694,25.54469
 66479,7.8772256791\C,7.3382199414,20.2711633713,6.7796909247\C,7.33631
 08269,25.4796600697,6.7807176455\C,8.6728600916,19.8175382624,6.931334
 9466\C,8.670618051,25.9342037349,6.9325404555\C,9.7364565125,20.565095
 4184,6.2569632178\C,9.7347621822,25.1876924694,6.2578743232\C,11.08835
 37921,20.5562713857,6.8237556239\C,12.7906288014,22.1490167848,7.71314
 10059\C,12.7900949987,23.6054366448,7.7134279915\C,11.0866526127,25.19
 72841488,6.8246704464\C,11.3620437433,19.755121446,7.9498385796\C,12.9
 588972997,21.4161965626,8.9058335847\C,12.9578261949,24.3379097752,8.9
 064094649\C,11.3597553812,25.9981905677,7.9510691261\C,13.2040719058,2
 2.1427302537,10.1583697516\C,13.2035336368,23.6110623078,10.1586591332
 \C,12.8773304919,21.4770831695,11.361988366\C,12.8763044421,24.2759951
 421,11.3625399365\C,12.4271122159,22.1882160692,12.521503198\C,12.4266
 077946,23.5640752996,12.521774175\C,11.1829397539,20.2254759359,12.433
 3476282\C,11.1809968605,25.5259374323,12.4343924006\C,11.3377134154,21
 .4512737012,13.1411826263\C,11.336669248,24.2999744715,13.1417440155\C
 ,8.9737244333,21.4760910084,13.6176114253\C,8.9726991688,24.2732363985
 ,13.6181628578\C,7.7371935779,22.1965897329,13.5488672651\C,7.73669674
 76,23.5518585587,13.5491347368\C,6.6802000273,21.3936188619,12.8225597
 022\C,6.6791149442,24.3543404568,12.8231433263\C,6.164192772,22.152217
 8103,11.5823360025\C,6.1636637443,23.5958523862,11.5826205863\C,5.8689
 946154,21.4490881349,10.4160679301\C,5.8679500387,24.2992251712,10.416
 6297333\C,5.5407443307,22.1502966155,9.1990981309\C,5.5402134309,23.59
 82560749,9.1993836685\C,5.667015265,21.4692442203,7.9439112249\C,5.665
 9853369,24.2798954713,7.9444652215\C,5.9664619089,22.1749676323,6.7610
 799086\C,5.965948641,23.5748582263,6.7613556357\C,7.0109248311,21.4490
 542581,6.0374109725\C,7.0098791072,24.301822499,6.0379730677\C,8.01381
 48016,22.143721998,5.3863073697\C,8.0132781138,23.6081468401,5.3865959
 92\C,9.3672759602,21.6884843456,5.472415611\C,9.3664051591,24.06434239
 07,5.4728840032\C,11.9271019599,21.7015264178,6.6703797569\C,11.926240
 2284,24.0527049444,6.6708431185\C,10.2038064254,22.8767311213,5.416909
 5488\C,11.4450675434,22.8770725361,5.9940114307\C,10.2273609699,22.145
 8218559,13.689675481\C,10.2268264262,23.6043964305,13.6899629916\Cl,4.
 5188733023,19.0385112868,10.6759570823\Cl,5.2604686181,20.9731867233,1
 3.9267023395\Cl,5.259075455,24.7732972655,13.92745127\Cl,4.5160619319,
 26.7087088838,10.6774685143\\Version=ES64L-G16RevA.03\State=1-A\HF=-50
 41.8278056\RMSD=5.300e-09\RMSF=8.192e-05\Dipole=1.9451926,0.0008633,-0
 .7621691\Quadrupole=-7.3507121,2.2793517,5.0713604,-0.0058433,11.73604
 56,0.0037479\PG=C01 [X(C84Cl4)]\\@


 A SUCCESSFUL PURSUIT OF SCIENCE MAKES A MAN THE
 BENEFACTOR OF ALL MANKIND OF EVERY AGE.
   --  JOSEPH PRIESTLEY, "EXPERIMENTS AND
 OBSERVATIONS ON DIFFERENT KINDS OF AIR", 1774
 Job cpu time:       1 days  1 hours 24 minutes 45.8 seconds.
 Elapsed time:       0 days  1 hours  3 minutes 37.6 seconds.
 File lengths (MBytes):  RWF=   1098 Int=      0 D2E=      0 Chk=    138 Scr=      1
 Normal termination of Gaussian 16 at Wed Jun 29 02:47:30 2022.
