 Entering Gaussian System, Link 0=g16
 Input=4_addons_C84_14_Cl22_rank_5.gjf
 Output=4_addons_C84_14_Cl22_rank_5.log
 Initial command:
 /home/mkliu/g16/l1.exe "/data/scratch/Gau-168611.inp" -scrdir="/data/scratch/"
 Entering Link 1 = /home/mkliu/g16/l1.exe PID=    168612.
  
 Copyright (c) 1988,1990,1992,1993,1995,1998,2003,2009,2016,
            Gaussian, Inc.  All Rights Reserved.
  
 This is part of the Gaussian(R) 16 program.  It is based on
 the Gaussian(R) 09 system (copyright 2009, Gaussian, Inc.),
 the Gaussian(R) 03 system (copyright 2003, Gaussian, Inc.),
 the Gaussian(R) 98 system (copyright 1998, Gaussian, Inc.),
 the Gaussian(R) 94 system (copyright 1995, Gaussian, Inc.),
 the Gaussian 92(TM) system (copyright 1992, Gaussian, Inc.),
 the Gaussian 90(TM) system (copyright 1990, Gaussian, Inc.),
 the Gaussian 88(TM) system (copyright 1988, Gaussian, Inc.),
 the Gaussian 86(TM) system (copyright 1986, Carnegie Mellon
 University), and the Gaussian 82(TM) system (copyright 1983,
 Carnegie Mellon University). Gaussian is a federally registered
 trademark of Gaussian, Inc.
  
 This software contains proprietary and confidential information,
 including trade secrets, belonging to Gaussian, Inc.
  
 This software is provided under written license and may be
 used, copied, transmitted, or stored only in accord with that
 written license.
  
 The following legend is applicable only to US Government
 contracts under FAR:
  
                    RESTRICTED RIGHTS LEGEND
  
 Use, reproduction and disclosure by the US Government is
 subject to restrictions as set forth in subparagraphs (a)
 and (c) of the Commercial Computer Software - Restricted
 Rights clause in FAR 52.227-19.
  
 Gaussian, Inc.
 340 Quinnipiac St., Bldg. 40, Wallingford CT 06492
  
  
 ---------------------------------------------------------------
 Warning -- This program may not be used in any manner that
 competes with the business of Gaussian, Inc. or will provide
 assistance to any competitor of Gaussian, Inc.  The licensee
 of this program is prohibited from giving any competitor of
 Gaussian, Inc. access to this program.  By using this program,
 the user acknowledges that Gaussian, Inc. is engaged in the
 business of creating and licensing software in the field of
 computational chemistry and represents and warrants to the
 licensee that it is not a competitor of Gaussian, Inc. and that
 it will not use this program in any manner prohibited above.
 ---------------------------------------------------------------
  

 Cite this work as:
 Gaussian 16, Revision A.03,
 M. J. Frisch, G. W. Trucks, H. B. Schlegel, G. E. Scuseria, 
 M. A. Robb, J. R. Cheeseman, G. Scalmani, V. Barone, 
 G. A. Petersson, H. Nakatsuji, X. Li, M. Caricato, A. V. Marenich, 
 J. Bloino, B. G. Janesko, R. Gomperts, B. Mennucci, H. P. Hratchian, 
 J. V. Ortiz, A. F. Izmaylov, J. L. Sonnenberg, D. Williams-Young, 
 F. Ding, F. Lipparini, F. Egidi, J. Goings, B. Peng, A. Petrone, 
 T. Henderson, D. Ranasinghe, V. G. Zakrzewski, J. Gao, N. Rega, 
 G. Zheng, W. Liang, M. Hada, M. Ehara, K. Toyota, R. Fukuda, 
 J. Hasegawa, M. Ishida, T. Nakajima, Y. Honda, O. Kitao, H. Nakai, 
 T. Vreven, K. Throssell, J. A. Montgomery, Jr., J. E. Peralta, 
 F. Ogliaro, M. J. Bearpark, J. J. Heyd, E. N. Brothers, K. N. Kudin, 
 V. N. Staroverov, T. A. Keith, R. Kobayashi, J. Normand, 
 K. Raghavachari, A. P. Rendell, J. C. Burant, S. S. Iyengar, 
 J. Tomasi, M. Cossi, J. M. Millam, M. Klene, C. Adamo, R. Cammi, 
 J. W. Ochterski, R. L. Martin, K. Morokuma, O. Farkas, 
 J. B. Foresman, and D. J. Fox, Gaussian, Inc., Wallingford CT, 2016.
 
 ******************************************
 Gaussian 16:  ES64L-G16RevA.03 25-Dec-2016
                29-Jun-2022 
 ******************************************
 %mem=10GB
 %chk=4_addons_C84_14_Cl22_rank_5.chk
 %nprocshared=24
 Will use up to   24 processors via shared memory.
 ------------------------------------------------
 #P opt b3lyp/6-31G(d, p) empiricaldispersion=GD3
 ------------------------------------------------
 1/18=20,19=15,26=3,38=1/1,3;
 2/9=110,12=2,17=6,18=5,40=1/2;
 3/5=1,6=6,7=101,11=2,25=1,30=1,71=1,74=-5,124=31/1,2,3;
 4//1;
 5/5=2,38=5/2;
 6/7=2,8=2,9=2,10=2,28=1/1;
 7//1,2,3,16;
 1/18=20,19=15,26=3/3(2);
 2/9=110/2;
 99//99;
 2/9=110/2;
 3/5=1,6=6,7=101,11=2,25=1,30=1,71=1,74=-5,124=31/1,2,3;
 4/5=5,16=3,69=1/1;
 5/5=2,38=5/2;
 7//1,2,3,16;
 1/18=20,19=15,26=3/3(-5);
 2/9=110/2;
 6/7=2,8=2,9=2,10=2,19=2,28=1/1;
 99/9=1/99;
 Leave Link    1 at Wed Jun 29 12:43:44 2022, MaxMem=  1342177280 cpu:               0.7 elap:               0.0
 (Enter /home/mkliu/g16/l101.exe)
 -----
 force
 -----
 Symbolic Z-matrix:
 Charge =  0 Multiplicity = 1
 C                     8.29745   18.92079   10.53371 
 C                     12.3014   20.17722   8.94905 
 C                     8.29578   26.87855   10.54505 
 C                     12.28351   25.58898   8.95237 
 C                     7.98229   18.96766   9.14912 
 C                     11.87763   19.59307   10.18567 
 C                     7.97634   26.83156   9.16091 
 C                     11.86326   26.17286   10.18954 
 C                     8.97773   19.11937   8.15429 
 C                     12.14813   20.23777   11.36397 
 C                     12.13785   25.52886   11.36693 
 C                     8.95824   26.65912   8.16078 
 C                     10.30471   19.04269   8.61464 
 C                     10.28547   26.7265   8.6211 
 C                     10.62115   18.92687   9.98945 
 C                     10.60931   26.84571   9.9967 
 C                     9.62913   18.95964   10.99496 
 C                     9.62409   26.82576   11.00997 
 C                     9.90435   19.64583   12.23065 
 C                     9.89916   26.12442   12.24401 
 C                     8.82485   20.26315   12.90266 
 C                     8.82407   25.49904   12.92444 
 C                     7.49137   20.20166   12.40242 
 C                     7.49784   25.54748   12.41815 
 C                     7.23189   19.53691   11.25307 
 C                     7.24506   26.19885   11.25406 
 C                     6.11957   19.95086   10.33706 
 C                     6.32483   25.63491   10.29506 
 C                     6.6986    19.55891   9.01072 
 C                     6.71262   26.15529   9.04567 
 C                     6.3962    20.21902   7.87299 
 C                     6.40327   25.47644   7.88696 
 C                     7.35434   20.32056   6.8219 
 C                     7.34095   25.4423   6.78998 
 C                     8.68301   19.86905   6.96198 
 C                     8.65994   25.89631   6.95554 
 C                     9.73511   20.59514   6.28284 
 C                     9.71964   25.16764   6.28433 
 C                     11.07377   20.58345   6.84028 
 C                     12.763    22.16461   7.73554 
 C                     12.75816   23.607    7.73707 
 C                     11.05617   25.18026   6.84607 
 C                     11.34635   19.79403   7.96548 
 C                     12.93748   21.4394   8.92499 
 C                     12.92794   24.32937   8.92654 
 C                     11.32595   25.96842   7.97326 
 C                     13.17771   22.1585   10.16247 
 C                     13.17372   23.61076   10.16269 
 C                     12.853    21.49328   11.35623 
 C                     12.84517   24.27354   11.35643 
 C                     12.39935   22.19636   12.51359 
 C                     12.39646   23.5684   12.51324 
 C                     11.16844   20.24957   12.4184 
 C                     11.16004   25.51468   12.42258 
 C                     11.32096   21.46662   13.12906 
 C                     11.31561   24.29375   13.13009 
 C                     8.97878   21.48605   13.60579 
 C                     8.97768   24.26627   13.61537 
 C                     7.74637   22.19647   13.54027 
 C                     7.74771   23.55008   13.54657 
 C                     6.69742   21.40804   12.80916 
 C                     6.702     24.33369   12.81264 
 C                     6.21191   22.17554   11.58081 
 C                     6.19697   23.56068   11.59665 
 C                     5.91535   21.46394   10.3789 
 C                     5.89727   24.2892   10.40477 
 C                     5.59271   22.14465   9.21402 
 C                     5.58132   23.57357   9.19783 
 C                     5.45734   21.39117   7.88988 
 C                     5.69672   24.25657   7.9598 
 C                     5.97225   22.18031   6.71911 
 C                     5.99252   23.54285   6.73789 
 C                     7.02339   21.47804   6.06155 
 C                     7.01911   24.27345   6.04023 
 C                     8.02885   22.15849   5.39123 
 C                     8.02537   23.59602   5.37954 
 C                     9.37391   21.7028   5.49356 
 C                     9.36861   24.06041   5.48745 
 C                     11.90948   21.71628   6.69589 
 C                     11.90028   24.05366   6.69834 
 C                     10.20075   22.88285   5.43016 
 C                     11.4337   22.88511   6.01888 
 C                     10.22169   22.15602   13.68249 
 C                     10.22153   23.59823   13.68538 
 Cl                    4.55434   19.14022   10.71206 
 Cl                    5.26809   21.01003   13.83471 
 Cl                    5.28175   24.75748   13.8473 
 Cl                    3.72354   20.92256   7.68101 
 
 ITRead=  0  0  0  0  0  0  0  0  0  0  0  0  0  0  0  0  0  0  0  0
 ITRead=  0  0  0  0  0  0  0  0  0  0  0  0  0  0  0  0  0  0  0  0
 ITRead=  0  0  0  0  0  0  0  0  0  0  0  0  0  0  0  0  0  0  0  0
 ITRead=  0  0  0  0  0  0  0  0  0  0  0  0  0  0  0  0  0  0  0  0
 ITRead=  0  0  0  0  0  0  0  0
 MicOpt= -1 -1 -1 -1 -1 -1 -1 -1 -1 -1 -1 -1 -1 -1 -1 -1 -1 -1 -1 -1
 MicOpt= -1 -1 -1 -1 -1 -1 -1 -1 -1 -1 -1 -1 -1 -1 -1 -1 -1 -1 -1 -1
 MicOpt= -1 -1 -1 -1 -1 -1 -1 -1 -1 -1 -1 -1 -1 -1 -1 -1 -1 -1 -1 -1
 MicOpt= -1 -1 -1 -1 -1 -1 -1 -1 -1 -1 -1 -1 -1 -1 -1 -1 -1 -1 -1 -1
 MicOpt= -1 -1 -1 -1 -1 -1 -1 -1
 NAtoms=     88 NQM=       88 NQMF=       0 NMMI=      0 NMMIF=      0
                NMic=       0 NMicF=      0.
                    Isotopes and Nuclear Properties:
 (Nuclear quadrupole moments (NQMom) in fm**2, nuclear magnetic moments (NMagM)
  in nuclear magnetons)

  Atom         1           2           3           4           5           6           7           8           9          10
 IAtWgt=          12          12          12          12          12          12          12          12          12          12
 AtmWgt=  12.0000000  12.0000000  12.0000000  12.0000000  12.0000000  12.0000000  12.0000000  12.0000000  12.0000000  12.0000000
 NucSpn=           0           0           0           0           0           0           0           0           0           0
 AtZEff=  -0.0000000  -0.0000000  -0.0000000  -0.0000000  -0.0000000  -0.0000000  -0.0000000  -0.0000000  -0.0000000  -0.0000000
 NQMom=    0.0000000   0.0000000   0.0000000   0.0000000   0.0000000   0.0000000   0.0000000   0.0000000   0.0000000   0.0000000
 NMagM=    0.0000000   0.0000000   0.0000000   0.0000000   0.0000000   0.0000000   0.0000000   0.0000000   0.0000000   0.0000000
 AtZNuc=   6.0000000   6.0000000   6.0000000   6.0000000   6.0000000   6.0000000   6.0000000   6.0000000   6.0000000   6.0000000

  Atom        11          12          13          14          15          16          17          18          19          20
 IAtWgt=          12          12          12          12          12          12          12          12          12          12
 AtmWgt=  12.0000000  12.0000000  12.0000000  12.0000000  12.0000000  12.0000000  12.0000000  12.0000000  12.0000000  12.0000000
 NucSpn=           0           0           0           0           0           0           0           0           0           0
 AtZEff=  -0.0000000  -0.0000000  -0.0000000  -0.0000000  -0.0000000  -0.0000000  -0.0000000  -0.0000000  -0.0000000  -0.0000000
 NQMom=    0.0000000   0.0000000   0.0000000   0.0000000   0.0000000   0.0000000   0.0000000   0.0000000   0.0000000   0.0000000
 NMagM=    0.0000000   0.0000000   0.0000000   0.0000000   0.0000000   0.0000000   0.0000000   0.0000000   0.0000000   0.0000000
 AtZNuc=   6.0000000   6.0000000   6.0000000   6.0000000   6.0000000   6.0000000   6.0000000   6.0000000   6.0000000   6.0000000

  Atom        21          22          23          24          25          26          27          28          29          30
 IAtWgt=          12          12          12          12          12          12          12          12          12          12
 AtmWgt=  12.0000000  12.0000000  12.0000000  12.0000000  12.0000000  12.0000000  12.0000000  12.0000000  12.0000000  12.0000000
 NucSpn=           0           0           0           0           0           0           0           0           0           0
 AtZEff=  -0.0000000  -0.0000000  -0.0000000  -0.0000000  -0.0000000  -0.0000000  -0.0000000  -0.0000000  -0.0000000  -0.0000000
 NQMom=    0.0000000   0.0000000   0.0000000   0.0000000   0.0000000   0.0000000   0.0000000   0.0000000   0.0000000   0.0000000
 NMagM=    0.0000000   0.0000000   0.0000000   0.0000000   0.0000000   0.0000000   0.0000000   0.0000000   0.0000000   0.0000000
 AtZNuc=   6.0000000   6.0000000   6.0000000   6.0000000   6.0000000   6.0000000   6.0000000   6.0000000   6.0000000   6.0000000

  Atom        31          32          33          34          35          36          37          38          39          40
 IAtWgt=          12          12          12          12          12          12          12          12          12          12
 AtmWgt=  12.0000000  12.0000000  12.0000000  12.0000000  12.0000000  12.0000000  12.0000000  12.0000000  12.0000000  12.0000000
 NucSpn=           0           0           0           0           0           0           0           0           0           0
 AtZEff=  -0.0000000  -0.0000000  -0.0000000  -0.0000000  -0.0000000  -0.0000000  -0.0000000  -0.0000000  -0.0000000  -0.0000000
 NQMom=    0.0000000   0.0000000   0.0000000   0.0000000   0.0000000   0.0000000   0.0000000   0.0000000   0.0000000   0.0000000
 NMagM=    0.0000000   0.0000000   0.0000000   0.0000000   0.0000000   0.0000000   0.0000000   0.0000000   0.0000000   0.0000000
 AtZNuc=   6.0000000   6.0000000   6.0000000   6.0000000   6.0000000   6.0000000   6.0000000   6.0000000   6.0000000   6.0000000

  Atom        41          42          43          44          45          46          47          48          49          50
 IAtWgt=          12          12          12          12          12          12          12          12          12          12
 AtmWgt=  12.0000000  12.0000000  12.0000000  12.0000000  12.0000000  12.0000000  12.0000000  12.0000000  12.0000000  12.0000000
 NucSpn=           0           0           0           0           0           0           0           0           0           0
 AtZEff=  -0.0000000  -0.0000000  -0.0000000  -0.0000000  -0.0000000  -0.0000000  -0.0000000  -0.0000000  -0.0000000  -0.0000000
 NQMom=    0.0000000   0.0000000   0.0000000   0.0000000   0.0000000   0.0000000   0.0000000   0.0000000   0.0000000   0.0000000
 NMagM=    0.0000000   0.0000000   0.0000000   0.0000000   0.0000000   0.0000000   0.0000000   0.0000000   0.0000000   0.0000000
 AtZNuc=   6.0000000   6.0000000   6.0000000   6.0000000   6.0000000   6.0000000   6.0000000   6.0000000   6.0000000   6.0000000

  Atom        51          52          53          54          55          56          57          58          59          60
 IAtWgt=          12          12          12          12          12          12          12          12          12          12
 AtmWgt=  12.0000000  12.0000000  12.0000000  12.0000000  12.0000000  12.0000000  12.0000000  12.0000000  12.0000000  12.0000000
 NucSpn=           0           0           0           0           0           0           0           0           0           0
 AtZEff=  -0.0000000  -0.0000000  -0.0000000  -0.0000000  -0.0000000  -0.0000000  -0.0000000  -0.0000000  -0.0000000  -0.0000000
 NQMom=    0.0000000   0.0000000   0.0000000   0.0000000   0.0000000   0.0000000   0.0000000   0.0000000   0.0000000   0.0000000
 NMagM=    0.0000000   0.0000000   0.0000000   0.0000000   0.0000000   0.0000000   0.0000000   0.0000000   0.0000000   0.0000000
 AtZNuc=   6.0000000   6.0000000   6.0000000   6.0000000   6.0000000   6.0000000   6.0000000   6.0000000   6.0000000   6.0000000

  Atom        61          62          63          64          65          66          67          68          69          70
 IAtWgt=          12          12          12          12          12          12          12          12          12          12
 AtmWgt=  12.0000000  12.0000000  12.0000000  12.0000000  12.0000000  12.0000000  12.0000000  12.0000000  12.0000000  12.0000000
 NucSpn=           0           0           0           0           0           0           0           0           0           0
 AtZEff=  -0.0000000  -0.0000000  -0.0000000  -0.0000000  -0.0000000  -0.0000000  -0.0000000  -0.0000000  -0.0000000  -0.0000000
 NQMom=    0.0000000   0.0000000   0.0000000   0.0000000   0.0000000   0.0000000   0.0000000   0.0000000   0.0000000   0.0000000
 NMagM=    0.0000000   0.0000000   0.0000000   0.0000000   0.0000000   0.0000000   0.0000000   0.0000000   0.0000000   0.0000000
 AtZNuc=   6.0000000   6.0000000   6.0000000   6.0000000   6.0000000   6.0000000   6.0000000   6.0000000   6.0000000   6.0000000

  Atom        71          72          73          74          75          76          77          78          79          80
 IAtWgt=          12          12          12          12          12          12          12          12          12          12
 AtmWgt=  12.0000000  12.0000000  12.0000000  12.0000000  12.0000000  12.0000000  12.0000000  12.0000000  12.0000000  12.0000000
 NucSpn=           0           0           0           0           0           0           0           0           0           0
 AtZEff=  -0.0000000  -0.0000000  -0.0000000  -0.0000000  -0.0000000  -0.0000000  -0.0000000  -0.0000000  -0.0000000  -0.0000000
 NQMom=    0.0000000   0.0000000   0.0000000   0.0000000   0.0000000   0.0000000   0.0000000   0.0000000   0.0000000   0.0000000
 NMagM=    0.0000000   0.0000000   0.0000000   0.0000000   0.0000000   0.0000000   0.0000000   0.0000000   0.0000000   0.0000000
 AtZNuc=   6.0000000   6.0000000   6.0000000   6.0000000   6.0000000   6.0000000   6.0000000   6.0000000   6.0000000   6.0000000

  Atom        81          82          83          84          85          86          87          88
 IAtWgt=          12          12          12          12          35          35          35          35
 AtmWgt=  12.0000000  12.0000000  12.0000000  12.0000000  34.9688527  34.9688527  34.9688527  34.9688527
 NucSpn=           0           0           0           0           3           3           3           3
 AtZEff=  -0.0000000  -0.0000000  -0.0000000  -0.0000000  -0.0000000  -0.0000000  -0.0000000  -0.0000000
 NQMom=    0.0000000   0.0000000   0.0000000   0.0000000  -8.1650000  -8.1650000  -8.1650000  -8.1650000
 NMagM=    0.0000000   0.0000000   0.0000000   0.0000000   0.8218740   0.8218740   0.8218740   0.8218740
 AtZNuc=   6.0000000   6.0000000   6.0000000   6.0000000  17.0000000  17.0000000  17.0000000  17.0000000
 Leave Link  101 at Wed Jun 29 12:43:45 2022, MaxMem=  1342177280 cpu:               6.5 elap:               0.3
 (Enter /home/mkliu/g16/l103.exe)

 GradGradGradGradGradGradGradGradGradGradGradGradGradGradGradGradGradGrad
 Berny optimization.
 Initialization pass.
                           ----------------------------
                           !    Initial Parameters    !
                           ! (Angstroms and Degrees)  !
 --------------------------                            --------------------------
 ! Name  Definition              Value          Derivative Info.                !
 --------------------------------------------------------------------------------
 ! R1    R(1,5)                  1.4208         estimate D2E/DX2                !
 ! R2    R(1,17)                 1.4098         estimate D2E/DX2                !
 ! R3    R(1,25)                 1.4257         estimate D2E/DX2                !
 ! R4    R(2,6)                  1.4318         estimate D2E/DX2                !
 ! R5    R(2,43)                 1.4235         estimate D2E/DX2                !
 ! R6    R(2,44)                 1.4136         estimate D2E/DX2                !
 ! R7    R(3,7)                  1.4213         estimate D2E/DX2                !
 ! R8    R(3,18)                 1.4083         estimate D2E/DX2                !
 ! R9    R(3,26)                 1.4383         estimate D2E/DX2                !
 ! R10   R(4,8)                  1.4311         estimate D2E/DX2                !
 ! R11   R(4,45)                 1.4151         estimate D2E/DX2                !
 ! R12   R(4,46)                 1.4211         estimate D2E/DX2                !
 ! R13   R(5,9)                  1.4155         estimate D2E/DX2                !
 ! R14   R(5,29)                 1.4201         estimate D2E/DX2                !
 ! R15   R(6,10)                 1.3701         estimate D2E/DX2                !
 ! R16   R(6,15)                 1.4356         estimate D2E/DX2                !
 ! R17   R(7,12)                 1.4121         estimate D2E/DX2                !
 ! R18   R(7,30)                 1.4379         estimate D2E/DX2                !
 ! R19   R(8,11)                 1.3698         estimate D2E/DX2                !
 ! R20   R(8,16)                 1.4361         estimate D2E/DX2                !
 ! R21   R(9,13)                 1.4067         estimate D2E/DX2                !
 ! R22   R(9,35)                 1.4389         estimate D2E/DX2                !
 ! R23   R(10,49)                1.4399         estimate D2E/DX2                !
 ! R24   R(10,53)                1.4394         estimate D2E/DX2                !
 ! R25   R(11,50)                1.4409         estimate D2E/DX2                !
 ! R26   R(11,54)                1.439          estimate D2E/DX2                !
 ! R27   R(12,14)                1.4064         estimate D2E/DX2                !
 ! R28   R(12,36)                1.4572         estimate D2E/DX2                !
 ! R29   R(13,15)                1.4155         estimate D2E/DX2                !
 ! R30   R(13,43)                1.4391         estimate D2E/DX2                !
 ! R31   R(14,16)                1.4182         estimate D2E/DX2                !
 ! R32   R(14,46)                1.4412         estimate D2E/DX2                !
 ! R33   R(15,17)                1.4129         estimate D2E/DX2                !
 ! R34   R(16,18)                1.4134         estimate D2E/DX2                !
 ! R35   R(17,19)                1.44           estimate D2E/DX2                !
 ! R36   R(18,20)                1.4458         estimate D2E/DX2                !
 ! R37   R(19,21)                1.4135         estimate D2E/DX2                !
 ! R38   R(19,53)                1.4134         estimate D2E/DX2                !
 ! R39   R(20,22)                1.4177         estimate D2E/DX2                !
 ! R40   R(20,54)                1.4119         estimate D2E/DX2                !
 ! R41   R(21,23)                1.4255         estimate D2E/DX2                !
 ! R42   R(21,57)                1.419          estimate D2E/DX2                !
 ! R43   R(22,24)                1.4204         estimate D2E/DX2                !
 ! R44   R(22,58)                1.4215         estimate D2E/DX2                !
 ! R45   R(23,25)                1.3529         estimate D2E/DX2                !
 ! R46   R(23,61)                1.5004         estimate D2E/DX2                !
 ! R47   R(24,26)                1.3577         estimate D2E/DX2                !
 ! R48   R(24,62)                1.5041         estimate D2E/DX2                !
 ! R49   R(25,27)                1.4992         estimate D2E/DX2                !
 ! R50   R(26,28)                1.4438         estimate D2E/DX2                !
 ! R51   R(27,29)                1.4994         estimate D2E/DX2                !
 ! R52   R(27,65)                1.5274         estimate D2E/DX2                !
 ! R53   R(27,85)                1.8021         estimate D2E/DX2                !
 ! R54   R(28,30)                1.4079         estimate D2E/DX2                !
 ! R55   R(28,66)                1.4162         estimate D2E/DX2                !
 ! R56   R(29,31)                1.3497         estimate D2E/DX2                !
 ! R57   R(30,32)                1.3781         estimate D2E/DX2                !
 ! R58   R(31,33)                1.4259         estimate D2E/DX2                !
 ! R59   R(31,69)                1.5019         estimate D2E/DX2                !
 ! R60   R(32,34)                1.4435         estimate D2E/DX2                !
 ! R61   R(32,70)                1.4116         estimate D2E/DX2                !
 ! R62   R(33,35)                1.4103         estimate D2E/DX2                !
 ! R63   R(33,73)                1.4239         estimate D2E/DX2                !
 ! R64   R(34,36)                1.4047         estimate D2E/DX2                !
 ! R65   R(34,74)                1.4254         estimate D2E/DX2                !
 ! R66   R(35,37)                1.4475         estimate D2E/DX2                !
 ! R67   R(36,38)                1.4507         estimate D2E/DX2                !
 ! R68   R(37,39)                1.4501         estimate D2E/DX2                !
 ! R69   R(37,77)                1.4073         estimate D2E/DX2                !
 ! R70   R(38,42)                1.4498         estimate D2E/DX2                !
 ! R71   R(38,78)                1.4086         estimate D2E/DX2                !
 ! R72   R(39,43)                1.4013         estimate D2E/DX2                !
 ! R73   R(39,79)                1.4151         estimate D2E/DX2                !
 ! R74   R(40,41)                1.4424         estimate D2E/DX2                !
 ! R75   R(40,44)                1.404          estimate D2E/DX2                !
 ! R76   R(40,79)                1.4179         estimate D2E/DX2                !
 ! R77   R(41,45)                1.402          estimate D2E/DX2                !
 ! R78   R(41,80)                1.4193         estimate D2E/DX2                !
 ! R79   R(42,46)                1.4016         estimate D2E/DX2                !
 ! R80   R(42,80)                1.4155         estimate D2E/DX2                !
 ! R81   R(44,47)                1.4513         estimate D2E/DX2                !
 ! R82   R(45,48)                1.4508         estimate D2E/DX2                !
 ! R83   R(47,48)                1.4523         estimate D2E/DX2                !
 ! R84   R(47,49)                1.4046         estimate D2E/DX2                !
 ! R85   R(48,50)                1.4044         estimate D2E/DX2                !
 ! R86   R(49,51)                1.4282         estimate D2E/DX2                !
 ! R87   R(50,52)                1.4271         estimate D2E/DX2                !
 ! R88   R(51,52)                1.372          estimate D2E/DX2                !
 ! R89   R(51,55)                1.4402         estimate D2E/DX2                !
 ! R90   R(52,56)                1.4404         estimate D2E/DX2                !
 ! R91   R(53,55)                1.4176         estimate D2E/DX2                !
 ! R92   R(54,56)                1.4197         estimate D2E/DX2                !
 ! R93   R(55,83)                1.4107         estimate D2E/DX2                !
 ! R94   R(56,84)                1.4104         estimate D2E/DX2                !
 ! R95   R(57,59)                1.424          estimate D2E/DX2                !
 ! R96   R(57,83)                1.4141         estimate D2E/DX2                !
 ! R97   R(58,60)                1.4249         estimate D2E/DX2                !
 ! R98   R(58,84)                1.4136         estimate D2E/DX2                !
 ! R99   R(59,60)                1.3536         estimate D2E/DX2                !
 ! R100  R(59,61)                1.5021         estimate D2E/DX2                !
 ! R101  R(60,62)                1.4987         estimate D2E/DX2                !
 ! R102  R(61,63)                1.5276         estimate D2E/DX2                !
 ! R103  R(61,86)                1.8036         estimate D2E/DX2                !
 ! R104  R(62,64)                1.5268         estimate D2E/DX2                !
 ! R105  R(62,87)                1.8076         estimate D2E/DX2                !
 ! R106  R(63,64)                1.3853         estimate D2E/DX2                !
 ! R107  R(63,65)                1.4279         estimate D2E/DX2                !
 ! R108  R(64,66)                1.4287         estimate D2E/DX2                !
 ! R109  R(65,67)                1.3872         estimate D2E/DX2                !
 ! R110  R(66,68)                1.4383         estimate D2E/DX2                !
 ! R111  R(67,68)                1.4291         estimate D2E/DX2                !
 ! R112  R(67,69)                1.5295         estimate D2E/DX2                !
 ! R113  R(68,70)                1.4186         estimate D2E/DX2                !
 ! R114  R(69,71)                1.5028         estimate D2E/DX2                !
 ! R115  R(69,88)                1.8081         estimate D2E/DX2                !
 ! R116  R(70,72)                1.4457         estimate D2E/DX2                !
 ! R117  R(71,72)                1.3628         estimate D2E/DX2                !
 ! R118  R(71,73)                1.4249         estimate D2E/DX2                !
 ! R119  R(72,74)                1.4403         estimate D2E/DX2                !
 ! R120  R(73,75)                1.3868         estimate D2E/DX2                !
 ! R121  R(74,76)                1.3813         estimate D2E/DX2                !
 ! R122  R(75,76)                1.4376         estimate D2E/DX2                !
 ! R123  R(75,77)                1.4238         estimate D2E/DX2                !
 ! R124  R(76,78)                1.4253         estimate D2E/DX2                !
 ! R125  R(77,81)                1.4423         estimate D2E/DX2                !
 ! R126  R(78,81)                1.443          estimate D2E/DX2                !
 ! R127  R(79,82)                1.4321         estimate D2E/DX2                !
 ! R128  R(80,82)                1.43           estimate D2E/DX2                !
 ! R129  R(81,82)                1.3663         estimate D2E/DX2                !
 ! R130  R(83,84)                1.4422         estimate D2E/DX2                !
 ! A1    A(5,1,17)             121.8336         estimate D2E/DX2                !
 ! A2    A(5,1,25)             108.1605         estimate D2E/DX2                !
 ! A3    A(17,1,25)            121.9373         estimate D2E/DX2                !
 ! A4    A(6,2,43)             106.7601         estimate D2E/DX2                !
 ! A5    A(6,2,44)             120.8076         estimate D2E/DX2                !
 ! A6    A(43,2,44)            122.0382         estimate D2E/DX2                !
 ! A7    A(7,3,18)             122.1572         estimate D2E/DX2                !
 ! A8    A(7,3,26)             107.4729         estimate D2E/DX2                !
 ! A9    A(18,3,26)            120.5691         estimate D2E/DX2                !
 ! A10   A(8,4,45)             120.841          estimate D2E/DX2                !
 ! A11   A(8,4,46)             106.7859         estimate D2E/DX2                !
 ! A12   A(45,4,46)            122.1365         estimate D2E/DX2                !
 ! A13   A(1,5,9)              122.1713         estimate D2E/DX2                !
 ! A14   A(1,5,29)             108.0129         estimate D2E/DX2                !
 ! A15   A(9,5,29)             121.5062         estimate D2E/DX2                !
 ! A16   A(2,6,10)             119.4959         estimate D2E/DX2                !
 ! A17   A(2,6,15)             109.2879         estimate D2E/DX2                !
 ! A18   A(10,6,15)            120.5764         estimate D2E/DX2                !
 ! A19   A(3,7,12)             122.512          estimate D2E/DX2                !
 ! A20   A(3,7,30)             106.9249         estimate D2E/DX2                !
 ! A21   A(12,7,30)            119.7957         estimate D2E/DX2                !
 ! A22   A(4,8,11)             119.4957         estimate D2E/DX2                !
 ! A23   A(4,8,16)             109.3588         estimate D2E/DX2                !
 ! A24   A(11,8,16)            120.7127         estimate D2E/DX2                !
 ! A25   A(5,9,13)             115.3133         estimate D2E/DX2                !
 ! A26   A(5,9,35)             119.6148         estimate D2E/DX2                !
 ! A27   A(13,9,35)            119.5245         estimate D2E/DX2                !
 ! A28   A(6,10,49)            120.1541         estimate D2E/DX2                !
 ! A29   A(6,10,53)            119.966          estimate D2E/DX2                !
 ! A30   A(49,10,53)           109.2687         estimate D2E/DX2                !
 ! A31   A(8,11,50)            120.1144         estimate D2E/DX2                !
 ! A32   A(8,11,54)            119.9316         estimate D2E/DX2                !
 ! A33   A(50,11,54)           109.2879         estimate D2E/DX2                !
 ! A34   A(7,12,14)            114.7417         estimate D2E/DX2                !
 ! A35   A(7,12,36)            120.4882         estimate D2E/DX2                !
 ! A36   A(14,12,36)           119.2729         estimate D2E/DX2                !
 ! A37   A(9,13,15)            122.2224         estimate D2E/DX2                !
 ! A38   A(9,13,43)            120.4471         estimate D2E/DX2                !
 ! A39   A(15,13,43)           108.6044         estimate D2E/DX2                !
 ! A40   A(12,14,16)           122.4787         estimate D2E/DX2                !
 ! A41   A(12,14,46)           120.5968         estimate D2E/DX2                !
 ! A42   A(16,14,46)           108.3832         estimate D2E/DX2                !
 ! A43   A(6,15,13)            106.8836         estimate D2E/DX2                !
 ! A44   A(6,15,17)            120.4292         estimate D2E/DX2                !
 ! A45   A(13,15,17)           122.1646         estimate D2E/DX2                !
 ! A46   A(8,16,14)            106.8728         estimate D2E/DX2                !
 ! A47   A(8,16,18)            120.3821         estimate D2E/DX2                !
 ! A48   A(14,16,18)           122.3431         estimate D2E/DX2                !
 ! A49   A(1,17,15)            115.4504         estimate D2E/DX2                !
 ! A50   A(1,17,19)            118.3217         estimate D2E/DX2                !
 ! A51   A(15,17,19)           119.1806         estimate D2E/DX2                !
 ! A52   A(3,18,16)            114.8505         estimate D2E/DX2                !
 ! A53   A(3,18,20)            118.6461         estimate D2E/DX2                !
 ! A54   A(16,18,20)           119.0858         estimate D2E/DX2                !
 ! A55   A(17,19,21)           118.042          estimate D2E/DX2                !
 ! A56   A(17,19,53)           119.2412         estimate D2E/DX2                !
 ! A57   A(21,19,53)           115.6788         estimate D2E/DX2                !
 ! A58   A(18,20,22)           118.6431         estimate D2E/DX2                !
 ! A59   A(18,20,54)           119.1653         estimate D2E/DX2                !
 ! A60   A(22,20,54)           115.2149         estimate D2E/DX2                !
 ! A61   A(19,21,23)           121.9184         estimate D2E/DX2                !
 ! A62   A(19,21,57)           121.945          estimate D2E/DX2                !
 ! A63   A(23,21,57)           108.2115         estimate D2E/DX2                !
 ! A64   A(20,22,24)           121.4624         estimate D2E/DX2                !
 ! A65   A(20,22,58)           122.2682         estimate D2E/DX2                !
 ! A66   A(24,22,58)           107.6808         estimate D2E/DX2                !
 ! A67   A(21,23,25)           119.9161         estimate D2E/DX2                !
 ! A68   A(21,23,61)           111.4185         estimate D2E/DX2                !
 ! A69   A(25,23,61)           121.5944         estimate D2E/DX2                !
 ! A70   A(22,24,26)           119.7231         estimate D2E/DX2                !
 ! A71   A(22,24,62)           111.9028         estimate D2E/DX2                !
 ! A72   A(26,24,62)           120.8999         estimate D2E/DX2                !
 ! A73   A(1,25,23)            119.8462         estimate D2E/DX2                !
 ! A74   A(1,25,27)            111.442          estimate D2E/DX2                !
 ! A75   A(23,25,27)           121.7159         estimate D2E/DX2                !
 ! A76   A(3,26,24)            120.8893         estimate D2E/DX2                !
 ! A77   A(3,26,28)            108.8305         estimate D2E/DX2                !
 ! A78   A(24,26,28)           120.0517         estimate D2E/DX2                !
 ! A79   A(25,27,29)           100.4737         estimate D2E/DX2                !
 ! A80   A(25,27,65)           110.8543         estimate D2E/DX2                !
 ! A81   A(25,27,85)           113.1449         estimate D2E/DX2                !
 ! A82   A(29,27,65)           109.5625         estimate D2E/DX2                !
 ! A83   A(29,27,85)           113.6969         estimate D2E/DX2                !
 ! A84   A(65,27,85)           108.8917         estimate D2E/DX2                !
 ! A85   A(26,28,30)           105.6351         estimate D2E/DX2                !
 ! A86   A(26,28,66)           120.8041         estimate D2E/DX2                !
 ! A87   A(30,28,66)           120.2061         estimate D2E/DX2                !
 ! A88   A(5,29,27)            111.822          estimate D2E/DX2                !
 ! A89   A(5,29,31)            119.2306         estimate D2E/DX2                !
 ! A90   A(27,29,31)           122.0942         estimate D2E/DX2                !
 ! A91   A(7,30,28)            110.1693         estimate D2E/DX2                !
 ! A92   A(7,30,32)            119.7578         estimate D2E/DX2                !
 ! A93   A(28,30,32)           120.1484         estimate D2E/DX2                !
 ! A94   A(29,31,33)           120.3759         estimate D2E/DX2                !
 ! A95   A(29,31,69)           120.8165         estimate D2E/DX2                !
 ! A96   A(33,31,69)           111.886          estimate D2E/DX2                !
 ! A97   A(30,32,34)           120.3178         estimate D2E/DX2                !
 ! A98   A(30,32,70)           119.6478         estimate D2E/DX2                !
 ! A99   A(34,32,70)           110.1153         estimate D2E/DX2                !
 ! A100  A(31,33,35)           122.4838         estimate D2E/DX2                !
 ! A101  A(31,33,73)           107.1785         estimate D2E/DX2                !
 ! A102  A(35,33,73)           122.16           estimate D2E/DX2                !
 ! A103  A(32,34,36)           120.8448         estimate D2E/DX2                !
 ! A104  A(32,34,74)           105.8092         estimate D2E/DX2                !
 ! A105  A(36,34,74)           122.6162         estimate D2E/DX2                !
 ! A106  A(9,35,33)            116.2369         estimate D2E/DX2                !
 ! A107  A(9,35,37)            120.0815         estimate D2E/DX2                !
 ! A108  A(33,35,37)           118.527          estimate D2E/DX2                !
 ! A109  A(12,36,34)           117.3146         estimate D2E/DX2                !
 ! A110  A(12,36,38)           119.7416         estimate D2E/DX2                !
 ! A111  A(34,36,38)           117.9711         estimate D2E/DX2                !
 ! A112  A(35,37,39)           119.1145         estimate D2E/DX2                !
 ! A113  A(35,37,77)           118.1258         estimate D2E/DX2                !
 ! A114  A(39,37,77)           117.3152         estimate D2E/DX2                !
 ! A115  A(36,38,42)           119.3247         estimate D2E/DX2                !
 ! A116  A(36,38,78)           118.3294         estimate D2E/DX2                !
 ! A117  A(42,38,78)           117.1139         estimate D2E/DX2                !
 ! A118  A(37,39,43)           119.5238         estimate D2E/DX2                !
 ! A119  A(37,39,79)           119.966          estimate D2E/DX2                !
 ! A120  A(43,39,79)           114.7105         estimate D2E/DX2                !
 ! A121  A(41,40,44)           121.0681         estimate D2E/DX2                !
 ! A122  A(41,40,79)           108.3581         estimate D2E/DX2                !
 ! A123  A(44,40,79)           122.1868         estimate D2E/DX2                !
 ! A124  A(40,41,45)           121.0473         estimate D2E/DX2                !
 ! A125  A(40,41,80)           108.4183         estimate D2E/DX2                !
 ! A126  A(45,41,80)           122.1399         estimate D2E/DX2                !
 ! A127  A(38,42,46)           119.5985         estimate D2E/DX2                !
 ! A128  A(38,42,80)           120.1568         estimate D2E/DX2                !
 ! A129  A(46,42,80)           114.6275         estimate D2E/DX2                !
 ! A130  A(2,43,13)            108.3299         estimate D2E/DX2                !
 ! A131  A(2,43,39)            122.2546         estimate D2E/DX2                !
 ! A132  A(13,43,39)           121.0342         estimate D2E/DX2                !
 ! A133  A(2,44,40)            114.8162         estimate D2E/DX2                !
 ! A134  A(2,44,47)            120.1584         estimate D2E/DX2                !
 ! A135  A(40,44,47)           119.1452         estimate D2E/DX2                !
 ! A136  A(4,45,41)            114.7694         estimate D2E/DX2                !
 ! A137  A(4,45,48)            120.1641         estimate D2E/DX2                !
 ! A138  A(41,45,48)           119.2224         estimate D2E/DX2                !
 ! A139  A(4,46,14)            108.4945         estimate D2E/DX2                !
 ! A140  A(4,46,42)            122.2505         estimate D2E/DX2                !
 ! A141  A(14,46,42)           121.2207         estimate D2E/DX2                !
 ! A142  A(44,47,48)           119.6807         estimate D2E/DX2                !
 ! A143  A(44,47,49)           116.8559         estimate D2E/DX2                !
 ! A144  A(48,47,49)           118.2181         estimate D2E/DX2                !
 ! A145  A(45,48,47)           119.7127         estimate D2E/DX2                !
 ! A146  A(45,48,50)           116.7984         estimate D2E/DX2                !
 ! A147  A(47,48,50)           118.2102         estimate D2E/DX2                !
 ! A148  A(10,49,47)           122.052          estimate D2E/DX2                !
 ! A149  A(10,49,51)           105.6292         estimate D2E/DX2                !
 ! A150  A(47,49,51)           121.9382         estimate D2E/DX2                !
 ! A151  A(11,50,48)           122.1535         estimate D2E/DX2                !
 ! A152  A(11,50,52)           105.6769         estimate D2E/DX2                !
 ! A153  A(48,50,52)           121.9631         estimate D2E/DX2                !
 ! A154  A(49,51,52)           119.5224         estimate D2E/DX2                !
 ! A155  A(49,51,55)           109.5552         estimate D2E/DX2                !
 ! A156  A(52,51,55)           120.346          estimate D2E/DX2                !
 ! A157  A(50,52,51)           119.5799         estimate D2E/DX2                !
 ! A158  A(50,52,56)           109.5256         estimate D2E/DX2                !
 ! A159  A(51,52,56)           120.3332         estimate D2E/DX2                !
 ! A160  A(10,53,19)           120.5263         estimate D2E/DX2                !
 ! A161  A(10,53,55)           107.5209         estimate D2E/DX2                !
 ! A162  A(19,53,55)           121.9754         estimate D2E/DX2                !
 ! A163  A(11,54,20)           120.6497         estimate D2E/DX2                !
 ! A164  A(11,54,56)           107.4342         estimate D2E/DX2                !
 ! A165  A(20,54,56)           122.1605         estimate D2E/DX2                !
 ! A166  A(51,55,53)           107.5381         estimate D2E/DX2                !
 ! A167  A(51,55,83)           120.2329         estimate D2E/DX2                !
 ! A168  A(53,55,83)           122.1689         estimate D2E/DX2                !
 ! A169  A(52,56,54)           107.5705         estimate D2E/DX2                !
 ! A170  A(52,56,84)           120.1564         estimate D2E/DX2                !
 ! A171  A(54,56,84)           122.3662         estimate D2E/DX2                !
 ! A172  A(21,57,59)           108.2557         estimate D2E/DX2                !
 ! A173  A(21,57,83)           122.0418         estimate D2E/DX2                !
 ! A174  A(59,57,83)           121.7912         estimate D2E/DX2                !
 ! A175  A(22,58,60)           108.6104         estimate D2E/DX2                !
 ! A176  A(22,58,84)           121.9364         estimate D2E/DX2                !
 ! A177  A(60,58,84)           121.626          estimate D2E/DX2                !
 ! A178  A(57,59,60)           119.8551         estimate D2E/DX2                !
 ! A179  A(57,59,61)           111.4007         estimate D2E/DX2                !
 ! A180  A(60,59,61)           121.8585         estimate D2E/DX2                !
 ! A181  A(58,60,59)           120.2439         estimate D2E/DX2                !
 ! A182  A(58,60,62)           111.2916         estimate D2E/DX2                !
 ! A183  A(59,60,62)           121.3234         estimate D2E/DX2                !
 ! A184  A(23,61,59)           100.6288         estimate D2E/DX2                !
 ! A185  A(23,61,63)           110.7418         estimate D2E/DX2                !
 ! A186  A(23,61,86)           113.3321         estimate D2E/DX2                !
 ! A187  A(59,61,63)           110.4621         estimate D2E/DX2                !
 ! A188  A(59,61,86)           113.1081         estimate D2E/DX2                !
 ! A189  A(63,61,86)           108.4343         estimate D2E/DX2                !
 ! A190  A(24,62,60)           100.4391         estimate D2E/DX2                !
 ! A191  A(24,62,64)           112.0061         estimate D2E/DX2                !
 ! A192  A(24,62,87)           112.1274         estimate D2E/DX2                !
 ! A193  A(60,62,64)           110.8597         estimate D2E/DX2                !
 ! A194  A(60,62,87)           112.9859         estimate D2E/DX2                !
 ! A195  A(64,62,87)           108.3415         estimate D2E/DX2                !
 ! A196  A(61,63,64)           119.7746         estimate D2E/DX2                !
 ! A197  A(61,63,65)           119.5024         estimate D2E/DX2                !
 ! A198  A(64,63,65)           120.3761         estimate D2E/DX2                !
 ! A199  A(62,64,63)           120.7809         estimate D2E/DX2                !
 ! A200  A(62,64,66)           118.3999         estimate D2E/DX2                !
 ! A201  A(63,64,66)           120.1715         estimate D2E/DX2                !
 ! A202  A(27,65,63)           119.2733         estimate D2E/DX2                !
 ! A203  A(27,65,67)           119.6175         estimate D2E/DX2                !
 ! A204  A(63,65,67)           120.702          estimate D2E/DX2                !
 ! A205  A(28,66,64)           119.0666         estimate D2E/DX2                !
 ! A206  A(28,66,68)           118.2997         estimate D2E/DX2                !
 ! A207  A(64,66,68)           119.5            estimate D2E/DX2                !
 ! A208  A(65,67,68)           120.1341         estimate D2E/DX2                !
 ! A209  A(65,67,69)           120.3854         estimate D2E/DX2                !
 ! A210  A(68,67,69)           118.8203         estimate D2E/DX2                !
 ! A211  A(66,68,67)           119.0945         estimate D2E/DX2                !
 ! A212  A(66,68,70)           118.3531         estimate D2E/DX2                !
 ! A213  A(67,68,70)           119.383          estimate D2E/DX2                !
 ! A214  A(31,69,67)           109.8087         estimate D2E/DX2                !
 ! A215  A(31,69,71)           100.7704         estimate D2E/DX2                !
 ! A216  A(31,69,88)           113.3191         estimate D2E/DX2                !
 ! A217  A(67,69,71)           112.6705         estimate D2E/DX2                !
 ! A218  A(67,69,88)           108.2126         estimate D2E/DX2                !
 ! A219  A(71,69,88)           112.002          estimate D2E/DX2                !
 ! A220  A(32,70,68)           120.1192         estimate D2E/DX2                !
 ! A221  A(32,70,72)           106.2967         estimate D2E/DX2                !
 ! A222  A(68,70,72)           121.1026         estimate D2E/DX2                !
 ! A223  A(69,71,72)           121.2884         estimate D2E/DX2                !
 ! A224  A(69,71,73)           110.6984         estimate D2E/DX2                !
 ! A225  A(72,71,73)           119.2176         estimate D2E/DX2                !
 ! A226  A(70,72,71)           120.1455         estimate D2E/DX2                !
 ! A227  A(70,72,74)           107.7475         estimate D2E/DX2                !
 ! A228  A(71,72,74)           120.7363         estimate D2E/DX2                !
 ! A229  A(33,73,71)           109.006          estimate D2E/DX2                !
 ! A230  A(33,73,75)           119.2388         estimate D2E/DX2                !
 ! A231  A(71,73,75)           121.0677         estimate D2E/DX2                !
 ! A232  A(34,74,72)           108.7904         estimate D2E/DX2                !
 ! A233  A(34,74,76)           119.291          estimate D2E/DX2                !
 ! A234  A(72,74,76)           120.1428         estimate D2E/DX2                !
 ! A235  A(73,75,76)           119.5253         estimate D2E/DX2                !
 ! A236  A(73,75,77)           119.5462         estimate D2E/DX2                !
 ! A237  A(76,75,77)           108.8386         estimate D2E/DX2                !
 ! A238  A(74,76,75)           119.2282         estimate D2E/DX2                !
 ! A239  A(74,76,78)           119.3752         estimate D2E/DX2                !
 ! A240  A(75,76,78)           108.8387         estimate D2E/DX2                !
 ! A241  A(37,77,75)           122.3229         estimate D2E/DX2                !
 ! A242  A(37,77,81)           121.4334         estimate D2E/DX2                !
 ! A243  A(75,77,81)           106.0545         estimate D2E/DX2                !
 ! A244  A(38,78,76)           122.2612         estimate D2E/DX2                !
 ! A245  A(38,78,81)           121.3445         estimate D2E/DX2                !
 ! A246  A(76,78,81)           105.9358         estimate D2E/DX2                !
 ! A247  A(39,79,40)           122.2631         estimate D2E/DX2                !
 ! A248  A(39,79,82)           120.3576         estimate D2E/DX2                !
 ! A249  A(40,79,82)           106.7716         estimate D2E/DX2                !
 ! A250  A(41,80,42)           122.3126         estimate D2E/DX2                !
 ! A251  A(41,80,82)           106.726          estimate D2E/DX2                !
 ! A252  A(42,80,82)           120.359          estimate D2E/DX2                !
 ! A253  A(77,81,78)           109.5922         estimate D2E/DX2                !
 ! A254  A(77,81,82)           119.983          estimate D2E/DX2                !
 ! A255  A(78,81,82)           120.1272         estimate D2E/DX2                !
 ! A256  A(79,82,80)           109.5073         estimate D2E/DX2                !
 ! A257  A(79,82,81)           120.1429         estimate D2E/DX2                !
 ! A258  A(80,82,81)           120.0347         estimate D2E/DX2                !
 ! A259  A(55,83,57)           115.602          estimate D2E/DX2                !
 ! A260  A(55,83,84)           119.3129         estimate D2E/DX2                !
 ! A261  A(57,83,84)           118.2814         estimate D2E/DX2                !
 ! A262  A(56,84,58)           115.4694         estimate D2E/DX2                !
 ! A263  A(56,84,83)           119.4905         estimate D2E/DX2                !
 ! A264  A(58,84,83)           118.2011         estimate D2E/DX2                !
 ! D1    D(17,1,5,9)            -3.0459         estimate D2E/DX2                !
 ! D2    D(17,1,5,29)         -151.6675         estimate D2E/DX2                !
 ! D3    D(25,1,5,9)           146.1514         estimate D2E/DX2                !
 ! D4    D(25,1,5,29)           -2.4702         estimate D2E/DX2                !
 ! D5    D(5,1,17,15)           -5.4325         estimate D2E/DX2                !
 ! D6    D(5,1,17,19)          145.0114         estimate D2E/DX2                !
 ! D7    D(25,1,17,15)        -150.4471         estimate D2E/DX2                !
 ! D8    D(25,1,17,19)          -0.0033         estimate D2E/DX2                !
 ! D9    D(5,1,25,23)         -148.0298         estimate D2E/DX2                !
 ! D10   D(5,1,25,27)            3.1946         estimate D2E/DX2                !
 ! D11   D(17,1,25,23)           1.129          estimate D2E/DX2                !
 ! D12   D(17,1,25,27)         152.3534         estimate D2E/DX2                !
 ! D13   D(43,2,6,10)         -148.5997         estimate D2E/DX2                !
 ! D14   D(43,2,6,15)           -3.7989         estimate D2E/DX2                !
 ! D15   D(44,2,6,10)           -3.0497         estimate D2E/DX2                !
 ! D16   D(44,2,6,15)          141.751          estimate D2E/DX2                !
 ! D17   D(6,2,43,13)            3.1885         estimate D2E/DX2                !
 ! D18   D(6,2,43,39)          151.5396         estimate D2E/DX2                !
 ! D19   D(44,2,43,13)        -141.8407         estimate D2E/DX2                !
 ! D20   D(44,2,43,39)           6.5104         estimate D2E/DX2                !
 ! D21   D(6,2,44,40)         -152.3753         estimate D2E/DX2                !
 ! D22   D(6,2,44,47)            0.4038         estimate D2E/DX2                !
 ! D23   D(43,2,44,40)         -12.0909         estimate D2E/DX2                !
 ! D24   D(43,2,44,47)         140.6883         estimate D2E/DX2                !
 ! D25   D(18,3,7,12)            3.3794         estimate D2E/DX2                !
 ! D26   D(18,3,7,30)          147.4641         estimate D2E/DX2                !
 ! D27   D(26,3,7,12)         -142.4831         estimate D2E/DX2                !
 ! D28   D(26,3,7,30)            1.6016         estimate D2E/DX2                !
 ! D29   D(7,3,18,16)            5.4805         estimate D2E/DX2                !
 ! D30   D(7,3,18,20)         -144.2239         estimate D2E/DX2                !
 ! D31   D(26,3,18,16)         147.0407         estimate D2E/DX2                !
 ! D32   D(26,3,18,20)          -2.6638         estimate D2E/DX2                !
 ! D33   D(7,3,26,24)          149.7124         estimate D2E/DX2                !
 ! D34   D(7,3,26,28)            4.5713         estimate D2E/DX2                !
 ! D35   D(18,3,26,24)           3.2016         estimate D2E/DX2                !
 ! D36   D(18,3,26,28)        -141.9395         estimate D2E/DX2                !
 ! D37   D(45,4,8,11)            2.6967         estimate D2E/DX2                !
 ! D38   D(45,4,8,16)         -142.4579         estimate D2E/DX2                !
 ! D39   D(46,4,8,11)          148.512          estimate D2E/DX2                !
 ! D40   D(46,4,8,16)            3.3574         estimate D2E/DX2                !
 ! D41   D(8,4,45,41)          152.7886         estimate D2E/DX2                !
 ! D42   D(8,4,45,48)           -0.0895         estimate D2E/DX2                !
 ! D43   D(46,4,45,41)          12.2273         estimate D2E/DX2                !
 ! D44   D(46,4,45,48)        -140.6508         estimate D2E/DX2                !
 ! D45   D(8,4,46,14)           -2.8474         estimate D2E/DX2                !
 ! D46   D(8,4,46,42)         -151.8642         estimate D2E/DX2                !
 ! D47   D(45,4,46,14)         142.4234         estimate D2E/DX2                !
 ! D48   D(45,4,46,42)          -6.5934         estimate D2E/DX2                !
 ! D49   D(1,5,9,13)             8.0496         estimate D2E/DX2                !
 ! D50   D(1,5,9,35)          -145.5751         estimate D2E/DX2                !
 ! D51   D(29,5,9,13)          152.5438         estimate D2E/DX2                !
 ! D52   D(29,5,9,35)           -1.0809         estimate D2E/DX2                !
 ! D53   D(1,5,29,27)            0.8995         estimate D2E/DX2                !
 ! D54   D(1,5,29,31)          152.5302         estimate D2E/DX2                !
 ! D55   D(9,5,29,27)         -147.9727         estimate D2E/DX2                !
 ! D56   D(9,5,29,31)            3.6579         estimate D2E/DX2                !
 ! D57   D(2,6,10,49)            0.0175         estimate D2E/DX2                !
 ! D58   D(2,6,10,53)          140.8662         estimate D2E/DX2                !
 ! D59   D(15,6,10,49)        -140.7894         estimate D2E/DX2                !
 ! D60   D(15,6,10,53)           0.0593         estimate D2E/DX2                !
 ! D61   D(2,6,15,13)            2.9311         estimate D2E/DX2                !
 ! D62   D(2,6,15,17)         -142.5039         estimate D2E/DX2                !
 ! D63   D(10,6,15,13)         147.2876         estimate D2E/DX2                !
 ! D64   D(10,6,15,17)           1.8526         estimate D2E/DX2                !
 ! D65   D(3,7,12,14)           -8.5371         estimate D2E/DX2                !
 ! D66   D(3,7,12,36)          145.1129         estimate D2E/DX2                !
 ! D67   D(30,7,12,14)        -148.2461         estimate D2E/DX2                !
 ! D68   D(30,7,12,36)           5.4038         estimate D2E/DX2                !
 ! D69   D(3,7,30,28)           -7.4377         estimate D2E/DX2                !
 ! D70   D(3,7,30,32)         -153.1614         estimate D2E/DX2                !
 ! D71   D(12,7,30,28)         137.8113         estimate D2E/DX2                !
 ! D72   D(12,7,30,32)          -7.9124         estimate D2E/DX2                !
 ! D73   D(4,8,11,50)            0.0287         estimate D2E/DX2                !
 ! D74   D(4,8,11,54)         -140.738          estimate D2E/DX2                !
 ! D75   D(16,8,11,50)         141.1993         estimate D2E/DX2                !
 ! D76   D(16,8,11,54)           0.4326         estimate D2E/DX2                !
 ! D77   D(4,8,16,14)           -2.5601         estimate D2E/DX2                !
 ! D78   D(4,8,16,18)          143.1168         estimate D2E/DX2                !
 ! D79   D(11,8,16,14)        -147.2189         estimate D2E/DX2                !
 ! D80   D(11,8,16,18)          -1.542          estimate D2E/DX2                !
 ! D81   D(5,9,13,15)           -4.731          estimate D2E/DX2                !
 ! D82   D(5,9,13,43)         -148.6237         estimate D2E/DX2                !
 ! D83   D(35,9,13,15)         148.919          estimate D2E/DX2                !
 ! D84   D(35,9,13,43)           5.0263         estimate D2E/DX2                !
 ! D85   D(5,9,35,33)           -4.9463         estimate D2E/DX2                !
 ! D86   D(5,9,35,37)          149.3155         estimate D2E/DX2                !
 ! D87   D(13,9,35,33)        -157.4607         estimate D2E/DX2                !
 ! D88   D(13,9,35,37)          -3.1989         estimate D2E/DX2                !
 ! D89   D(6,10,49,47)           5.9066         estimate D2E/DX2                !
 ! D90   D(6,10,49,51)         151.3202         estimate D2E/DX2                !
 ! D91   D(53,10,49,47)       -138.683          estimate D2E/DX2                !
 ! D92   D(53,10,49,51)          6.7306         estimate D2E/DX2                !
 ! D93   D(6,10,53,19)          -2.5295         estimate D2E/DX2                !
 ! D94   D(6,10,53,55)        -148.7134         estimate D2E/DX2                !
 ! D95   D(49,10,53,19)        142.1374         estimate D2E/DX2                !
 ! D96   D(49,10,53,55)         -4.0465         estimate D2E/DX2                !
 ! D97   D(8,11,50,48)          -5.6064         estimate D2E/DX2                !
 ! D98   D(8,11,50,52)        -151.2814         estimate D2E/DX2                !
 ! D99   D(54,11,50,48)        138.8927         estimate D2E/DX2                !
 ! D100  D(54,11,50,52)         -6.7823         estimate D2E/DX2                !
 ! D101  D(8,11,54,20)           1.9494         estimate D2E/DX2                !
 ! D102  D(8,11,54,56)         148.5245         estimate D2E/DX2                !
 ! D103  D(50,11,54,20)       -142.6249         estimate D2E/DX2                !
 ! D104  D(50,11,54,56)          3.9502         estimate D2E/DX2                !
 ! D105  D(7,12,14,16)           5.0466         estimate D2E/DX2                !
 ! D106  D(7,12,14,46)         149.2127         estimate D2E/DX2                !
 ! D107  D(36,12,14,16)       -148.9466         estimate D2E/DX2                !
 ! D108  D(36,12,14,46)         -4.7805         estimate D2E/DX2                !
 ! D109  D(7,12,36,34)           4.9747         estimate D2E/DX2                !
 ! D110  D(7,12,36,38)        -149.5878         estimate D2E/DX2                !
 ! D111  D(14,12,36,34)        157.4505         estimate D2E/DX2                !
 ! D112  D(14,12,36,38)          2.888          estimate D2E/DX2                !
 ! D113  D(9,13,15,6)         -148.4969         estimate D2E/DX2                !
 ! D114  D(9,13,15,17)          -3.7989         estimate D2E/DX2                !
 ! D115  D(43,13,15,6)          -0.9117         estimate D2E/DX2                !
 ! D116  D(43,13,15,17)        143.7863         estimate D2E/DX2                !
 ! D117  D(9,13,43,2)          146.8293         estimate D2E/DX2                !
 ! D118  D(9,13,43,39)          -1.9812         estimate D2E/DX2                !
 ! D119  D(15,13,43,2)          -1.4333         estimate D2E/DX2                !
 ! D120  D(15,13,43,39)       -150.2438         estimate D2E/DX2                !
 ! D121  D(12,14,16,8)         148.6842         estimate D2E/DX2                !
 ! D122  D(12,14,16,18)          3.8361         estimate D2E/DX2                !
 ! D123  D(46,14,16,8)           0.759          estimate D2E/DX2                !
 ! D124  D(46,14,16,18)       -144.089          estimate D2E/DX2                !
 ! D125  D(12,14,46,4)        -147.3252         estimate D2E/DX2                !
 ! D126  D(12,14,46,42)          2.0712         estimate D2E/DX2                !
 ! D127  D(16,14,46,4)           1.3139         estimate D2E/DX2                !
 ! D128  D(16,14,46,42)        150.7102         estimate D2E/DX2                !
 ! D129  D(6,15,17,1)          148.8816         estimate D2E/DX2                !
 ! D130  D(6,15,17,19)          -1.2935         estimate D2E/DX2                !
 ! D131  D(13,15,17,1)           8.7715         estimate D2E/DX2                !
 ! D132  D(13,15,17,19)       -141.4037         estimate D2E/DX2                !
 ! D133  D(8,16,18,3)         -149.2762         estimate D2E/DX2                !
 ! D134  D(8,16,18,20)           0.2863         estimate D2E/DX2                !
 ! D135  D(14,16,18,3)          -8.9688         estimate D2E/DX2                !
 ! D136  D(14,16,18,20)        140.5936         estimate D2E/DX2                !
 ! D137  D(1,17,19,21)          -1.0465         estimate D2E/DX2                !
 ! D138  D(1,17,19,53)        -150.459          estimate D2E/DX2                !
 ! D139  D(15,17,19,21)        148.2794         estimate D2E/DX2                !
 ! D140  D(15,17,19,53)         -1.133          estimate D2E/DX2                !
 ! D141  D(3,18,20,22)           1.0468         estimate D2E/DX2                !
 ! D142  D(3,18,20,54)         150.4444         estimate D2E/DX2                !
 ! D143  D(16,18,20,22)       -147.3653         estimate D2E/DX2                !
 ! D144  D(16,18,20,54)          2.0323         estimate D2E/DX2                !
 ! D145  D(17,19,21,23)          1.0582         estimate D2E/DX2                !
 ! D146  D(17,19,21,57)       -144.2576         estimate D2E/DX2                !
 ! D147  D(53,19,21,23)        151.5421         estimate D2E/DX2                !
 ! D148  D(53,19,21,57)          6.2262         estimate D2E/DX2                !
 ! D149  D(17,19,53,10)          3.044          estimate D2E/DX2                !
 ! D150  D(17,19,53,55)        144.3153         estimate D2E/DX2                !
 ! D151  D(21,19,53,10)       -147.0662         estimate D2E/DX2                !
 ! D152  D(21,19,53,55)         -5.795          estimate D2E/DX2                !
 ! D153  D(18,20,22,24)          0.1284         estimate D2E/DX2                !
 ! D154  D(18,20,22,58)        143.9756         estimate D2E/DX2                !
 ! D155  D(54,20,22,24)       -150.442          estimate D2E/DX2                !
 ! D156  D(54,20,22,58)         -6.5948         estimate D2E/DX2                !
 ! D157  D(18,20,54,11)         -3.1642         estimate D2E/DX2                !
 ! D158  D(18,20,54,56)       -144.7902         estimate D2E/DX2                !
 ! D159  D(22,20,54,11)        147.243          estimate D2E/DX2                !
 ! D160  D(22,20,54,56)          5.617          estimate D2E/DX2                !
 ! D161  D(19,21,23,25)          0.0475         estimate D2E/DX2                !
 ! D162  D(19,21,23,61)       -150.9967         estimate D2E/DX2                !
 ! D163  D(57,21,23,25)        149.4945         estimate D2E/DX2                !
 ! D164  D(57,21,23,61)         -1.5497         estimate D2E/DX2                !
 ! D165  D(19,21,57,59)        149.0626         estimate D2E/DX2                !
 ! D166  D(19,21,57,83)         -0.3551         estimate D2E/DX2                !
 ! D167  D(23,21,57,59)         -0.3745         estimate D2E/DX2                !
 ! D168  D(23,21,57,83)       -149.7923         estimate D2E/DX2                !
 ! D169  D(20,22,24,26)          0.3413         estimate D2E/DX2                !
 ! D170  D(20,22,24,62)        150.4404         estimate D2E/DX2                !
 ! D171  D(58,22,24,26)       -148.0873         estimate D2E/DX2                !
 ! D172  D(58,22,24,62)          2.0118         estimate D2E/DX2                !
 ! D173  D(20,22,58,60)       -148.4266         estimate D2E/DX2                !
 ! D174  D(20,22,58,84)          1.103          estimate D2E/DX2                !
 ! D175  D(24,22,58,60)         -0.3076         estimate D2E/DX2                !
 ! D176  D(24,22,58,84)        149.2219         estimate D2E/DX2                !
 ! D177  D(21,23,25,1)          -1.1343         estimate D2E/DX2                !
 ! D178  D(21,23,25,27)       -149.3502         estimate D2E/DX2                !
 ! D179  D(61,23,25,1)         146.9192         estimate D2E/DX2                !
 ! D180  D(61,23,25,27)         -1.2967         estimate D2E/DX2                !
 ! D181  D(21,23,61,59)          2.6469         estimate D2E/DX2                !
 ! D182  D(21,23,61,63)        119.4812         estimate D2E/DX2                !
 ! D183  D(21,23,61,86)       -118.4057         estimate D2E/DX2                !
 ! D184  D(25,23,61,59)       -147.8383         estimate D2E/DX2                !
 ! D185  D(25,23,61,63)        -31.0041         estimate D2E/DX2                !
 ! D186  D(25,23,61,86)         91.109          estimate D2E/DX2                !
 ! D187  D(22,24,26,3)          -1.9762         estimate D2E/DX2                !
 ! D188  D(22,24,26,28)        139.3431         estimate D2E/DX2                !
 ! D189  D(62,24,26,3)        -149.359          estimate D2E/DX2                !
 ! D190  D(62,24,26,28)         -8.0397         estimate D2E/DX2                !
 ! D191  D(22,24,62,60)         -2.7186         estimate D2E/DX2                !
 ! D192  D(22,24,62,64)       -120.428          estimate D2E/DX2                !
 ! D193  D(22,24,62,87)        117.5175         estimate D2E/DX2                !
 ! D194  D(26,24,62,60)        146.9818         estimate D2E/DX2                !
 ! D195  D(26,24,62,64)         29.2724         estimate D2E/DX2                !
 ! D196  D(26,24,62,87)        -92.7822         estimate D2E/DX2                !
 ! D197  D(1,25,27,29)          -2.4803         estimate D2E/DX2                !
 ! D198  D(1,25,27,65)        -118.253          estimate D2E/DX2                !
 ! D199  D(1,25,27,85)         119.0874         estimate D2E/DX2                !
 ! D200  D(23,25,27,29)        148.1246         estimate D2E/DX2                !
 ! D201  D(23,25,27,65)         32.3518         estimate D2E/DX2                !
 ! D202  D(23,25,27,85)        -90.3078         estimate D2E/DX2                !
 ! D203  D(3,26,28,30)          -8.9579         estimate D2E/DX2                !
 ! D204  D(3,26,28,66)         131.8577         estimate D2E/DX2                !
 ! D205  D(24,26,28,30)       -154.4401         estimate D2E/DX2                !
 ! D206  D(24,26,28,66)        -13.6245         estimate D2E/DX2                !
 ! D207  D(25,27,29,5)           0.9313         estimate D2E/DX2                !
 ! D208  D(25,27,29,31)       -149.7644         estimate D2E/DX2                !
 ! D209  D(65,27,29,5)         117.668          estimate D2E/DX2                !
 ! D210  D(65,27,29,31)        -33.0277         estimate D2E/DX2                !
 ! D211  D(85,27,29,5)        -120.2442         estimate D2E/DX2                !
 ! D212  D(85,27,29,31)         89.0601         estimate D2E/DX2                !
 ! D213  D(25,27,65,63)        -30.1531         estimate D2E/DX2                !
 ! D214  D(25,27,65,67)        142.5755         estimate D2E/DX2                !
 ! D215  D(29,27,65,63)       -140.1405         estimate D2E/DX2                !
 ! D216  D(29,27,65,67)         32.5881         estimate D2E/DX2                !
 ! D217  D(85,27,65,63)         94.9413         estimate D2E/DX2                !
 ! D218  D(85,27,65,67)        -92.3301         estimate D2E/DX2                !
 ! D219  D(26,28,30,7)          10.0718         estimate D2E/DX2                !
 ! D220  D(26,28,30,32)        155.6417         estimate D2E/DX2                !
 ! D221  D(66,28,30,7)        -131.0294         estimate D2E/DX2                !
 ! D222  D(66,28,30,32)         14.5404         estimate D2E/DX2                !
 ! D223  D(26,28,66,64)         10.8009         estimate D2E/DX2                !
 ! D224  D(26,28,66,68)       -149.1055         estimate D2E/DX2                !
 ! D225  D(30,28,66,64)        146.0494         estimate D2E/DX2                !
 ! D226  D(30,28,66,68)        -13.8569         estimate D2E/DX2                !
 ! D227  D(5,29,31,33)           0.0469         estimate D2E/DX2                !
 ! D228  D(5,29,31,69)        -148.4638         estimate D2E/DX2                !
 ! D229  D(27,29,31,33)        148.6692         estimate D2E/DX2                !
 ! D230  D(27,29,31,69)          0.1585         estimate D2E/DX2                !
 ! D231  D(7,30,32,34)          -0.0379         estimate D2E/DX2                !
 ! D232  D(7,30,32,70)         142.2646         estimate D2E/DX2                !
 ! D233  D(28,30,32,34)       -142.351          estimate D2E/DX2                !
 ! D234  D(28,30,32,70)         -0.0484         estimate D2E/DX2                !
 ! D235  D(29,31,33,35)         -6.5576         estimate D2E/DX2                !
 ! D236  D(29,31,33,73)       -155.572          estimate D2E/DX2                !
 ! D237  D(69,31,33,35)        144.5325         estimate D2E/DX2                !
 ! D238  D(69,31,33,73)         -4.4819         estimate D2E/DX2                !
 ! D239  D(29,31,69,67)         32.3913         estimate D2E/DX2                !
 ! D240  D(29,31,69,71)        151.439          estimate D2E/DX2                !
 ! D241  D(29,31,69,88)        -88.741          estimate D2E/DX2                !
 ! D242  D(33,31,69,67)       -118.5545         estimate D2E/DX2                !
 ! D243  D(33,31,69,71)          0.4932         estimate D2E/DX2                !
 ! D244  D(33,31,69,88)        120.3132         estimate D2E/DX2                !
 ! D245  D(30,32,34,36)         10.8502         estimate D2E/DX2                !
 ! D246  D(30,32,34,74)        156.0929         estimate D2E/DX2                !
 ! D247  D(70,32,34,36)       -134.6809         estimate D2E/DX2                !
 ! D248  D(70,32,34,74)         10.5618         estimate D2E/DX2                !
 ! D249  D(30,32,70,68)        -14.87           estimate D2E/DX2                !
 ! D250  D(30,32,70,72)       -157.2248         estimate D2E/DX2                !
 ! D251  D(34,32,70,68)        130.9252         estimate D2E/DX2                !
 ! D252  D(34,32,70,72)        -11.4296         estimate D2E/DX2                !
 ! D253  D(31,33,35,9)           8.8082         estimate D2E/DX2                !
 ! D254  D(31,33,35,37)       -145.8704         estimate D2E/DX2                !
 ! D255  D(73,33,35,9)         153.2872         estimate D2E/DX2                !
 ! D256  D(73,33,35,37)         -1.3914         estimate D2E/DX2                !
 ! D257  D(31,33,73,71)          6.8036         estimate D2E/DX2                !
 ! D258  D(31,33,73,75)        151.7196         estimate D2E/DX2                !
 ! D259  D(35,33,73,71)       -142.3336         estimate D2E/DX2                !
 ! D260  D(35,33,73,75)          2.5824         estimate D2E/DX2                !
 ! D261  D(32,34,36,12)        -13.0221         estimate D2E/DX2                !
 ! D262  D(32,34,36,38)        141.9996         estimate D2E/DX2                !
 ! D263  D(74,34,36,12)       -152.3873         estimate D2E/DX2                !
 ! D264  D(74,34,36,38)          2.6345         estimate D2E/DX2                !
 ! D265  D(32,34,74,72)         -5.3953         estimate D2E/DX2                !
 ! D266  D(32,34,74,76)       -148.4348         estimate D2E/DX2                !
 ! D267  D(36,34,74,72)        139.0764         estimate D2E/DX2                !
 ! D268  D(36,34,74,76)         -3.9632         estimate D2E/DX2                !
 ! D269  D(9,35,37,39)          -1.6218         estimate D2E/DX2                !
 ! D270  D(9,35,37,77)        -154.9091         estimate D2E/DX2                !
 ! D271  D(33,35,37,39)        152.0607         estimate D2E/DX2                !
 ! D272  D(33,35,37,77)         -1.2266         estimate D2E/DX2                !
 ! D273  D(12,36,38,42)          1.681          estimate D2E/DX2                !
 ! D274  D(12,36,38,78)        155.4099         estimate D2E/DX2                !
 ! D275  D(34,36,38,42)       -152.7173         estimate D2E/DX2                !
 ! D276  D(34,36,38,78)          1.0116         estimate D2E/DX2                !
 ! D277  D(35,37,39,43)          4.6512         estimate D2E/DX2                !
 ! D278  D(35,37,39,79)       -147.1198         estimate D2E/DX2                !
 ! D279  D(77,37,39,43)        158.1518         estimate D2E/DX2                !
 ! D280  D(77,37,39,79)          6.3808         estimate D2E/DX2                !
 ! D281  D(35,37,77,75)          2.7339         estimate D2E/DX2                !
 ! D282  D(35,37,77,81)        143.1127         estimate D2E/DX2                !
 ! D283  D(39,37,77,75)       -151.0341         estimate D2E/DX2                !
 ! D284  D(39,37,77,81)        -10.6554         estimate D2E/DX2                !
 ! D285  D(36,38,42,46)         -4.4019         estimate D2E/DX2                !
 ! D286  D(36,38,42,80)        147.7652         estimate D2E/DX2                !
 ! D287  D(78,38,42,46)       -158.444          estimate D2E/DX2                !
 ! D288  D(78,38,42,80)         -6.2769         estimate D2E/DX2                !
 ! D289  D(36,38,78,76)         -3.4131         estimate D2E/DX2                !
 ! D290  D(36,38,78,81)       -143.2872         estimate D2E/DX2                !
 ! D291  D(42,38,78,76)        150.8941         estimate D2E/DX2                !
 ! D292  D(42,38,78,81)         11.0199         estimate D2E/DX2                !
 ! D293  D(37,39,43,2)        -147.3782         estimate D2E/DX2                !
 ! D294  D(37,39,43,13)         -2.92           estimate D2E/DX2                !
 ! D295  D(79,39,43,2)           5.8094         estimate D2E/DX2                !
 ! D296  D(79,39,43,13)        150.2676         estimate D2E/DX2                !
 ! D297  D(37,39,79,40)        140.8847         estimate D2E/DX2                !
 ! D298  D(37,39,79,82)          0.9596         estimate D2E/DX2                !
 ! D299  D(43,39,79,40)        -12.1748         estimate D2E/DX2                !
 ! D300  D(43,39,79,82)       -152.0999         estimate D2E/DX2                !
 ! D301  D(44,40,41,45)          0.0182         estimate D2E/DX2                !
 ! D302  D(44,40,41,80)       -148.7346         estimate D2E/DX2                !
 ! D303  D(79,40,41,45)        148.7962         estimate D2E/DX2                !
 ! D304  D(79,40,41,80)          0.0433         estimate D2E/DX2                !
 ! D305  D(41,40,44,2)         150.2151         estimate D2E/DX2                !
 ! D306  D(41,40,44,47)         -2.8589         estimate D2E/DX2                !
 ! D307  D(79,40,44,2)           5.7581         estimate D2E/DX2                !
 ! D308  D(79,40,44,47)       -147.3159         estimate D2E/DX2                !
 ! D309  D(41,40,79,39)       -141.7528         estimate D2E/DX2                !
 ! D310  D(41,40,79,82)          2.7827         estimate D2E/DX2                !
 ! D311  D(44,40,79,39)          6.604          estimate D2E/DX2                !
 ! D312  D(44,40,79,82)        151.1395         estimate D2E/DX2                !
 ! D313  D(40,41,45,4)        -150.2763         estimate D2E/DX2                !
 ! D314  D(40,41,45,48)          2.8753         estimate D2E/DX2                !
 ! D315  D(80,41,45,4)          -5.8136         estimate D2E/DX2                !
 ! D316  D(80,41,45,48)        147.338          estimate D2E/DX2                !
 ! D317  D(40,41,80,42)        141.684          estimate D2E/DX2                !
 ! D318  D(40,41,80,82)         -2.8548         estimate D2E/DX2                !
 ! D319  D(45,41,80,42)         -6.6578         estimate D2E/DX2                !
 ! D320  D(45,41,80,82)       -151.1966         estimate D2E/DX2                !
 ! D321  D(38,42,46,4)         147.7922         estimate D2E/DX2                !
 ! D322  D(38,42,46,14)          2.6036         estimate D2E/DX2                !
 ! D323  D(80,42,46,4)          -5.8421         estimate D2E/DX2                !
 ! D324  D(80,42,46,14)       -151.0307         estimate D2E/DX2                !
 ! D325  D(38,42,80,41)       -141.1968         estimate D2E/DX2                !
 ! D326  D(38,42,80,82)         -1.2801         estimate D2E/DX2                !
 ! D327  D(46,42,80,41)         12.2779         estimate D2E/DX2                !
 ! D328  D(46,42,80,82)        152.1947         estimate D2E/DX2                !
 ! D329  D(2,44,47,48)        -148.8483         estimate D2E/DX2                !
 ! D330  D(2,44,47,49)           5.1297         estimate D2E/DX2                !
 ! D331  D(40,44,47,48)          2.7683         estimate D2E/DX2                !
 ! D332  D(40,44,47,49)        156.7463         estimate D2E/DX2                !
 ! D333  D(4,45,48,47)         148.7991         estimate D2E/DX2                !
 ! D334  D(4,45,48,50)          -5.0986         estimate D2E/DX2                !
 ! D335  D(41,45,48,47)         -2.8865         estimate D2E/DX2                !
 ! D336  D(41,45,48,50)       -156.7842         estimate D2E/DX2                !
[...]
 Alpha virt. eigenvalues --    1.19513   1.19722   1.20171   1.20450   1.20663
 Alpha virt. eigenvalues --    1.20967   1.21732   1.21840   1.22100   1.22515
 Alpha virt. eigenvalues --    1.22702   1.23068   1.23325   1.23745   1.23872
 Alpha virt. eigenvalues --    1.23974   1.24415   1.24612   1.24977   1.25218
 Alpha virt. eigenvalues --    1.25395   1.25633   1.26032   1.26396   1.26590
 Alpha virt. eigenvalues --    1.26906   1.27061   1.27136   1.27648   1.27891
 Alpha virt. eigenvalues --    1.28226   1.28626   1.28762   1.29418   1.29683
 Alpha virt. eigenvalues --    1.30229   1.30521   1.30549   1.30843   1.31128
 Alpha virt. eigenvalues --    1.31591   1.31791   1.31897   1.32418   1.32646
 Alpha virt. eigenvalues --    1.32792   1.33075   1.33448   1.33928   1.34147
 Alpha virt. eigenvalues --    1.34512   1.34756   1.35448   1.35792   1.36445
 Alpha virt. eigenvalues --    1.36696   1.36927   1.37512   1.38068   1.39100
 Alpha virt. eigenvalues --    1.39443   1.40028   1.40653   1.40863   1.41145
 Alpha virt. eigenvalues --    1.41458   1.42257   1.43164   1.43863   1.44087
 Alpha virt. eigenvalues --    1.44850   1.45822   1.46081   1.46577   1.46752
 Alpha virt. eigenvalues --    1.46984   1.47759   1.48152   1.48513   1.49617
 Alpha virt. eigenvalues --    1.50135   1.50596   1.50711   1.51526   1.51881
 Alpha virt. eigenvalues --    1.52568   1.53217   1.53434   1.53988   1.54509
 Alpha virt. eigenvalues --    1.54898   1.55355   1.55521   1.55961   1.56669
 Alpha virt. eigenvalues --    1.56749   1.56936   1.57382   1.57837   1.58186
 Alpha virt. eigenvalues --    1.58746   1.59661   1.59888   1.60049   1.61021
 Alpha virt. eigenvalues --    1.61700   1.62157   1.63495   1.63823   1.63878
 Alpha virt. eigenvalues --    1.64234   1.64753   1.64813   1.64865   1.65120
 Alpha virt. eigenvalues --    1.65405   1.65620   1.65891   1.66178   1.66457
 Alpha virt. eigenvalues --    1.66967   1.67121   1.67299   1.67788   1.67854
 Alpha virt. eigenvalues --    1.68184   1.68722   1.68905   1.69147   1.69469
 Alpha virt. eigenvalues --    1.69687   1.69989   1.70138   1.70374   1.70416
 Alpha virt. eigenvalues --    1.70652   1.70802   1.71274   1.71411   1.71539
 Alpha virt. eigenvalues --    1.71720   1.72111   1.72243   1.72459   1.72889
 Alpha virt. eigenvalues --    1.73130   1.73330   1.73608   1.73735   1.73845
 Alpha virt. eigenvalues --    1.74370   1.74622   1.74776   1.74845   1.75180
 Alpha virt. eigenvalues --    1.75617   1.75755   1.75946   1.76357   1.76440
 Alpha virt. eigenvalues --    1.76525   1.76786   1.76907   1.77305   1.77715
 Alpha virt. eigenvalues --    1.77975   1.78437   1.78532   1.78863   1.79109
 Alpha virt. eigenvalues --    1.79408   1.79589   1.80049   1.80227   1.80591
 Alpha virt. eigenvalues --    1.80708   1.81168   1.81398   1.81821   1.82134
 Alpha virt. eigenvalues --    1.83096   1.83417   1.83955   1.84549   1.85079
 Alpha virt. eigenvalues --    1.85684   1.85762   1.86225   1.86579   1.87256
 Alpha virt. eigenvalues --    1.87658   1.88071   1.88169   1.88310   1.89006
 Alpha virt. eigenvalues --    1.89607   1.90234   1.90364   1.90860   1.91192
 Alpha virt. eigenvalues --    1.92221   1.92655   1.93077   1.93403   1.93486
 Alpha virt. eigenvalues --    1.94098   1.94263   1.94596   1.94899   1.95267
 Alpha virt. eigenvalues --    1.95629   1.95885   1.96173   1.96484   1.96890
 Alpha virt. eigenvalues --    1.97211   1.97497   1.97685   1.97926   1.97964
 Alpha virt. eigenvalues --    1.98188   1.98367   1.98852   1.99203   1.99269
 Alpha virt. eigenvalues --    1.99377   1.99582   1.99656   1.99896   2.00256
 Alpha virt. eigenvalues --    2.00417   2.00693   2.00850   2.01047   2.01277
 Alpha virt. eigenvalues --    2.01473   2.01794   2.01947   2.02128   2.02514
 Alpha virt. eigenvalues --    2.02777   2.02928   2.03103   2.03627   2.03642
 Alpha virt. eigenvalues --    2.03862   2.04268   2.04473   2.04690   2.05151
 Alpha virt. eigenvalues --    2.05511   2.06119   2.06519   2.06583   2.06841
 Alpha virt. eigenvalues --    2.07178   2.08257   2.08913   2.09002   2.09100
 Alpha virt. eigenvalues --    2.09722   2.10150   2.10907   2.11041   2.11675
 Alpha virt. eigenvalues --    2.11817   2.12124   2.12415   2.12843   2.13191
 Alpha virt. eigenvalues --    2.13836   2.14284   2.14632   2.14816   2.15545
 Alpha virt. eigenvalues --    2.16932   2.17300   2.18226   2.18329   2.18804
 Alpha virt. eigenvalues --    2.19208   2.19460   2.20073   2.20297   2.20537
 Alpha virt. eigenvalues --    2.20938   2.21246   2.21992   2.22188   2.22456
 Alpha virt. eigenvalues --    2.22660   2.22944   2.23564   2.23636   2.24024
 Alpha virt. eigenvalues --    2.24860   2.25018   2.25217   2.25718   2.26268
 Alpha virt. eigenvalues --    2.26722   2.27322   2.27472   2.28160   2.28483
 Alpha virt. eigenvalues --    2.28735   2.29009   2.29243   2.29530   2.30131
 Alpha virt. eigenvalues --    2.30788   2.31030   2.31216   2.31456   2.31921
 Alpha virt. eigenvalues --    2.32767   2.32982   2.33098   2.33535   2.34141
 Alpha virt. eigenvalues --    2.34819   2.36306   2.36578   2.37484   2.37835
 Alpha virt. eigenvalues --    2.38558   2.39178   2.39244   2.40078   2.40415
 Alpha virt. eigenvalues --    2.40583   2.41397   2.41940   2.41997   2.42789
 Alpha virt. eigenvalues --    2.43425   2.43719   2.43983   2.44245   2.44695
 Alpha virt. eigenvalues --    2.44952   2.45402   2.46722   2.46807   2.47931
 Alpha virt. eigenvalues --    2.48373   2.48923   2.49271   2.49483   2.50789
 Alpha virt. eigenvalues --    2.51283   2.51290   2.51972   2.52255   2.52401
 Alpha virt. eigenvalues --    2.52889   2.53597   2.53936   2.54399   2.54760
 Alpha virt. eigenvalues --    2.55269   2.55636   2.56048   2.56153   2.56527
 Alpha virt. eigenvalues --    2.56717   2.57067   2.57122   2.57669   2.58094
 Alpha virt. eigenvalues --    2.58440   2.58521   2.58740   2.58986   2.59175
 Alpha virt. eigenvalues --    2.59449   2.59800   2.60346   2.60609   2.60815
 Alpha virt. eigenvalues --    2.61305   2.61634   2.61838   2.61971   2.62674
 Alpha virt. eigenvalues --    2.63095   2.63409   2.63842   2.64118   2.64418
 Alpha virt. eigenvalues --    2.64978   2.65250   2.65601   2.65915   2.66340
 Alpha virt. eigenvalues --    2.66582   2.67106   2.67202   2.67514   2.67726
 Alpha virt. eigenvalues --    2.67949   2.68345   2.68593   2.68990   2.69638
 Alpha virt. eigenvalues --    2.70104   2.70680   2.70982   2.71285   2.71891
 Alpha virt. eigenvalues --    2.72110   2.72363   2.72636   2.73405   2.73692
 Alpha virt. eigenvalues --    2.73870   2.74298   2.74932   2.75540   2.76080
 Alpha virt. eigenvalues --    2.77097   2.77447   2.77791   2.78208   2.78945
 Alpha virt. eigenvalues --    2.79264   2.79544   2.79691   2.79913   2.80564
 Alpha virt. eigenvalues --    2.81141   2.81502   2.81988   2.82492   2.83085
 Alpha virt. eigenvalues --    2.83524   2.83660   2.83789   2.84374   2.84468
 Alpha virt. eigenvalues --    2.85100   2.85448   2.85797   2.87251   2.87926
 Alpha virt. eigenvalues --    2.88068   2.88788   2.88989   2.89011   2.89854
 Alpha virt. eigenvalues --    2.90192   2.90872   2.91204   2.91505   2.91647
 Alpha virt. eigenvalues --    2.92062   2.92469   2.92942   2.93459   2.93753
 Alpha virt. eigenvalues --    2.94215   2.94523   2.94563   2.95435   2.96097
 Alpha virt. eigenvalues --    2.96534   2.96874   2.97379   2.98600   2.99467
 Alpha virt. eigenvalues --    2.99832   3.00569   3.01166   3.03005   3.03844
 Alpha virt. eigenvalues --    3.05851   3.06148   3.08473   3.09521   3.11592
 Alpha virt. eigenvalues --    3.12493   3.12692   3.14006   3.15834   3.18178
 Alpha virt. eigenvalues --    3.19622   3.20682   3.20901   3.21367   3.23240
 Alpha virt. eigenvalues --    3.24919   3.26425   3.26645   3.29383   3.31964
 Alpha virt. eigenvalues --    3.32391   3.34902   3.36403   3.37017   3.38182
 Alpha virt. eigenvalues --    3.38817   3.42659   3.43356   3.44636   3.46009
 Alpha virt. eigenvalues --    3.49142   3.49810   3.52116   3.52867   3.57062
 Alpha virt. eigenvalues --    3.60509   3.65586   4.01156   4.01429   4.01845
 Alpha virt. eigenvalues --    4.02444   4.03128   4.03290   4.04123   4.05221
 Alpha virt. eigenvalues --    4.05727   4.05887   4.06345   4.07184   4.07410
 Alpha virt. eigenvalues --    4.07628   4.08646   4.08880   4.09775   4.10509
 Alpha virt. eigenvalues --    4.11255   4.11615   4.12051   4.12700   4.14497
 Alpha virt. eigenvalues --    4.15710   4.16435   4.16994   4.17364   4.18825
 Alpha virt. eigenvalues --    4.20269   4.20655   4.21231   4.21907   4.22204
 Alpha virt. eigenvalues --    4.23550   4.23882   4.24871   4.26341   4.27248
 Alpha virt. eigenvalues --    4.27885   4.28272   4.29316   4.29683   4.30223
 Alpha virt. eigenvalues --    4.31087   4.33225   4.34076   4.35341   4.36798
 Alpha virt. eigenvalues --    4.38349   4.39586   4.41168   4.41957   4.44313
 Alpha virt. eigenvalues --    4.46060   4.47244   4.48488   4.48761   4.49317
 Alpha virt. eigenvalues --    4.51268   4.53238   4.54209   4.57374   4.58149
 Alpha virt. eigenvalues --    4.59840   4.61030   4.61710   4.63941   4.65383
 Alpha virt. eigenvalues --    4.67472   4.67731   4.70834   4.75276   4.77213
 Alpha virt. eigenvalues --    4.81384   4.82143   4.85045   4.87419   4.90656
 Alpha virt. eigenvalues --    4.92661   4.94114   4.98590   5.01342   5.07655
 Alpha virt. eigenvalues --    5.12206   5.13863   5.18854   5.20990   5.30119
          Condensed to atoms (all electrons):
 Mulliken charges:
               1
     1  C    0.002856
     2  C   -0.023197
     3  C   -0.022650
     4  C   -0.022502
     5  C    0.005230
     6  C   -0.015783
     7  C   -0.019313
     8  C   -0.013758
     9  C    0.046284
    10  C   -0.001471
    11  C   -0.005267
    12  C    0.054417
    13  C   -0.028820
    14  C   -0.029381
    15  C   -0.023163
    16  C   -0.024307
    17  C    0.048147
    18  C    0.055972
    19  C    0.049097
    20  C    0.047966
    21  C    0.006399
    22  C    0.009186
    23  C    0.085121
    24  C    0.069570
    25  C    0.086862
    26  C    0.004630
    27  C   -0.372029
    28  C   -0.035851
    29  C    0.088676
    30  C   -0.011606
    31  C    0.087307
    32  C   -0.007922
    33  C   -0.001111
    34  C   -0.022795
    35  C    0.034841
    36  C    0.044929
    37  C    0.048259
    38  C    0.045247
    39  C    0.055608
    40  C   -0.030969
    41  C   -0.031919
    42  C    0.054925
    43  C   -0.033313
    44  C    0.054847
    45  C    0.053045
    46  C   -0.032922
    47  C    0.047855
    48  C    0.049169
    49  C   -0.024453
    50  C   -0.024191
    51  C   -0.010085
    52  C   -0.010295
    53  C   -0.021246
    54  C   -0.020247
    55  C   -0.017916
    56  C   -0.016800
    57  C    0.006209
    58  C    0.003736
    59  C    0.087935
    60  C    0.089365
    61  C   -0.371309
    62  C   -0.356211
    63  C    0.125060
    64  C    0.098644
    65  C    0.128261
    66  C    0.068288
    67  C    0.100368
    68  C    0.065960
    69  C   -0.352553
    70  C   -0.036263
    71  C    0.071695
    72  C    0.013669
    73  C    0.025914
    74  C   -0.003259
    75  C   -0.014569
    76  C   -0.005693
    77  C   -0.023704
    78  C   -0.026033
    79  C   -0.022247
    80  C   -0.022761
    81  C   -0.002601
    82  C   -0.019524
    83  C    0.048691
    84  C    0.048564
    85  Cl   0.004613
    86  Cl   0.004072
    87  Cl  -0.007159
    88  Cl  -0.008329
 Sum of Mulliken charges =  -0.00000
 Mulliken charges with hydrogens summed into heavy atoms:
               1
     1  C    0.002856
     2  C   -0.023197
     3  C   -0.022650
     4  C   -0.022502
     5  C    0.005230
     6  C   -0.015783
     7  C   -0.019313
     8  C   -0.013758
     9  C    0.046284
    10  C   -0.001471
    11  C   -0.005267
    12  C    0.054417
    13  C   -0.028820
    14  C   -0.029381
    15  C   -0.023163
    16  C   -0.024307
    17  C    0.048147
    18  C    0.055972
    19  C    0.049097
    20  C    0.047966
    21  C    0.006399
    22  C    0.009186
    23  C    0.085121
    24  C    0.069570
    25  C    0.086862
    26  C    0.004630
    27  C   -0.372029
    28  C   -0.035851
    29  C    0.088676
    30  C   -0.011606
    31  C    0.087307
    32  C   -0.007922
    33  C   -0.001111
    34  C   -0.022795
    35  C    0.034841
    36  C    0.044929
    37  C    0.048259
    38  C    0.045247
    39  C    0.055608
    40  C   -0.030969
    41  C   -0.031919
    42  C    0.054925
    43  C   -0.033313
    44  C    0.054847
    45  C    0.053045
    46  C   -0.032922
    47  C    0.047855
    48  C    0.049169
    49  C   -0.024453
    50  C   -0.024191
    51  C   -0.010085
    52  C   -0.010295
    53  C   -0.021246
    54  C   -0.020247
    55  C   -0.017916
    56  C   -0.016800
    57  C    0.006209
    58  C    0.003736
    59  C    0.087935
    60  C    0.089365
    61  C   -0.371309
    62  C   -0.356211
    63  C    0.125060
    64  C    0.098644
    65  C    0.128261
    66  C    0.068288
    67  C    0.100368
    68  C    0.065960
    69  C   -0.352553
    70  C   -0.036263
    71  C    0.071695
    72  C    0.013669
    73  C    0.025914
    74  C   -0.003259
    75  C   -0.014569
    76  C   -0.005693
    77  C   -0.023704
    78  C   -0.026033
    79  C   -0.022247
    80  C   -0.022761
    81  C   -0.002601
    82  C   -0.019524
    83  C    0.048691
    84  C    0.048564
    85  Cl   0.004613
    86  Cl   0.004072
    87  Cl  -0.007159
    88  Cl  -0.008329
 Electronic spatial extent (au):  <R**2>=          41669.8870
 Charge=             -0.0000 electrons
 Dipole moment (field-independent basis, Debye):
    X=             -5.3085    Y=             -0.2242    Z=              1.0830  Tot=              5.4225
 Quadrupole moment (field-independent basis, Debye-Ang):
   XX=           -532.3997   YY=           -505.7601   ZZ=           -502.1814
   XY=              1.4646   XZ=              2.9017   YZ=             -4.0440
 Traceless Quadrupole moment (field-independent basis, Debye-Ang):
   XX=            -18.9526   YY=              7.6870   ZZ=             11.2657
   XY=              1.4646   XZ=              2.9017   YZ=             -4.0440
 Octapole moment (field-independent basis, Debye-Ang**2):
  XXX=              1.5481  YYY=            -12.3429  ZZZ=             -4.0631  XYY=            -11.6305
  XXY=             -6.8129  XXZ=             -1.1199  XZZ=             31.6324  YZZ=              4.1929
  YYZ=             16.7712  XYZ=             -2.9763
 Hexadecapole moment (field-independent basis, Debye-Ang**3):
 XXXX=         -23473.2463 YYYY=         -20449.7676 ZZZZ=         -17274.6296 XXXY=             -5.8843
 XXXZ=            -82.8249 YYYX=            -12.1285 YYYZ=             13.6953 ZZZX=             13.1149
 ZZZY=            -20.3332 XXYY=          -7437.0781 XXZZ=          -6759.7583 YYZZ=          -6308.0093
 XXYZ=            -19.2536 YYXZ=             58.2739 ZZXY=             18.2796
 N-N= 1.720038051385D+04 E-N=-4.617980678296D+04  KE= 5.006221374021D+03
 No NMR shielding tensors so no spin-rotation constants.
 Leave Link  601 at Wed Jun 29 13:51:16 2022, MaxMem=  1342177280 cpu:              76.9 elap:               3.9
 (Enter /home/mkliu/g16/l9999.exe)
 1\1\GINC-NODE02\FOpt\RB3LYP\6-31G(d,p)\C84Cl4\MKLIU\29-Jun-2022\0\\#P 
 opt b3lyp/6-31G(d, p) empiricaldispersion=GD3\\force\\0,1\C,8.28833577
 63,18.9008147402,10.5389629801\C,12.3287825817,20.149393108,8.94180133
 23\C,8.2871477916,26.9091846844,10.5546637469\C,12.3103238273,25.61522
 70704,8.9446521727\C,7.970595039,18.9445849759,9.1474253614\C,11.89776
 65113,19.5709982524,10.1874303335\C,7.9636164202,26.857633517,9.165192
 2747\C,11.8847565776,26.194613145,10.1920849202\C,8.9794177648,19.0897
 155368,8.1499832171\C,12.1660186152,20.2195499616,11.3669879154\C,12.1
 600665657,25.5494194138,11.3714868887\C,8.9586002291,26.6874931438,8.1
 63778813\C,10.3162668523,19.0074733622,8.6082117908\C,10.2967124246,26
 .7609499468,8.6164627824\C,10.6334845567,18.8959149922,9.9887632229\C,
 10.6240077429,26.8770032375,9.9983645426\C,9.6288494218,18.9398173895,
 10.9967226836\C,9.626083889,26.8511315372,11.0134219574\C,9.9063463053
 ,19.6339862714,12.2457676372\C,9.9062281537,26.1420710875,12.260936794
 3\C,8.8180017428,20.2523065872,12.9215738386\C,8.8208695126,25.5175022
 313,12.9441343172\C,7.4762246314,20.1873444421,12.4169919372\C,7.48746
 04678,25.5708241133,12.4317214202\C,7.2187741351,19.523901277,11.26573
 94629\C,7.2289778622,26.2230037397,11.2703670084\C,6.0985950388,19.934
 3788442,10.3371239114\C,6.3016708976,25.6602041187,10.3017748825\C,6.6
 790469126,19.535118367,8.9978586471\C,6.6879619748,26.1743691621,9.047
 4105032\C,6.3734780854,20.1913328716,7.8580665177\C,6.3779650714,25.49
 21696591,7.8838864128\C,7.3418627903,20.3038950708,6.8033443651\C,7.32
 87505201,25.4545227533,6.7755640866\C,8.6798158094,19.8462706656,6.946
 0693817\C,8.6546715695,25.9140742765,6.9426619332\C,9.744236546,20.579
 5008744,6.2600283999\C,9.7283152776,25.1802007038,6.263622175\C,11.098
 2285282,20.5647325532,6.8263121302\C,12.7986484045,22.1562288792,7.715
 4249845\C,12.794023261,23.6138217534,7.716758706\C,11.0795315665,25.19
 6664717,6.8323301099\C,11.3686666775,19.763735409,7.9512988539\C,12.96
 60281171,21.4233179161,8.9093758026\C,12.955725783,24.3433835615,8.910
 4246\C,11.3471124088,25.9962093104,7.9604564473\C,13.2076572364,22.149
 6147538,10.1617071439\C,13.2043816155,23.6182576081,10.1617414222\C,12
 .8801734175,21.48210495,11.3644084646\C,12.8726314321,24.2831591003,11
 .3641816059\C,12.4250252906,22.1947897558,12.5240296909\C,12.423604055
 6,23.5696790232,12.5239076211\C,11.1832323028,20.2337221606,12.4353184
 886\C,11.1791863032,25.5341895045,12.4396575215\C,11.3387083324,21.456
 5678647,13.145939003\C,11.3342428928,24.3050039851,13.145650568\C,8.97
 53552029,21.4805825511,13.6282930176\C,8.9750758678,24.2787326266,13.6
 388130938\C,7.7371948363,22.2013859218,13.5703293342\C,7.7371499713,23
 .5553730222,13.5796071162\C,6.6795300556,21.4050011731,12.8319843994\C
 ,6.6851852679,24.3480698293,12.8371353214\C,6.1589266915,22.1782968145
 ,11.6017108618\C,6.1493536026,23.5719226182,11.615622956\C,5.859660842
 2,21.4579131834,10.3872789021\C,5.8500558891,24.3082261331,10.41339180
 53\C,5.5415922168,22.1440276203,9.2143378428\C,5.5328977917,23.5861568
 869,9.1976461869\C,5.4344808111,21.381905669,7.8720755057\C,5.67395656
 43,24.2687326963,7.9466392015\C,5.9660143599,22.182778248,6.6998772481
 \C,5.979999656,23.5455291446,6.7193847676\C,7.0222685337,21.4706235468
 ,6.0408618813\C,7.0159376922,24.2819652183,6.0184670215\C,8.0318139694
 ,22.1516672611,5.3661028969\C,8.0271872666,23.6016460002,5.3563243851\
 C,9.38287325,21.6933154601,5.4627722267\C,9.37658964,24.0659889967,5.4
 587861993\C,11.9388693168,21.7078424546,6.6720473345\C,11.9289462046,2
 4.0599236424,6.6743605333\C,10.2208139343,22.8813410769,5.4051689009\C
 ,11.4548649306,22.8840363329,5.9941843122\C,10.2291251384,22.150047921
 7,13.6996244449\C,10.2294630324,23.6084673831,13.7027859854\Cl,4.53265
 78112,19.0364689798,10.721520017\Cl,5.2607706578,20.9657683489,13.9300
 247455\Cl,5.2656721739,24.8248907897,13.9271194133\Cl,3.6669525311,20.
 9077110299,7.5817071447\\Version=ES64L-G16RevA.03\State=1-A\HF=-5041.8
 242788\RMSD=5.165e-09\RMSF=8.276e-05\Dipole=2.0072935,0.4494378,-0.565
 6789\Quadrupole=-8.9209242,4.8845919,4.0363323,-6.0260364,8.3088758,-0
 .5873689\PG=C01 [X(C84Cl4)]\\@


 WE HAVE LEFT UNDONE THOSE THINGS WHICH WE OUGHT TO HAVE DONE,
 AND WE HAVE DONE THOSE THINGS WHICH WE OUGHT NOT TO HAVE DONE.
                   BOOK OF COMMON PRAYER                      
 Job cpu time:       1 days  2 hours 51 minutes 24.9 seconds.
 Elapsed time:       0 days  1 hours  7 minutes 17.3 seconds.
 File lengths (MBytes):  RWF=   1098 Int=      0 D2E=      0 Chk=    138 Scr=      1
 Normal termination of Gaussian 16 at Wed Jun 29 13:51:18 2022.
