 Entering Gaussian System, Link 0=g16
 Input=6_addons_C84_14_Cl22_rank_2.gjf
 Output=6_addons_C84_14_Cl22_rank_2.log
 Initial command:
 /home/mkliu/g16/l1.exe "/data/scratch/Gau-180168.inp" -scrdir="/data/scratch/"
 Entering Link 1 = /home/mkliu/g16/l1.exe PID=    180169.
  
 Copyright (c) 1988,1990,1992,1993,1995,1998,2003,2009,2016,
            Gaussian, Inc.  All Rights Reserved.
  
 This is part of the Gaussian(R) 16 program.  It is based on
 the Gaussian(R) 09 system (copyright 2009, Gaussian, Inc.),
 the Gaussian(R) 03 system (copyright 2003, Gaussian, Inc.),
 the Gaussian(R) 98 system (copyright 1998, Gaussian, Inc.),
 the Gaussian(R) 94 system (copyright 1995, Gaussian, Inc.),
 the Gaussian 92(TM) system (copyright 1992, Gaussian, Inc.),
 the Gaussian 90(TM) system (copyright 1990, Gaussian, Inc.),
 the Gaussian 88(TM) system (copyright 1988, Gaussian, Inc.),
 the Gaussian 86(TM) system (copyright 1986, Carnegie Mellon
 University), and the Gaussian 82(TM) system (copyright 1983,
 Carnegie Mellon University). Gaussian is a federally registered
 trademark of Gaussian, Inc.
  
 This software contains proprietary and confidential information,
 including trade secrets, belonging to Gaussian, Inc.
  
 This software is provided under written license and may be
 used, copied, transmitted, or stored only in accord with that
 written license.
  
 The following legend is applicable only to US Government
 contracts under FAR:
  
                    RESTRICTED RIGHTS LEGEND
  
 Use, reproduction and disclosure by the US Government is
 subject to restrictions as set forth in subparagraphs (a)
 and (c) of the Commercial Computer Software - Restricted
 Rights clause in FAR 52.227-19.
  
 Gaussian, Inc.
 340 Quinnipiac St., Bldg. 40, Wallingford CT 06492
  
  
 ---------------------------------------------------------------
 Warning -- This program may not be used in any manner that
 competes with the business of Gaussian, Inc. or will provide
 assistance to any competitor of Gaussian, Inc.  The licensee
 of this program is prohibited from giving any competitor of
 Gaussian, Inc. access to this program.  By using this program,
 the user acknowledges that Gaussian, Inc. is engaged in the
 business of creating and licensing software in the field of
 computational chemistry and represents and warrants to the
 licensee that it is not a competitor of Gaussian, Inc. and that
 it will not use this program in any manner prohibited above.
 ---------------------------------------------------------------
  

 Cite this work as:
 Gaussian 16, Revision A.03,
 M. J. Frisch, G. W. Trucks, H. B. Schlegel, G. E. Scuseria, 
 M. A. Robb, J. R. Cheeseman, G. Scalmani, V. Barone, 
 G. A. Petersson, H. Nakatsuji, X. Li, M. Caricato, A. V. Marenich, 
 J. Bloino, B. G. Janesko, R. Gomperts, B. Mennucci, H. P. Hratchian, 
 J. V. Ortiz, A. F. Izmaylov, J. L. Sonnenberg, D. Williams-Young, 
 F. Ding, F. Lipparini, F. Egidi, J. Goings, B. Peng, A. Petrone, 
 T. Henderson, D. Ranasinghe, V. G. Zakrzewski, J. Gao, N. Rega, 
 G. Zheng, W. Liang, M. Hada, M. Ehara, K. Toyota, R. Fukuda, 
 J. Hasegawa, M. Ishida, T. Nakajima, Y. Honda, O. Kitao, H. Nakai, 
 T. Vreven, K. Throssell, J. A. Montgomery, Jr., J. E. Peralta, 
 F. Ogliaro, M. J. Bearpark, J. J. Heyd, E. N. Brothers, K. N. Kudin, 
 V. N. Staroverov, T. A. Keith, R. Kobayashi, J. Normand, 
 K. Raghavachari, A. P. Rendell, J. C. Burant, S. S. Iyengar, 
 J. Tomasi, M. Cossi, J. M. Millam, M. Klene, C. Adamo, R. Cammi, 
 J. W. Ochterski, R. L. Martin, K. Morokuma, O. Farkas, 
 J. B. Foresman, and D. J. Fox, Gaussian, Inc., Wallingford CT, 2016.
 
 ******************************************
 Gaussian 16:  ES64L-G16RevA.03 25-Dec-2016
                27-Jun-2022 
 ******************************************
 %mem=10GB
 %chk=6_addons_C84_14_Cl22_rank_2.chk
 %nprocshared=24
 Will use up to   24 processors via shared memory.
 ------------------------------------------------
 #P opt b3lyp/6-31G(d, p) empiricaldispersion=GD3
 ------------------------------------------------
 1/18=20,19=15,26=3,38=1/1,3;
 2/9=110,12=2,17=6,18=5,40=1/2;
 3/5=1,6=6,7=101,11=2,25=1,30=1,71=1,74=-5,124=31/1,2,3;
 4//1;
 5/5=2,38=5/2;
 6/7=2,8=2,9=2,10=2,28=1/1;
 7//1,2,3,16;
 1/18=20,19=15,26=3/3(2);
 2/9=110/2;
 99//99;
 2/9=110/2;
 3/5=1,6=6,7=101,11=2,25=1,30=1,71=1,74=-5,124=31/1,2,3;
 4/5=5,16=3,69=1/1;
 5/5=2,38=5/2;
 7//1,2,3,16;
 1/18=20,19=15,26=3/3(-5);
 2/9=110/2;
 6/7=2,8=2,9=2,10=2,19=2,28=1/1;
 99/9=1/99;
 Leave Link    1 at Mon Jun 27 01:42:01 2022, MaxMem=  1342177280 cpu:               0.6 elap:               0.1
 (Enter /home/mkliu/g16/l101.exe)
 -----
 force
 -----
 Symbolic Z-matrix:
 Charge =  0 Multiplicity = 1
 C                     8.2013    18.64031   10.58862 
 C                     12.43683   20.01246   8.93659 
 C                     8.26308   26.87509   10.53512 
 C                     12.46229   25.74378   8.9187 
 C                     7.94458   18.9131   9.12532 
 C                     11.84663   19.58032   10.24039 
 C                     7.94856   26.83378   9.15417 
 C                     11.86094   26.17681   10.22143 
 C                     8.9231    19.10763   8.15221 
 C                     12.12048   20.22183   11.40532 
 C                     12.12403   25.54158   11.39006 
 C                     8.93699   26.63477   8.16316 
 C                     10.27147   19.07715   8.61838 
 C                     10.26368   26.66462   8.63041 
 C                     10.57309   18.98253   10.03714 
 C                     10.58792   26.77995   10.00702 
 C                     9.60159   18.97103   11.01753 
 C                     9.58892   26.79024   11.00696 
 C                     9.86114   19.65509   12.24405 
 C                     9.86144   26.10534   12.24533 
 C                     8.79288   20.2421   12.96634 
 C                     8.79192   25.50729   12.9503 
 C                     7.46327   20.23196   12.38566 
 C                     7.46099   25.52319   12.3954 
 C                     7.19587   19.55478   11.23789 
 C                     7.20102   26.19796   11.23475 
 C                     6.32712   20.13885   10.28725 
 C                     6.28304   25.63978   10.29165 
 C                     6.71899   19.60201   9.01917 
 C                     6.67781   26.17775   9.02741 
 C                     6.39061   20.27194   7.86689 
 C                     6.36939   25.51124   7.87944 
 C                     7.30677   20.30877   6.77793 
 C                     7.30591   25.46209   6.7846 
 C                     8.63091   19.85487   6.94858 
 C                     8.63819   25.88841   6.96567 
 C                     9.68707   20.58877   6.28935 
 C                     9.69264   25.14422   6.3132 
 C                     11.00939   20.5813   6.8545 
 C                     12.63116   22.18064   7.82373 
 C                     12.67373   23.57826   7.80901 
 C                     11.02294   25.16872   6.87637 
 C                     11.27764   19.77443   7.98789 
 C                     12.80679   21.47007   9.00024 
 C                     12.83615   24.2854   8.98032 
 C                     11.29515   25.94171   7.96686 
 C                     13.03652   22.17576   10.18994 
 C                     13.04115   23.58122   10.18308 
 C                     13.04976   21.40345   11.49853 
 C                     13.04794   24.35749   11.48828 
 C                     12.38364   22.20502   12.57982 
 C                     12.38181   23.56035   12.57337 
 C                     11.12109   20.27845   12.41137 
 C                     11.1206   25.48572   12.40491 
 C                     11.27626   21.49637   13.1326 
 C                     11.27467   24.27054   13.12323 
 C                     8.94278   21.46036   13.64914 
 C                     8.94187   24.29051   13.65254 
 C                     7.70836   22.19402   13.50278 
 C                     7.70693   23.55975   13.5078 
 C                     6.83568   21.49527   12.61321 
 C                     6.8257    24.26443   12.6267 
 C                     6.08269   22.16113   11.62156 
 C                     6.07429   23.60707   11.629 
 C                     5.80783   21.44795   10.40257 
 C                     5.78217   24.3276   10.40988 
 C                     5.4781    22.16381   9.18641 
 C                     5.46622   23.61027   9.19019 
 C                     5.66245   21.50652   7.95212 
 C                     5.65061   24.2736   7.95695 
 C                     5.95316   22.20424   6.74057 
 C                     5.95252   23.57967   6.74259 
 C                     6.98264   21.4839   6.0278 
 C                     6.97998   24.30304   6.03489 
 C                     7.98605   22.17117   5.38483 
 C                     7.99171   23.61305   5.38095 
 C                     9.33837   21.7105   5.49981 
 C                     9.33425   24.06084   5.48738 
 C                     11.82457   21.7182   6.70893 
 C                     12.04075   24.10768   6.54368 
 C                     10.16622   22.8698   5.43154 
 C                     11.40947   22.8572   6.00742 
 C                     10.17709   22.16056   13.70878 
 C                     10.1737   23.59987   13.70543 
 Cl                    14.74734   20.94456   11.88866 
 Cl                    14.7466   24.81789   11.88397 
 Cl                    13.88977   19.04507   8.45758 
 Cl                    13.89022   26.73378   8.43574 
 Cl                    7.85549   16.8904   10.97622 
 Cl                    13.28369   24.77847   5.41144 
 
 ITRead=  0  0  0  0  0  0  0  0  0  0  0  0  0  0  0  0  0  0  0  0
 ITRead=  0  0  0  0  0  0  0  0  0  0  0  0  0  0  0  0  0  0  0  0
 ITRead=  0  0  0  0  0  0  0  0  0  0  0  0  0  0  0  0  0  0  0  0
 ITRead=  0  0  0  0  0  0  0  0  0  0  0  0  0  0  0  0  0  0  0  0
 ITRead=  0  0  0  0  0  0  0  0  0  0
 MicOpt= -1 -1 -1 -1 -1 -1 -1 -1 -1 -1 -1 -1 -1 -1 -1 -1 -1 -1 -1 -1
 MicOpt= -1 -1 -1 -1 -1 -1 -1 -1 -1 -1 -1 -1 -1 -1 -1 -1 -1 -1 -1 -1
 MicOpt= -1 -1 -1 -1 -1 -1 -1 -1 -1 -1 -1 -1 -1 -1 -1 -1 -1 -1 -1 -1
 MicOpt= -1 -1 -1 -1 -1 -1 -1 -1 -1 -1 -1 -1 -1 -1 -1 -1 -1 -1 -1 -1
 MicOpt= -1 -1 -1 -1 -1 -1 -1 -1 -1 -1
 NAtoms=     90 NQM=       90 NQMF=       0 NMMI=      0 NMMIF=      0
                NMic=       0 NMicF=      0.
                    Isotopes and Nuclear Properties:
 (Nuclear quadrupole moments (NQMom) in fm**2, nuclear magnetic moments (NMagM)
  in nuclear magnetons)

  Atom         1           2           3           4           5           6           7           8           9          10
 IAtWgt=          12          12          12          12          12          12          12          12          12          12
 AtmWgt=  12.0000000  12.0000000  12.0000000  12.0000000  12.0000000  12.0000000  12.0000000  12.0000000  12.0000000  12.0000000
 NucSpn=           0           0           0           0           0           0           0           0           0           0
 AtZEff=  -0.0000000  -0.0000000  -0.0000000  -0.0000000  -0.0000000  -0.0000000  -0.0000000  -0.0000000  -0.0000000  -0.0000000
 NQMom=    0.0000000   0.0000000   0.0000000   0.0000000   0.0000000   0.0000000   0.0000000   0.0000000   0.0000000   0.0000000
 NMagM=    0.0000000   0.0000000   0.0000000   0.0000000   0.0000000   0.0000000   0.0000000   0.0000000   0.0000000   0.0000000
 AtZNuc=   6.0000000   6.0000000   6.0000000   6.0000000   6.0000000   6.0000000   6.0000000   6.0000000   6.0000000   6.0000000

  Atom        11          12          13          14          15          16          17          18          19          20
 IAtWgt=          12          12          12          12          12          12          12          12          12          12
 AtmWgt=  12.0000000  12.0000000  12.0000000  12.0000000  12.0000000  12.0000000  12.0000000  12.0000000  12.0000000  12.0000000
 NucSpn=           0           0           0           0           0           0           0           0           0           0
 AtZEff=  -0.0000000  -0.0000000  -0.0000000  -0.0000000  -0.0000000  -0.0000000  -0.0000000  -0.0000000  -0.0000000  -0.0000000
 NQMom=    0.0000000   0.0000000   0.0000000   0.0000000   0.0000000   0.0000000   0.0000000   0.0000000   0.0000000   0.0000000
 NMagM=    0.0000000   0.0000000   0.0000000   0.0000000   0.0000000   0.0000000   0.0000000   0.0000000   0.0000000   0.0000000
 AtZNuc=   6.0000000   6.0000000   6.0000000   6.0000000   6.0000000   6.0000000   6.0000000   6.0000000   6.0000000   6.0000000

  Atom        21          22          23          24          25          26          27          28          29          30
 IAtWgt=          12          12          12          12          12          12          12          12          12          12
 AtmWgt=  12.0000000  12.0000000  12.0000000  12.0000000  12.0000000  12.0000000  12.0000000  12.0000000  12.0000000  12.0000000
 NucSpn=           0           0           0           0           0           0           0           0           0           0
 AtZEff=  -0.0000000  -0.0000000  -0.0000000  -0.0000000  -0.0000000  -0.0000000  -0.0000000  -0.0000000  -0.0000000  -0.0000000
 NQMom=    0.0000000   0.0000000   0.0000000   0.0000000   0.0000000   0.0000000   0.0000000   0.0000000   0.0000000   0.0000000
 NMagM=    0.0000000   0.0000000   0.0000000   0.0000000   0.0000000   0.0000000   0.0000000   0.0000000   0.0000000   0.0000000
 AtZNuc=   6.0000000   6.0000000   6.0000000   6.0000000   6.0000000   6.0000000   6.0000000   6.0000000   6.0000000   6.0000000

  Atom        31          32          33          34          35          36          37          38          39          40
 IAtWgt=          12          12          12          12          12          12          12          12          12          12
 AtmWgt=  12.0000000  12.0000000  12.0000000  12.0000000  12.0000000  12.0000000  12.0000000  12.0000000  12.0000000  12.0000000
 NucSpn=           0           0           0           0           0           0           0           0           0           0
 AtZEff=  -0.0000000  -0.0000000  -0.0000000  -0.0000000  -0.0000000  -0.0000000  -0.0000000  -0.0000000  -0.0000000  -0.0000000
 NQMom=    0.0000000   0.0000000   0.0000000   0.0000000   0.0000000   0.0000000   0.0000000   0.0000000   0.0000000   0.0000000
 NMagM=    0.0000000   0.0000000   0.0000000   0.0000000   0.0000000   0.0000000   0.0000000   0.0000000   0.0000000   0.0000000
 AtZNuc=   6.0000000   6.0000000   6.0000000   6.0000000   6.0000000   6.0000000   6.0000000   6.0000000   6.0000000   6.0000000

  Atom        41          42          43          44          45          46          47          48          49          50
 IAtWgt=          12          12          12          12          12          12          12          12          12          12
 AtmWgt=  12.0000000  12.0000000  12.0000000  12.0000000  12.0000000  12.0000000  12.0000000  12.0000000  12.0000000  12.0000000
 NucSpn=           0           0           0           0           0           0           0           0           0           0
 AtZEff=  -0.0000000  -0.0000000  -0.0000000  -0.0000000  -0.0000000  -0.0000000  -0.0000000  -0.0000000  -0.0000000  -0.0000000
 NQMom=    0.0000000   0.0000000   0.0000000   0.0000000   0.0000000   0.0000000   0.0000000   0.0000000   0.0000000   0.0000000
 NMagM=    0.0000000   0.0000000   0.0000000   0.0000000   0.0000000   0.0000000   0.0000000   0.0000000   0.0000000   0.0000000
 AtZNuc=   6.0000000   6.0000000   6.0000000   6.0000000   6.0000000   6.0000000   6.0000000   6.0000000   6.0000000   6.0000000

  Atom        51          52          53          54          55          56          57          58          59          60
 IAtWgt=          12          12          12          12          12          12          12          12          12          12
 AtmWgt=  12.0000000  12.0000000  12.0000000  12.0000000  12.0000000  12.0000000  12.0000000  12.0000000  12.0000000  12.0000000
 NucSpn=           0           0           0           0           0           0           0           0           0           0
 AtZEff=  -0.0000000  -0.0000000  -0.0000000  -0.0000000  -0.0000000  -0.0000000  -0.0000000  -0.0000000  -0.0000000  -0.0000000
 NQMom=    0.0000000   0.0000000   0.0000000   0.0000000   0.0000000   0.0000000   0.0000000   0.0000000   0.0000000   0.0000000
 NMagM=    0.0000000   0.0000000   0.0000000   0.0000000   0.0000000   0.0000000   0.0000000   0.0000000   0.0000000   0.0000000
 AtZNuc=   6.0000000   6.0000000   6.0000000   6.0000000   6.0000000   6.0000000   6.0000000   6.0000000   6.0000000   6.0000000

  Atom        61          62          63          64          65          66          67          68          69          70
 IAtWgt=          12          12          12          12          12          12          12          12          12          12
 AtmWgt=  12.0000000  12.0000000  12.0000000  12.0000000  12.0000000  12.0000000  12.0000000  12.0000000  12.0000000  12.0000000
 NucSpn=           0           0           0           0           0           0           0           0           0           0
 AtZEff=  -0.0000000  -0.0000000  -0.0000000  -0.0000000  -0.0000000  -0.0000000  -0.0000000  -0.0000000  -0.0000000  -0.0000000
 NQMom=    0.0000000   0.0000000   0.0000000   0.0000000   0.0000000   0.0000000   0.0000000   0.0000000   0.0000000   0.0000000
 NMagM=    0.0000000   0.0000000   0.0000000   0.0000000   0.0000000   0.0000000   0.0000000   0.0000000   0.0000000   0.0000000
 AtZNuc=   6.0000000   6.0000000   6.0000000   6.0000000   6.0000000   6.0000000   6.0000000   6.0000000   6.0000000   6.0000000

  Atom        71          72          73          74          75          76          77          78          79          80
 IAtWgt=          12          12          12          12          12          12          12          12          12          12
 AtmWgt=  12.0000000  12.0000000  12.0000000  12.0000000  12.0000000  12.0000000  12.0000000  12.0000000  12.0000000  12.0000000
 NucSpn=           0           0           0           0           0           0           0           0           0           0
 AtZEff=  -0.0000000  -0.0000000  -0.0000000  -0.0000000  -0.0000000  -0.0000000  -0.0000000  -0.0000000  -0.0000000  -0.0000000
 NQMom=    0.0000000   0.0000000   0.0000000   0.0000000   0.0000000   0.0000000   0.0000000   0.0000000   0.0000000   0.0000000
 NMagM=    0.0000000   0.0000000   0.0000000   0.0000000   0.0000000   0.0000000   0.0000000   0.0000000   0.0000000   0.0000000
 AtZNuc=   6.0000000   6.0000000   6.0000000   6.0000000   6.0000000   6.0000000   6.0000000   6.0000000   6.0000000   6.0000000

  Atom        81          82          83          84          85          86          87          88          89          90
 IAtWgt=          12          12          12          12          35          35          35          35          35          35
 AtmWgt=  12.0000000  12.0000000  12.0000000  12.0000000  34.9688527  34.9688527  34.9688527  34.9688527  34.9688527  34.9688527
 NucSpn=           0           0           0           0           3           3           3           3           3           3
 AtZEff=  -0.0000000  -0.0000000  -0.0000000  -0.0000000  -0.0000000  -0.0000000  -0.0000000  -0.0000000  -0.0000000  -0.0000000
 NQMom=    0.0000000   0.0000000   0.0000000   0.0000000  -8.1650000  -8.1650000  -8.1650000  -8.1650000  -8.1650000  -8.1650000
 NMagM=    0.0000000   0.0000000   0.0000000   0.0000000   0.8218740   0.8218740   0.8218740   0.8218740   0.8218740   0.8218740
 AtZNuc=   6.0000000   6.0000000   6.0000000   6.0000000  17.0000000  17.0000000  17.0000000  17.0000000  17.0000000  17.0000000
 Leave Link  101 at Mon Jun 27 01:42:01 2022, MaxMem=  1342177280 cpu:               6.5 elap:               0.3
 (Enter /home/mkliu/g16/l103.exe)

 GradGradGradGradGradGradGradGradGradGradGradGradGradGradGradGradGradGrad
 Berny optimization.
 Initialization pass.
                           ----------------------------
                           !    Initial Parameters    !
                           ! (Angstroms and Degrees)  !
 --------------------------                            --------------------------
 ! Name  Definition              Value          Derivative Info.                !
 --------------------------------------------------------------------------------
 ! R1    R(1,5)                  1.5105         estimate D2E/DX2                !
 ! R2    R(1,17)                 1.5014         estimate D2E/DX2                !
 ! R3    R(1,25)                 1.5062         estimate D2E/DX2                !
 ! R4    R(1,89)                 1.8254         estimate D2E/DX2                !
 ! R5    R(2,6)                  1.495          estimate D2E/DX2                !
 ! R6    R(2,43)                 1.5167         estimate D2E/DX2                !
 ! R7    R(2,44)                 1.5052         estimate D2E/DX2                !
 ! R8    R(2,87)                 1.8101         estimate D2E/DX2                !
 ! R9    R(3,7)                  1.4169         estimate D2E/DX2                !
 ! R10   R(3,18)                 1.4099         estimate D2E/DX2                !
 ! R11   R(3,26)                 1.4408         estimate D2E/DX2                !
 ! R12   R(4,8)                  1.4988         estimate D2E/DX2                !
 ! R13   R(4,45)                 1.5068         estimate D2E/DX2                !
 ! R14   R(4,46)                 1.519          estimate D2E/DX2                !
 ! R15   R(4,88)                 1.8034         estimate D2E/DX2                !
 ! R16   R(5,9)                  1.3937         estimate D2E/DX2                !
 ! R17   R(5,29)                 1.4099         estimate D2E/DX2                !
 ! R18   R(6,10)                 1.3578         estimate D2E/DX2                !
 ! R19   R(6,15)                 1.4215         estimate D2E/DX2                !
 ! R20   R(7,12)                 1.4138         estimate D2E/DX2                !
 ! R21   R(7,30)                 1.4357         estimate D2E/DX2                !
 ! R22   R(8,11)                 1.3559         estimate D2E/DX2                !
 ! R23   R(8,16)                 1.4249         estimate D2E/DX2                !
 ! R24   R(9,13)                 1.427          estimate D2E/DX2                !
 ! R25   R(9,35)                 1.4465         estimate D2E/DX2                !
 ! R26   R(10,49)                1.5062         estimate D2E/DX2                !
 ! R27   R(10,53)                1.4192         estimate D2E/DX2                !
 ! R28   R(11,50)                1.5051         estimate D2E/DX2                !
 ! R29   R(11,54)                1.4283         estimate D2E/DX2                !
 ! R30   R(12,14)                1.4069         estimate D2E/DX2                !
 ! R31   R(12,36)                1.4423         estimate D2E/DX2                !
 ! R32   R(13,15)                1.4535         estimate D2E/DX2                !
 ! R33   R(13,43)                1.377          estimate D2E/DX2                !
 ! R34   R(14,16)                1.419          estimate D2E/DX2                !
 ! R35   R(14,46)                1.4237         estimate D2E/DX2                !
 ! R36   R(15,17)                1.3803         estimate D2E/DX2                !
 ! R37   R(16,18)                1.4135         estimate D2E/DX2                !
 ! R38   R(17,19)                1.4282         estimate D2E/DX2                !
 ! R39   R(18,20)                1.4412         estimate D2E/DX2                !
 ! R40   R(19,21)                1.4169         estimate D2E/DX2                !
 ! R41   R(19,53)                1.4156         estimate D2E/DX2                !
 ! R42   R(20,22)                1.4137         estimate D2E/DX2                !
 ! R43   R(20,54)                1.4124         estimate D2E/DX2                !
 ! R44   R(21,23)                1.4509         estimate D2E/DX2                !
 ! R45   R(21,57)                1.4046         estimate D2E/DX2                !
 ! R46   R(22,24)                1.4421         estimate D2E/DX2                !
 ! R47   R(22,58)                1.4129         estimate D2E/DX2                !
 ! R48   R(23,25)                1.3592         estimate D2E/DX2                !
 ! R49   R(23,61)                1.4288         estimate D2E/DX2                !
 ! R50   R(24,26)                1.3675         estimate D2E/DX2                !
 ! R51   R(24,62)                1.4288         estimate D2E/DX2                !
 ! R52   R(25,27)                1.4141         estimate D2E/DX2                !
 ! R53   R(26,28)                1.4296         estimate D2E/DX2                !
 ! R54   R(27,29)                1.4317         estimate D2E/DX2                !
 ! R55   R(27,65)                1.4131         estimate D2E/DX2                !
 ! R56   R(28,30)                1.4295         estimate D2E/DX2                !
 ! R57   R(28,66)                1.4095         estimate D2E/DX2                !
 ! R58   R(29,31)                1.3727         estimate D2E/DX2                !
 ! R59   R(30,32)                1.3628         estimate D2E/DX2                !
 ! R60   R(31,33)                1.4236         estimate D2E/DX2                !
 ! R61   R(31,69)                1.4358         estimate D2E/DX2                !
 ! R62   R(32,34)                1.4416         estimate D2E/DX2                !
 ! R63   R(32,70)                1.4333         estimate D2E/DX2                !
 ! R64   R(33,35)                1.4101         estimate D2E/DX2                !
 ! R65   R(33,73)                1.4313         estimate D2E/DX2                !
 ! R66   R(34,36)                1.4105         estimate D2E/DX2                !
 ! R67   R(34,74)                1.4183         estimate D2E/DX2                !
 ! R68   R(35,37)                1.4452         estimate D2E/DX2                !
 ! R69   R(36,38)                1.4462         estimate D2E/DX2                !
 ! R70   R(37,39)                1.438          estimate D2E/DX2                !
 ! R71   R(37,77)                1.4154         estimate D2E/DX2                !
 ! R72   R(38,42)                1.4448         estimate D2E/DX2                !
 ! R73   R(38,78)                1.4086         estimate D2E/DX2                !
 ! R74   R(39,43)                1.4169         estimate D2E/DX2                !
 ! R75   R(39,79)                1.4065         estimate D2E/DX2                !
 ! R76   R(40,41)                1.3983         estimate D2E/DX2                !
 ! R77   R(40,44)                1.3856         estimate D2E/DX2                !
 ! R78   R(40,79)                1.4516         estimate D2E/DX2                !
 ! R79   R(41,45)                1.3778         estimate D2E/DX2                !
 ! R80   R(41,80)                1.5106         estimate D2E/DX2                !
 ! R81   R(42,46)                1.3641         estimate D2E/DX2                !
 ! R82   R(42,80)                1.5075         estimate D2E/DX2                !
 ! R83   R(44,47)                1.4022         estimate D2E/DX2                !
 ! R84   R(45,48)                1.4087         estimate D2E/DX2                !
 ! R85   R(47,48)                1.4055         estimate D2E/DX2                !
 ! R86   R(47,49)                1.5196         estimate D2E/DX2                !
 ! R87   R(48,50)                1.5186         estimate D2E/DX2                !
 ! R88   R(49,51)                1.5018         estimate D2E/DX2                !
 ! R89   R(49,85)                1.8013         estimate D2E/DX2                !
 ! R90   R(50,52)                1.5022         estimate D2E/DX2                !
 ! R91   R(50,86)                1.8039         estimate D2E/DX2                !
 ! R92   R(51,52)                1.3554         estimate D2E/DX2                !
 ! R93   R(51,55)                1.4262         estimate D2E/DX2                !
 ! R94   R(52,56)                1.4256         estimate D2E/DX2                !
 ! R95   R(53,55)                1.4239         estimate D2E/DX2                !
 ! R96   R(54,56)                1.42           estimate D2E/DX2                !
 ! R97   R(55,83)                1.4076         estimate D2E/DX2                !
 ! R98   R(56,84)                1.4145         estimate D2E/DX2                !
 ! R99   R(57,59)                1.4434         estimate D2E/DX2                !
 ! R100  R(57,83)                1.4203         estimate D2E/DX2                !
 ! R101  R(58,60)                1.4422         estimate D2E/DX2                !
 ! R102  R(58,84)                1.4132         estimate D2E/DX2                !
 ! R103  R(59,60)                1.3657         estimate D2E/DX2                !
 ! R104  R(59,61)                1.4287         estimate D2E/DX2                !
 ! R105  R(60,62)                1.4316         estimate D2E/DX2                !
 ! R106  R(61,63)                1.412          estimate D2E/DX2                !
 ! R107  R(62,64)                1.4114         estimate D2E/DX2                !
 ! R108  R(63,64)                1.446          estimate D2E/DX2                !
 ! R109  R(63,65)                1.4388         estimate D2E/DX2                !
 ! R110  R(64,66)                1.4459         estimate D2E/DX2                !
 ! R111  R(65,67)                1.4492         estimate D2E/DX2                !
 ! R112  R(66,68)                1.4498         estimate D2E/DX2                !
 ! R113  R(67,68)                1.4465         estimate D2E/DX2                !
 ! R114  R(67,69)                1.4105         estimate D2E/DX2                !
 ! R115  R(68,70)                1.4124         estimate D2E/DX2                !
 ! R116  R(69,71)                1.428          estimate D2E/DX2                !
 ! R117  R(70,72)                1.4309         estimate D2E/DX2                !
 ! R118  R(71,72)                1.3754         estimate D2E/DX2                !
 ! R119  R(71,73)                1.4446         estimate D2E/DX2                !
 ! R120  R(72,74)                1.4421         estimate D2E/DX2                !
 ! R121  R(73,75)                1.3757         estimate D2E/DX2                !
 ! R122  R(74,76)                1.3883         estimate D2E/DX2                !
 ! R123  R(75,76)                1.4419         estimate D2E/DX2                !
 ! R124  R(75,77)                1.4332         estimate D2E/DX2                !
 ! R125  R(76,78)                1.4192         estimate D2E/DX2                !
 ! R126  R(77,81)                1.4262         estimate D2E/DX2                !
 ! R127  R(78,81)                1.4539         estimate D2E/DX2                !
 ! R128  R(79,82)                1.4006         estimate D2E/DX2                !
 ! R129  R(80,82)                1.4999         estimate D2E/DX2                !
 ! R130  R(80,90)                1.8102         estimate D2E/DX2                !
 ! R131  R(81,82)                1.3702         estimate D2E/DX2                !
 ! R132  R(83,84)                1.4393         estimate D2E/DX2                !
 ! A1    A(5,1,17)             113.2965         estimate D2E/DX2                !
 ! A2    A(5,1,25)             101.2155         estimate D2E/DX2                !
 ! A3    A(5,1,89)             110.282          estimate D2E/DX2                !
 ! A4    A(17,1,25)            111.4501         estimate D2E/DX2                !
 ! A5    A(17,1,89)            109.0988         estimate D2E/DX2                !
 ! A6    A(25,1,89)            111.3482         estimate D2E/DX2                !
 ! A7    A(6,2,43)             101.4443         estimate D2E/DX2                !
 ! A8    A(6,2,44)             109.8822         estimate D2E/DX2                !
 ! A9    A(6,2,87)             113.1538         estimate D2E/DX2                !
 ! A10   A(43,2,44)            111.4864         estimate D2E/DX2                !
 ! A11   A(43,2,87)            111.3507         estimate D2E/DX2                !
 ! A12   A(44,2,87)            109.3575         estimate D2E/DX2                !
 ! A13   A(7,3,18)             122.2197         estimate D2E/DX2                !
 ! A14   A(7,3,26)             107.2135         estimate D2E/DX2                !
 ! A15   A(18,3,26)            120.1592         estimate D2E/DX2                !
 ! A16   A(8,4,45)             110.0988         estimate D2E/DX2                !
 ! A17   A(8,4,46)             101.4627         estimate D2E/DX2                !
 ! A18   A(8,4,88)             113.0703         estimate D2E/DX2                !
 ! A19   A(45,4,46)            110.0218         estimate D2E/DX2                !
 ! A20   A(45,4,88)            110.2318         estimate D2E/DX2                !
 ! A21   A(46,4,88)            111.6565         estimate D2E/DX2                !
 ! A22   A(1,5,9)              125.6127         estimate D2E/DX2                !
 ! A23   A(1,5,29)             107.9936         estimate D2E/DX2                !
 ! A24   A(9,5,29)             119.3114         estimate D2E/DX2                !
 ! A25   A(2,6,10)             122.1434         estimate D2E/DX2                !
 ! A26   A(2,6,15)             110.5218         estimate D2E/DX2                !
 ! A27   A(10,6,15)            120.1372         estimate D2E/DX2                !
 ! A28   A(3,7,12)             122.1474         estimate D2E/DX2                !
 ! A29   A(3,7,30)             107.2078         estimate D2E/DX2                !
 ! A30   A(12,7,30)            119.5127         estimate D2E/DX2                !
 ! A31   A(4,8,11)             122.4089         estimate D2E/DX2                !
 ! A32   A(4,8,16)             110.4852         estimate D2E/DX2                !
 ! A33   A(11,8,16)            120.0897         estimate D2E/DX2                !
 ! A34   A(5,9,13)             115.6173         estimate D2E/DX2                !
 ! A35   A(5,9,35)             120.7485         estimate D2E/DX2                !
 ! A36   A(13,9,35)            118.2754         estimate D2E/DX2                !
 ! A37   A(6,10,49)            123.2438         estimate D2E/DX2                !
 ! A38   A(6,10,53)            119.0138         estimate D2E/DX2                !
 ! A39   A(49,10,53)           111.058          estimate D2E/DX2                !
 ! A40   A(8,11,50)            122.9517         estimate D2E/DX2                !
 ! A41   A(8,11,54)            119.6318         estimate D2E/DX2                !
 ! A42   A(50,11,54)           110.7401         estimate D2E/DX2                !
 ! A43   A(7,12,14)            115.0562         estimate D2E/DX2                !
 ! A44   A(7,12,36)            120.6628         estimate D2E/DX2                !
 ! A45   A(14,12,36)           118.8212         estimate D2E/DX2                !
 ! A46   A(9,13,15)            121.0855         estimate D2E/DX2                !
 ! A47   A(9,13,43)            122.0087         estimate D2E/DX2                !
 ! A48   A(15,13,43)           109.1629         estimate D2E/DX2                !
 ! A49   A(12,14,16)           122.6431         estimate D2E/DX2                !
 ! A50   A(12,14,46)           121.1747         estimate D2E/DX2                !
 ! A51   A(16,14,46)           109.1405         estimate D2E/DX2                !
 ! A52   A(6,15,13)            107.3439         estimate D2E/DX2                !
 ! A53   A(6,15,17)            122.1775         estimate D2E/DX2                !
 ! A54   A(13,15,17)           123.2151         estimate D2E/DX2                !
 ! A55   A(8,16,14)            108.4048         estimate D2E/DX2                !
 ! A56   A(8,16,18)            121.8743         estimate D2E/DX2                !
 ! A57   A(14,16,18)           121.6947         estimate D2E/DX2                !
 ! A58   A(1,17,15)            117.0891         estimate D2E/DX2                !
 ! A59   A(1,17,19)            121.3561         estimate D2E/DX2                !
 ! A60   A(15,17,19)           118.5613         estimate D2E/DX2                !
 ! A61   A(3,18,16)            115.3614         estimate D2E/DX2                !
 ! A62   A(3,18,20)            119.605          estimate D2E/DX2                !
 ! A63   A(16,18,20)           118.0842         estimate D2E/DX2                !
 ! A64   A(17,19,21)           119.9489         estimate D2E/DX2                !
 ! A65   A(17,19,53)           118.3052         estimate D2E/DX2                !
 ! A66   A(21,19,53)           115.3634         estimate D2E/DX2                !
 ! A67   A(18,20,22)           119.1099         estimate D2E/DX2                !
 ! A68   A(18,20,54)           118.3048         estimate D2E/DX2                !
 ! A69   A(22,20,54)           115.6282         estimate D2E/DX2                !
 ! A70   A(19,21,23)           118.9476         estimate D2E/DX2                !
 ! A71   A(19,21,57)           121.7829         estimate D2E/DX2                !
 ! A72   A(23,21,57)           107.3624         estimate D2E/DX2                !
 ! A73   A(20,22,24)           120.1118         estimate D2E/DX2                !
 ! A74   A(20,22,58)           122.1334         estimate D2E/DX2                !
 ! A75   A(24,22,58)           107.3801         estimate D2E/DX2                !
 ! A76   A(21,23,25)           121.4481         estimate D2E/DX2                !
 ! A77   A(21,23,61)           109.4262         estimate D2E/DX2                !
 ! A78   A(25,23,61)           119.246          estimate D2E/DX2                !
 ! A79   A(22,24,26)           120.4974         estimate D2E/DX2                !
 ! A80   A(22,24,62)           109.7764         estimate D2E/DX2                !
 ! A81   A(26,24,62)           119.1814         estimate D2E/DX2                !
 ! A82   A(1,25,23)            122.3549         estimate D2E/DX2                !
 ! A83   A(1,25,27)            111.7818         estimate D2E/DX2                !
 ! A84   A(23,25,27)           118.8673         estimate D2E/DX2                !
 ! A85   A(3,26,24)            120.2583         estimate D2E/DX2                !
 ! A86   A(3,26,28)            109.6629         estimate D2E/DX2                !
 ! A87   A(24,26,28)           119.2967         estimate D2E/DX2                !
 ! A88   A(25,27,29)           105.8078         estimate D2E/DX2                !
 ! A89   A(25,27,65)           123.6119         estimate D2E/DX2                !
 ! A90   A(29,27,65)           121.3493         estimate D2E/DX2                !
 ! A91   A(26,28,30)           105.0205         estimate D2E/DX2                !
 ! A92   A(26,28,66)           122.4355         estimate D2E/DX2                !
 ! A93   A(30,28,66)           121.5109         estimate D2E/DX2                !
 ! A94   A(5,29,27)            110.7598         estimate D2E/DX2                !
 ! A95   A(5,29,31)            120.6366         estimate D2E/DX2                !
 ! A96   A(27,29,31)           119.6696         estimate D2E/DX2                !
 ! A97   A(7,30,28)            109.7732         estimate D2E/DX2                !
 ! A98   A(7,30,32)            119.8783         estimate D2E/DX2                !
 ! A99   A(28,30,32)           119.8956         estimate D2E/DX2                !
 ! A100  A(29,31,33)           120.0513         estimate D2E/DX2                !
 ! A101  A(29,31,69)           119.4137         estimate D2E/DX2                !
 ! A102  A(33,31,69)           110.459          estimate D2E/DX2                !
 ! A103  A(30,32,34)           120.6241         estimate D2E/DX2                !
 ! A104  A(30,32,70)           119.3564         estimate D2E/DX2                !
 ! A105  A(34,32,70)           109.7195         estimate D2E/DX2                !
 ! A106  A(31,33,35)           120.2266         estimate D2E/DX2                !
 ! A107  A(31,33,73)           106.0451         estimate D2E/DX2                !
 ! A108  A(35,33,73)           122.7064         estimate D2E/DX2                !
 ! A109  A(32,34,36)           120.3859         estimate D2E/DX2                !
 ! A110  A(32,34,74)           106.2611         estimate D2E/DX2                !
 ! A111  A(36,34,74)           122.1343         estimate D2E/DX2                !
 ! A112  A(9,35,33)            117.1706         estimate D2E/DX2                !
 ! A113  A(9,35,37)            119.6206         estimate D2E/DX2                !
 ! A114  A(33,35,37)           117.8766         estimate D2E/DX2                !
 ! A115  A(12,36,34)           117.3011         estimate D2E/DX2                !
 ! A116  A(12,36,38)           119.3285         estimate D2E/DX2                !
 ! A117  A(34,36,38)           118.3751         estimate D2E/DX2                !
 ! A118  A(35,37,39)           119.3459         estimate D2E/DX2                !
 ! A119  A(35,37,77)           118.4812         estimate D2E/DX2                !
 ! A120  A(39,37,77)           116.7365         estimate D2E/DX2                !
 ! A121  A(36,38,42)           119.1275         estimate D2E/DX2                !
 ! A122  A(36,38,78)           118.3448         estimate D2E/DX2                !
 ! A123  A(42,38,78)           118.4143         estimate D2E/DX2                !
 ! A124  A(37,39,43)           119.4337         estimate D2E/DX2                !
 ! A125  A(37,39,79)           119.2136         estimate D2E/DX2                !
 ! A126  A(43,39,79)           115.6813         estimate D2E/DX2                !
 ! A127  A(41,40,44)           121.1738         estimate D2E/DX2                !
 ! A128  A(41,40,79)           109.1009         estimate D2E/DX2                !
 ! A129  A(44,40,79)           123.9959         estimate D2E/DX2                !
 ! A130  A(40,41,45)           120.504          estimate D2E/DX2                !
 ! A131  A(40,41,80)           110.2637         estimate D2E/DX2                !
 ! A132  A(45,41,80)           125.5634         estimate D2E/DX2                !
 ! A133  A(38,42,46)           120.3285         estimate D2E/DX2                !
 ! A134  A(38,42,80)           121.5815         estimate D2E/DX2                !
 ! A135  A(46,42,80)           116.1385         estimate D2E/DX2                !
 ! A136  A(2,43,13)            110.5808         estimate D2E/DX2                !
 ! A137  A(2,43,39)            123.7572         estimate D2E/DX2                !
 ! A138  A(13,43,39)           121.0835         estimate D2E/DX2                !
 ! A139  A(2,44,40)            115.4395         estimate D2E/DX2                !
 ! A140  A(2,44,47)            124.2995         estimate D2E/DX2                !
 ! A141  A(40,44,47)           118.8871         estimate D2E/DX2                !
 ! A142  A(4,45,41)            115.6402         estimate D2E/DX2                !
 ! A143  A(4,45,48)            123.699          estimate D2E/DX2                !
 ! A144  A(41,45,48)           119.1063         estimate D2E/DX2                !
 ! A145  A(4,46,14)            109.317          estimate D2E/DX2                !
 ! A146  A(4,46,42)            125.4803         estimate D2E/DX2                !
 ! A147  A(14,46,42)           121.0482         estimate D2E/DX2                !
 ! A148  A(44,47,48)           119.9781         estimate D2E/DX2                !
 ! A149  A(44,47,49)           118.4439         estimate D2E/DX2                !
 ! A150  A(48,47,49)           120.8245         estimate D2E/DX2                !
 ! A151  A(45,48,47)           120.2347         estimate D2E/DX2                !
 ! A152  A(45,48,50)           118.6161         estimate D2E/DX2                !
 ! A153  A(47,48,50)           120.4632         estimate D2E/DX2                !
 ! A154  A(10,49,47)           109.8808         estimate D2E/DX2                !
 ! A155  A(10,49,51)           100.9308         estimate D2E/DX2                !
 ! A156  A(10,49,85)           113.2669         estimate D2E/DX2                !
 ! A157  A(47,49,51)           110.1759         estimate D2E/DX2                !
 ! A158  A(47,49,85)           108.918          estimate D2E/DX2                !
 ! A159  A(51,49,85)           113.4558         estimate D2E/DX2                !
 ! A160  A(11,50,48)           110.0788         estimate D2E/DX2                !
 ! A161  A(11,50,52)           101.0931         estimate D2E/DX2                !
 ! A162  A(11,50,86)           113.0524         estimate D2E/DX2                !
 ! A163  A(48,50,52)           110.3402         estimate D2E/DX2                !
 ! A164  A(48,50,86)           108.8568         estimate D2E/DX2                !
 ! A165  A(52,50,86)           113.2384         estimate D2E/DX2                !
 ! A166  A(49,51,52)           122.0661         estimate D2E/DX2                !
 ! A167  A(49,51,55)           110.9929         estimate D2E/DX2                !
 ! A168  A(52,51,55)           119.8461         estimate D2E/DX2                !
 ! A169  A(50,52,51)           122.2411         estimate D2E/DX2                !
 ! A170  A(50,52,56)           111.0157         estimate D2E/DX2                !
 ! A171  A(51,52,56)           119.8254         estimate D2E/DX2                !
 ! A172  A(10,53,19)           121.6945         estimate D2E/DX2                !
 ! A173  A(10,53,55)           108.4481         estimate D2E/DX2                !
 ! A174  A(19,53,55)           122.241          estimate D2E/DX2                !
 ! A175  A(11,54,20)           121.9307         estimate D2E/DX2                !
 ! A176  A(11,54,56)           108.4622         estimate D2E/DX2                !
 ! A177  A(20,54,56)           121.959          estimate D2E/DX2                !
 ! A178  A(51,55,53)           108.2575         estimate D2E/DX2                !
 ! A179  A(51,55,83)           122.0404         estimate D2E/DX2                !
 ! A180  A(53,55,83)           121.7247         estimate D2E/DX2                !
 ! A181  A(52,56,54)           108.3884         estimate D2E/DX2                !
 ! A182  A(52,56,84)           121.8028         estimate D2E/DX2                !
 ! A183  A(54,56,84)           121.9713         estimate D2E/DX2                !
 ! A184  A(21,57,59)           107.4754         estimate D2E/DX2                !
 ! A185  A(21,57,83)           122.7342         estimate D2E/DX2                !
 ! A186  A(59,57,83)           119.7939         estimate D2E/DX2                !
 ! A187  A(22,58,60)           107.194          estimate D2E/DX2                !
 ! A188  A(22,58,84)           122.1401         estimate D2E/DX2                !
 ! A189  A(60,58,84)           120.1659         estimate D2E/DX2                !
 ! A190  A(57,59,60)           120.5834         estimate D2E/DX2                !
 ! A191  A(57,59,61)           109.6894         estimate D2E/DX2                !
 ! A192  A(60,59,61)           119.3886         estimate D2E/DX2                !
 ! A193  A(58,60,59)           120.4083         estimate D2E/DX2                !
 ! A194  A(58,60,62)           109.8431         estimate D2E/DX2                !
 ! A195  A(59,60,62)           119.3804         estimate D2E/DX2                !
 ! A196  A(23,61,59)           105.2653         estimate D2E/DX2                !
 ! A197  A(23,61,63)           122.6382         estimate D2E/DX2                !
 ! A198  A(59,61,63)           122.1671         estimate D2E/DX2                !
 ! A199  A(24,62,60)           105.0451         estimate D2E/DX2                !
 ! A200  A(24,62,64)           122.1798         estimate D2E/DX2                !
 ! A201  A(60,62,64)           122.2429         estimate D2E/DX2                !
 ! A202  A(61,63,64)           118.1024         estimate D2E/DX2                !
 ! A203  A(61,63,65)           117.59           estimate D2E/DX2                !
 ! A204  A(64,63,65)           119.9278         estimate D2E/DX2                !
 ! A205  A(62,64,63)           117.7922         estimate D2E/DX2                !
 ! A206  A(62,64,66)           118.1284         estimate D2E/DX2                !
 ! A207  A(63,64,66)           119.6791         estimate D2E/DX2                !
 ! A208  A(27,65,63)           117.2681         estimate D2E/DX2                !
 ! A209  A(27,65,67)           118.213          estimate D2E/DX2                !
 ! A210  A(63,65,67)           120.6375         estimate D2E/DX2                !
 ! A211  A(28,66,64)           117.5706         estimate D2E/DX2                !
 ! A212  A(28,66,68)           117.8711         estimate D2E/DX2                !
 ! A213  A(64,66,68)           120.4485         estimate D2E/DX2                !
 ! A214  A(65,67,68)           119.5791         estimate D2E/DX2                !
 ! A215  A(65,67,69)           118.3225         estimate D2E/DX2                !
 ! A216  A(68,67,69)           117.9913         estimate D2E/DX2                !
 ! A217  A(66,68,67)           119.68           estimate D2E/DX2                !
 ! A218  A(66,68,70)           118.2763         estimate D2E/DX2                !
 ! A219  A(67,68,70)           117.7933         estimate D2E/DX2                !
 ! A220  A(31,69,67)           121.2583         estimate D2E/DX2                !
 ! A221  A(31,69,71)           105.4567         estimate D2E/DX2                !
 ! A222  A(67,69,71)           122.7763         estimate D2E/DX2                !
 ! A223  A(32,70,68)           121.2133         estimate D2E/DX2                !
 ! A224  A(32,70,72)           105.4894         estimate D2E/DX2                !
 ! A225  A(68,70,72)           122.7387         estimate D2E/DX2                !
 ! A226  A(69,71,72)           119.1607         estimate D2E/DX2                !
 ! A227  A(69,71,73)           108.667          estimate D2E/DX2                !
 ! A228  A(72,71,73)           119.9808         estimate D2E/DX2                !
 ! A229  A(70,72,71)           119.0989         estimate D2E/DX2                !
 ! A230  A(70,72,74)           108.8769         estimate D2E/DX2                !
 ! A231  A(71,72,74)           120.0359         estimate D2E/DX2                !
 ! A232  A(33,73,71)           108.1916         estimate D2E/DX2                !
 ! A233  A(33,73,75)           119.3355         estimate D2E/DX2                !
 ! A234  A(71,73,75)           120.0854         estimate D2E/DX2                !
 ! A235  A(34,74,72)           108.3143         estimate D2E/DX2                !
 ! A236  A(34,74,76)           119.1876         estimate D2E/DX2                !
 ! A237  A(72,74,76)           120.0706         estimate D2E/DX2                !
 ! A238  A(73,75,76)           120.2443         estimate D2E/DX2                !
 ! A239  A(73,75,77)           119.3492         estimate D2E/DX2                !
 ! A240  A(76,75,77)           108.5374         estimate D2E/DX2                !
 ! A241  A(74,76,75)           119.5299         estimate D2E/DX2                !
 ! A242  A(74,76,78)           119.8173         estimate D2E/DX2                !
 ! A243  A(75,76,78)           108.6037         estimate D2E/DX2                !
 ! A244  A(37,77,75)           122.1367         estimate D2E/DX2                !
 ! A245  A(37,77,81)           121.8658         estimate D2E/DX2                !
 ! A246  A(75,77,81)           106.4147         estimate D2E/DX2                !
 ! A247  A(38,78,76)           121.8246         estimate D2E/DX2                !
 ! A248  A(38,78,81)           120.4626         estimate D2E/DX2                !
 ! A249  A(76,78,81)           106.2575         estimate D2E/DX2                !
 ! A250  A(39,79,40)           120.0041         estimate D2E/DX2                !
 ! A251  A(39,79,82)           122.5061         estimate D2E/DX2                !
 ! A252  A(40,79,82)           106.8737         estimate D2E/DX2                !
 ! A253  A(41,80,42)           110.1652         estimate D2E/DX2                !
 ! A254  A(41,80,82)           100.5823         estimate D2E/DX2                !
 ! A255  A(41,80,90)           111.4735         estimate D2E/DX2                !
 ! A256  A(42,80,82)           112.4286         estimate D2E/DX2                !
 ! A257  A(42,80,90)           109.927          estimate D2E/DX2                !
 ! A258  A(82,80,90)           111.9809         estimate D2E/DX2                !
 ! A259  A(77,81,78)           109.384          estimate D2E/DX2                !
 ! A260  A(77,81,82)           119.9399         estimate D2E/DX2                !
 ! A261  A(78,81,82)           120.7039         estimate D2E/DX2                !
 ! A262  A(79,82,80)           111.9719         estimate D2E/DX2                !
 ! A263  A(79,82,81)           119.1368         estimate D2E/DX2                !
 ! A264  A(80,82,81)           121.6331         estimate D2E/DX2                !
 ! A265  A(55,83,57)           115.3915         estimate D2E/DX2                !
 ! A266  A(55,83,84)           118.2133         estimate D2E/DX2                !
 ! A267  A(57,83,84)           119.395          estimate D2E/DX2                !
 ! A268  A(56,84,58)           115.5513         estimate D2E/DX2                !
 ! A269  A(56,84,83)           118.2453         estimate D2E/DX2                !
 ! A270  A(58,84,83)           119.396          estimate D2E/DX2                !
 ! D1    D(17,1,5,9)            16.3716         estimate D2E/DX2                !
 ! D2    D(17,1,5,29)         -133.6011         estimate D2E/DX2                !
 ! D3    D(25,1,5,9)           135.7967         estimate D2E/DX2                !
 ! D4    D(25,1,5,29)          -14.176          estimate D2E/DX2                !
 ! D5    D(89,1,5,9)          -106.2384         estimate D2E/DX2                !
 ! D6    D(89,1,5,29)          103.7889         estimate D2E/DX2                !
 ! D7    D(5,1,17,15)          -23.4662         estimate D2E/DX2                !
 ! D8    D(5,1,17,19)          136.6742         estimate D2E/DX2                !
 ! D9    D(25,1,17,15)        -136.8387         estimate D2E/DX2                !
 ! D10   D(25,1,17,19)          23.3018         estimate D2E/DX2                !
 ! D11   D(89,1,17,15)          99.7974         estimate D2E/DX2                !
 ! D12   D(89,1,17,19)        -100.0621         estimate D2E/DX2                !
 ! D13   D(5,1,25,23)         -142.5054         estimate D2E/DX2                !
 ! D14   D(5,1,25,27)            7.7916         estimate D2E/DX2                !
 ! D15   D(17,1,25,23)         -21.7681         estimate D2E/DX2                !
 ! D16   D(17,1,25,27)         128.5289         estimate D2E/DX2                !
 ! D17   D(89,1,25,23)         100.3058         estimate D2E/DX2                !
 ! D18   D(89,1,25,27)        -109.3972         estimate D2E/DX2                !
 ! D19   D(43,2,6,10)         -142.6124         estimate D2E/DX2                !
 ! D20   D(43,2,6,15)            7.6546         estimate D2E/DX2                !
 ! D21   D(44,2,6,10)          -24.5386         estimate D2E/DX2                !
 ! D22   D(44,2,6,15)          125.7284         estimate D2E/DX2                !
 ! D23   D(87,2,6,10)           98.0092         estimate D2E/DX2                !
 ! D24   D(87,2,6,15)         -111.7238         estimate D2E/DX2                !
 ! D25   D(6,2,43,13)           -9.8933         estimate D2E/DX2                !
 ! D26   D(6,2,43,39)          146.211          estimate D2E/DX2                !
 ! D27   D(44,2,43,13)        -126.8032         estimate D2E/DX2                !
 ! D28   D(44,2,43,39)          29.3011         estimate D2E/DX2                !
 ! D29   D(87,2,43,13)         110.762          estimate D2E/DX2                !
 ! D30   D(87,2,43,39)         -93.1337         estimate D2E/DX2                !
 ! D31   D(6,2,44,40)         -144.646          estimate D2E/DX2                !
 ! D32   D(6,2,44,47)           21.7746         estimate D2E/DX2                !
 ! D33   D(43,2,44,40)         -32.9855         estimate D2E/DX2                !
 ! D34   D(43,2,44,47)         133.435          estimate D2E/DX2                !
 ! D35   D(87,2,44,40)          90.5878         estimate D2E/DX2                !
 ! D36   D(87,2,44,47)        -102.9916         estimate D2E/DX2                !
 ! D37   D(18,3,7,12)            3.373          estimate D2E/DX2                !
 ! D38   D(18,3,7,30)          146.8595         estimate D2E/DX2                !
 ! D39   D(26,3,7,12)         -141.407          estimate D2E/DX2                !
 ! D40   D(26,3,7,30)            2.0794         estimate D2E/DX2                !
 ! D41   D(7,3,18,16)            5.3339         estimate D2E/DX2                !
 ! D42   D(7,3,18,20)         -144.9547         estimate D2E/DX2                !
 ! D43   D(26,3,18,16)         145.7557         estimate D2E/DX2                !
 ! D44   D(26,3,18,20)          -4.5329         estimate D2E/DX2                !
 ! D45   D(7,3,26,24)          148.821          estimate D2E/DX2                !
 ! D46   D(7,3,26,28)            4.7206         estimate D2E/DX2                !
 ! D47   D(18,3,26,24)           3.1743         estimate D2E/DX2                !
 ! D48   D(18,3,26,28)        -140.926          estimate D2E/DX2                !
 ! D49   D(45,4,8,11)           24.5748         estimate D2E/DX2                !
 ! D50   D(45,4,8,16)         -126.013          estimate D2E/DX2                !
 ! D51   D(46,4,8,11)          141.075          estimate D2E/DX2                !
 ! D52   D(46,4,8,16)           -9.5129         estimate D2E/DX2                !
 ! D53   D(88,4,8,11)          -99.2124         estimate D2E/DX2                !
 ! D54   D(88,4,8,16)          110.1997         estimate D2E/DX2                !
 ! D55   D(8,4,45,41)          144.7303         estimate D2E/DX2                !
 ! D56   D(8,4,45,48)          -20.8825         estimate D2E/DX2                !
 ! D57   D(46,4,45,41)          33.7178         estimate D2E/DX2                !
 ! D58   D(46,4,45,48)        -131.895          estimate D2E/DX2                !
 ! D59   D(88,4,45,41)         -89.8491         estimate D2E/DX2                !
 ! D60   D(88,4,45,48)         104.5381         estimate D2E/DX2                !
 ! D61   D(8,4,46,14)           10.8735         estimate D2E/DX2                !
 ! D62   D(8,4,46,42)         -146.1988         estimate D2E/DX2                !
 ! D63   D(45,4,46,14)         127.4299         estimate D2E/DX2                !
 ! D64   D(45,4,46,42)         -29.6423         estimate D2E/DX2                !
 ! D65   D(88,4,46,14)        -109.8382         estimate D2E/DX2                !
 ! D66   D(88,4,46,42)          93.0896         estimate D2E/DX2                !
 ! D67   D(1,5,9,13)            -1.8367         estimate D2E/DX2                !
 ! D68   D(1,5,9,35)          -155.543          estimate D2E/DX2                !
 ! D69   D(29,5,9,13)          145.0827         estimate D2E/DX2                !
 ! D70   D(29,5,9,35)           -8.6236         estimate D2E/DX2                !
 ! D71   D(1,5,29,27)           16.3674         estimate D2E/DX2                !
 ! D72   D(1,5,29,31)          163.481          estimate D2E/DX2                !
 ! D73   D(9,5,29,27)         -135.8218         estimate D2E/DX2                !
 ! D74   D(9,5,29,31)           11.2918         estimate D2E/DX2                !
 ! D75   D(2,6,10,49)           -0.9274         estimate D2E/DX2                !
 ! D76   D(2,6,10,53)          147.8124         estimate D2E/DX2                !
 ! D77   D(15,6,10,49)        -148.4419         estimate D2E/DX2                !
 ! D78   D(15,6,10,53)           0.2979         estimate D2E/DX2                !
 ! D79   D(2,6,15,13)           -3.1092         estimate D2E/DX2                !
 ! D80   D(2,6,15,17)         -154.0971         estimate D2E/DX2                !
 ! D81   D(10,6,15,13)         147.8406         estimate D2E/DX2                !
 ! D82   D(10,6,15,17)          -3.1473         estimate D2E/DX2                !
 ! D83   D(3,7,12,14)           -8.2991         estimate D2E/DX2                !
 ! D84   D(3,7,12,36)          145.3159         estimate D2E/DX2                !
 ! D85   D(30,7,12,14)        -147.5215         estimate D2E/DX2                !
 ! D86   D(30,7,12,36)           6.0935         estimate D2E/DX2                !
 ! D87   D(3,7,30,28)           -8.1941         estimate D2E/DX2                !
 ! D88   D(3,7,30,32)         -153.0171         estimate D2E/DX2                !
 ! D89   D(12,7,30,28)         136.4326         estimate D2E/DX2                !
 ! D90   D(12,7,30,32)          -8.3904         estimate D2E/DX2                !
 ! D91   D(4,8,11,50)            0.5423         estimate D2E/DX2                !
 ! D92   D(4,8,11,54)         -148.1319         estimate D2E/DX2                !
 ! D93   D(16,8,11,50)         148.4231         estimate D2E/DX2                !
 ! D94   D(16,8,11,54)          -0.2511         estimate D2E/DX2                !
 ! D95   D(4,8,16,14)            4.9295         estimate D2E/DX2                !
 ! D96   D(4,8,16,18)          154.128          estimate D2E/DX2                !
 ! D97   D(11,8,16,14)        -146.4392         estimate D2E/DX2                !
 ! D98   D(11,8,16,18)           2.7593         estimate D2E/DX2                !
 ! D99   D(5,9,13,15)           -5.8808         estimate D2E/DX2                !
 ! D100  D(5,9,13,43)         -151.8645         estimate D2E/DX2                !
 ! D101  D(35,9,13,15)         148.507          estimate D2E/DX2                !
 ! D102  D(35,9,13,43)           2.5233         estimate D2E/DX2                !
 ! D103  D(5,9,35,33)           -3.2607         estimate D2E/DX2                !
 ! D104  D(5,9,35,37)          150.4281         estimate D2E/DX2                !
 ! D105  D(13,9,35,33)        -156.2893         estimate D2E/DX2                !
 ! D106  D(13,9,35,37)          -2.6005         estimate D2E/DX2                !
 ! D107  D(6,10,49,47)          29.149          estimate D2E/DX2                !
 ! D108  D(6,10,49,51)         145.4685         estimate D2E/DX2                !
 ! D109  D(6,10,49,85)         -92.9086         estimate D2E/DX2                !
 ! D110  D(53,10,49,47)       -121.7548         estimate D2E/DX2                !
 ! D111  D(53,10,49,51)         -5.4353         estimate D2E/DX2                !
 ! D112  D(53,10,49,85)        116.1876         estimate D2E/DX2                !
 ! D113  D(6,10,53,19)           1.6241         estimate D2E/DX2                !
 ! D114  D(6,10,53,55)        -148.4809         estimate D2E/DX2                !
 ! D115  D(49,10,53,19)        153.91           estimate D2E/DX2                !
 ! D116  D(49,10,53,55)          3.805          estimate D2E/DX2                !
 ! D117  D(8,11,50,48)         -29.0631         estimate D2E/DX2                !
 ! D118  D(8,11,50,52)        -145.7299         estimate D2E/DX2                !
 ! D119  D(8,11,50,86)          92.911          estimate D2E/DX2                !
 ! D120  D(54,11,50,48)        122.0407         estimate D2E/DX2                !
 ! D121  D(54,11,50,52)          5.3738         estimate D2E/DX2                !
 ! D122  D(54,11,50,86)       -115.9853         estimate D2E/DX2                !
 ! D123  D(8,11,54,20)          -1.6594         estimate D2E/DX2                !
 ! D124  D(8,11,54,56)         148.29           estimate D2E/DX2                !
 ! D125  D(50,11,54,20)       -153.8522         estimate D2E/DX2                !
 ! D126  D(50,11,54,56)         -3.9028         estimate D2E/DX2                !
 ! D127  D(7,12,14,16)           4.759          estimate D2E/DX2                !
 ! D128  D(7,12,14,46)         152.1833         estimate D2E/DX2                !
 ! D129  D(36,12,14,16)       -149.3722         estimate D2E/DX2                !
 ! D130  D(36,12,14,46)         -1.9479         estimate D2E/DX2                !
 ! D131  D(7,12,36,34)           4.7333         estimate D2E/DX2                !
 ! D132  D(7,12,36,38)        -149.8805         estimate D2E/DX2                !
 ! D133  D(14,12,36,34)        157.3786         estimate D2E/DX2                !
 ! D134  D(14,12,36,38)          2.7648         estimate D2E/DX2                !
 ! D135  D(9,13,15,6)         -153.3131         estimate D2E/DX2                !
 ! D136  D(9,13,15,17)          -2.6974         estimate D2E/DX2                !
 ! D137  D(43,13,15,6)          -3.4591         estimate D2E/DX2                !
 ! D138  D(43,13,15,17)        147.1566         estimate D2E/DX2                !
 ! D139  D(9,13,43,2)          158.1499         estimate D2E/DX2                !
 ! D140  D(9,13,43,39)           1.3062         estimate D2E/DX2                !
 ! D141  D(15,13,43,2)           8.6273         estimate D2E/DX2                !
 ! D142  D(15,13,43,39)       -148.2164         estimate D2E/DX2                !
 ! D143  D(12,14,16,8)         153.2035         estimate D2E/DX2                !
 ! D144  D(12,14,16,18)          3.9387         estimate D2E/DX2                !
 ! D145  D(46,14,16,8)           2.3877         estimate D2E/DX2                !
 ! D146  D(46,14,16,18)       -146.8771         estimate D2E/DX2                !
 ! D147  D(12,14,46,4)        -159.9875         estimate D2E/DX2                !
 ! D148  D(12,14,46,42)         -1.7205         estimate D2E/DX2                !
 ! D149  D(16,14,46,4)          -8.6663         estimate D2E/DX2                !
 ! D150  D(16,14,46,42)        149.6007         estimate D2E/DX2                !
 ! D151  D(6,15,17,1)          164.6255         estimate D2E/DX2                !
 ! D152  D(6,15,17,19)           3.9122         estimate D2E/DX2                !
 ! D153  D(13,15,17,1)          18.2227         estimate D2E/DX2                !
 ! D154  D(13,15,17,19)       -142.4907         estimate D2E/DX2                !
 ! D155  D(8,16,18,3)         -154.021          estimate D2E/DX2                !
 ! D156  D(8,16,18,20)          -3.259          estimate D2E/DX2                !
 ! D157  D(14,16,18,3)          -8.8436         estimate D2E/DX2                !
 ! D158  D(14,16,18,20)        141.9184         estimate D2E/DX2                !
 ! D159  D(1,17,19,21)         -11.1018         estimate D2E/DX2                !
 ! D160  D(1,17,19,53)        -161.7711         estimate D2E/DX2                !
 ! D161  D(15,17,19,21)        148.7558         estimate D2E/DX2                !
 ! D162  D(15,17,19,53)         -1.9135         estimate D2E/DX2                !
 ! D163  D(3,18,20,22)           1.2585         estimate D2E/DX2                !
 ! D164  D(3,18,20,54)         150.8193         estimate D2E/DX2                !
 ! D165  D(16,18,20,22)       -148.2351         estimate D2E/DX2                !
 ! D166  D(16,18,20,54)          1.3257         estimate D2E/DX2                !
 ! D167  D(17,19,21,23)         -5.0844         estimate D2E/DX2                !
 ! D168  D(17,19,21,57)       -143.1487         estimate D2E/DX2                !
 ! D169  D(53,19,21,23)        146.4073         estimate D2E/DX2                !
 ! D170  D(53,19,21,57)          8.343          estimate D2E/DX2                !
 ! D171  D(17,19,53,10)         -0.811          estimate D2E/DX2                !
 ! D172  D(17,19,53,55)        145.2031         estimate D2E/DX2                !
 ! D173  D(21,19,53,10)       -152.7951         estimate D2E/DX2                !
 ! D174  D(21,19,53,55)         -6.781          estimate D2E/DX2                !
 ! D175  D(18,20,22,24)          3.3489         estimate D2E/DX2                !
 ! D176  D(18,20,22,58)        143.8873         estimate D2E/DX2                !
 ! D177  D(54,20,22,24)       -146.9997         estimate D2E/DX2                !
 ! D178  D(54,20,22,58)         -6.4613         estimate D2E/DX2                !
 ! D179  D(18,20,54,11)          1.085          estimate D2E/DX2                !
 ! D180  D(18,20,54,56)       -144.8696         estimate D2E/DX2                !
 ! D181  D(22,20,54,11)        151.6834         estimate D2E/DX2                !
 ! D182  D(22,20,54,56)          5.7288         estimate D2E/DX2                !
 ! D183  D(19,21,23,25)          6.9203         estimate D2E/DX2                !
 ! D184  D(19,21,23,61)       -138.4586         estimate D2E/DX2                !
 ! D185  D(57,21,23,25)        150.3931         estimate D2E/DX2                !
 ! D186  D(57,21,23,61)          5.0142         estimate D2E/DX2                !
 ! D187  D(19,21,57,59)        142.7628         estimate D2E/DX2                !
 ! D188  D(19,21,57,83)         -2.4878         estimate D2E/DX2                !
 ! D189  D(23,21,57,59)          0.5491         estimate D2E/DX2                !
 ! D190  D(23,21,57,83)       -144.7015         estimate D2E/DX2                !
 ! D191  D(20,22,24,26)         -4.7858         estimate D2E/DX2                !
 ! D192  D(20,22,24,62)        139.6142         estimate D2E/DX2                !
 ! D193  D(58,22,24,26)       -150.4565         estimate D2E/DX2                !
 ! D194  D(58,22,24,62)         -6.0564         estimate D2E/DX2                !
 ! D195  D(20,22,58,60)       -144.0498         estimate D2E/DX2                !
 ! D196  D(20,22,58,84)          0.5996         estimate D2E/DX2                !
 ! D197  D(24,22,58,60)          0.7739         estimate D2E/DX2                !
 ! D198  D(24,22,58,84)        145.4233         estimate D2E/DX2                !
 ! D199  D(21,23,25,1)           7.707          estimate D2E/DX2                !
 ! D200  D(21,23,25,27)       -140.5968         estimate D2E/DX2                !
 ! D201  D(61,23,25,1)         149.8218         estimate D2E/DX2                !
 ! D202  D(61,23,25,27)          1.518          estimate D2E/DX2                !
 ! D203  D(21,23,61,59)         -8.4437         estimate D2E/DX2                !
 ! D204  D(21,23,61,63)        137.6695         estimate D2E/DX2                !
 ! D205  D(25,23,61,59)       -154.6982         estimate D2E/DX2                !
 ! D206  D(25,23,61,63)         -8.585          estimate D2E/DX2                !
 ! D207  D(22,24,26,3)           1.4958         estimate D2E/DX2                !
 ! D208  D(22,24,26,28)        142.2123         estimate D2E/DX2                !
 ! D209  D(62,24,26,3)        -139.6441         estimate D2E/DX2                !
 ! D210  D(62,24,26,28)          1.0724         estimate D2E/DX2                !
 ! D211  D(22,24,62,60)          8.7411         estimate D2E/DX2                !
 ! D212  D(22,24,62,64)       -136.5294         estimate D2E/DX2                !
 ! D213  D(26,24,62,60)        153.6763         estimate D2E/DX2                !
 ! D214  D(26,24,62,64)          8.4058         estimate D2E/DX2                !
 ! D215  D(1,25,27,29)           1.3438         estimate D2E/DX2                !
 ! D216  D(1,25,27,65)        -145.5273         estimate D2E/DX2                !
 ! D217  D(23,25,27,29)        152.791          estimate D2E/DX2                !
 ! D218  D(23,25,27,65)          5.9198         estimate D2E/DX2                !
 ! D219  D(3,26,28,30)          -9.4944         estimate D2E/DX2                !
 ! D220  D(3,26,28,66)         134.7678         estimate D2E/DX2                !
 ! D221  D(24,26,28,30)       -153.9902         estimate D2E/DX2                !
 ! D222  D(24,26,28,66)         -9.7279         estimate D2E/DX2                !
 ! D223  D(25,27,29,5)         -11.0542         estimate D2E/DX2                !
 ! D224  D(25,27,29,31)       -158.5285         estimate D2E/DX2                !
 ! D225  D(65,27,29,5)         136.7405         estimate D2E/DX2                !
 ! D226  D(65,27,29,31)        -10.7338         estimate D2E/DX2                !
 ! D227  D(25,27,65,63)         -6.2725         estimate D2E/DX2                !
 ! D228  D(25,27,65,67)        151.7201         estimate D2E/DX2                !
 ! D229  D(29,27,65,63)       -148.2663         estimate D2E/DX2                !
 ! D230  D(29,27,65,67)          9.7263         estimate D2E/DX2                !
 ! D231  D(26,28,30,7)          10.8339         estimate D2E/DX2                !
 ! D232  D(26,28,30,32)        155.6499         estimate D2E/DX2                !
 ! D233  D(66,28,30,7)        -133.8406         estimate D2E/DX2                !
 ! D234  D(66,28,30,32)         10.9754         estimate D2E/DX2                !
 ! D235  D(26,28,66,64)          8.6621         estimate D2E/DX2                !
 ! D236  D(26,28,66,68)       -148.6793         estimate D2E/DX2                !
 ! D237  D(30,28,66,64)        147.2331         estimate D2E/DX2                !
 ! D238  D(30,28,66,68)        -10.1084         estimate D2E/DX2                !
 ! D239  D(5,29,31,33)          -1.8168         estimate D2E/DX2                !
 ! D240  D(5,29,31,69)        -143.9791         estimate D2E/DX2                !
 ! D241  D(27,29,31,33)        142.4274         estimate D2E/DX2                !
 ! D242  D(27,29,31,69)          0.2651         estimate D2E/DX2                !
 ! D243  D(7,30,32,34)          -0.2674         estimate D2E/DX2                !
 ! D244  D(7,30,32,70)         141.2537         estimate D2E/DX2                !
 ! D245  D(28,30,32,34)       -141.5596         estimate D2E/DX2                !
 ! D246  D(28,30,32,70)         -0.0386         estimate D2E/DX2                !
 ! D247  D(29,31,33,35)        -10.488          estimate D2E/DX2                !
 ! D248  D(29,31,33,73)       -155.4            estimate D2E/DX2                !
 ! D249  D(69,31,33,35)        134.7388         estimate D2E/DX2                !
 ! D250  D(69,31,33,73)        -10.1732         estimate D2E/DX2                !
 ! D251  D(29,31,69,67)         11.1077         estimate D2E/DX2                !
 ! D252  D(29,31,69,71)        156.6861         estimate D2E/DX2                !
 ! D253  D(33,31,69,67)       -134.3708         estimate D2E/DX2                !
 ! D254  D(33,31,69,71)         11.2077         estimate D2E/DX2                !
 ! D255  D(30,32,34,36)         11.5109         estimate D2E/DX2                !
 ! D256  D(30,32,34,74)        155.9336         estimate D2E/DX2                !
 ! D257  D(70,32,34,36)       -133.3116         estimate D2E/DX2                !
 ! D258  D(70,32,34,74)         11.111          estimate D2E/DX2                !
 ! D259  D(30,32,70,68)        -11.5498         estimate D2E/DX2                !
 ! D260  D(30,32,70,72)       -157.047          estimate D2E/DX2                !
 ! D261  D(34,32,70,68)        133.7836         estimate D2E/DX2                !
 ! D262  D(34,32,70,72)        -11.7136         estimate D2E/DX2                !
 ! D263  D(31,33,35,9)          12.7466         estimate D2E/DX2                !
 ! D264  D(31,33,35,37)       -141.4105         estimate D2E/DX2                !
 ! D265  D(73,33,35,9)         151.7105         estimate D2E/DX2                !
 ! D266  D(73,33,35,37)         -2.4465         estimate D2E/DX2                !
 ! D267  D(31,33,73,71)          5.0428         estimate D2E/DX2                !
 ! D268  D(31,33,73,75)        147.2249         estimate D2E/DX2                !
 ! D269  D(35,33,73,71)       -138.7813         estimate D2E/DX2                !
 ! D270  D(35,33,73,75)          3.4008         estimate D2E/DX2                !
 ! D271  D(32,34,36,12)        -13.4233         estimate D2E/DX2                !
 ! D272  D(32,34,36,38)        141.4384         estimate D2E/DX2                !
 ! D273  D(74,34,36,12)       -152.1562         estimate D2E/DX2                !
 ! D274  D(74,34,36,38)          2.7055         estimate D2E/DX2                !
 ! D275  D(32,34,74,72)         -5.9717         estimate D2E/DX2                !
 ! D276  D(32,34,74,76)       -148.1066         estimate D2E/DX2                !
 ! D277  D(36,34,74,72)        137.6809         estimate D2E/DX2                !
 ! D278  D(36,34,74,76)         -4.454          estimate D2E/DX2                !
 ! D279  D(9,35,37,39)          -0.9954         estimate D2E/DX2                !
 ! D280  D(9,35,37,77)        -154.1474         estimate D2E/DX2                !
 ! D281  D(33,35,37,39)        152.5107         estimate D2E/DX2                !
 ! D282  D(33,35,37,77)         -0.6412         estimate D2E/DX2                !
 ! D283  D(12,36,38,42)         -0.124          estimate D2E/DX2                !
 ! D284  D(12,36,38,78)        156.734          estimate D2E/DX2                !
 ! D285  D(34,36,38,42)       -154.467          estimate D2E/DX2                !
 ! D286  D(34,36,38,78)          2.3909         estimate D2E/DX2                !
 ! D287  D(35,37,39,43)          4.7744         estimate D2E/DX2                !
 ! D288  D(35,37,39,79)       -147.5544         estimate D2E/DX2                !
 ! D289  D(77,37,39,43)        158.3837         estimate D2E/DX2                !
 ! D290  D(77,37,39,79)          6.0549         estimate D2E/DX2                !
 ! D291  D(35,37,77,75)          2.8361         estimate D2E/DX2                !
 ! D292  D(35,37,77,81)        144.4124         estimate D2E/DX2                !
 ! D293  D(39,37,77,75)       -151.0089         estimate D2E/DX2                !
 ! D294  D(39,37,77,81)         -9.4327         estimate D2E/DX2                !
 ! D295  D(36,38,42,46)         -3.5198         estimate D2E/DX2                !
 ! D296  D(36,38,42,80)        159.9709         estimate D2E/DX2                !
 ! D297  D(78,38,42,46)       -160.3617         estimate D2E/DX2                !
 ! D298  D(78,38,42,80)          3.129          estimate D2E/DX2                !
 ! D299  D(36,38,78,76)         -5.8609         estimate D2E/DX2                !
 ! D300  D(36,38,78,81)       -144.2164         estimate D2E/DX2                !
 ! D301  D(42,38,78,76)        151.1637         estimate D2E/DX2                !
 ! D302  D(42,38,78,81)         12.8083         estimate D2E/DX2                !
 ! D303  D(37,39,43,2)        -158.7185         estimate D2E/DX2                !
 ! D304  D(37,39,43,13)         -5.0011         estimate D2E/DX2                !
 ! D305  D(79,39,43,2)          -5.4466         estimate D2E/DX2                !
 ! D306  D(79,39,43,13)        148.2708         estimate D2E/DX2                !
 ! D307  D(37,39,79,40)        138.6064         estimate D2E/DX2                !
 ! D308  D(37,39,79,82)         -1.3369         estimate D2E/DX2                !
 ! D309  D(43,39,79,40)        -14.7277         estimate D2E/DX2                !
 ! D310  D(43,39,79,82)       -154.671          estimate D2E/DX2                !
 ! D311  D(44,40,41,45)         -2.7618         estimate D2E/DX2                !
 ! D312  D(44,40,41,80)       -162.3274         estimate D2E/DX2                !
 ! D313  D(79,40,41,45)        151.5388         estimate D2E/DX2                !
 ! D314  D(79,40,41,80)         -8.0268         estimate D2E/DX2                !
 ! D315  D(41,40,44,2)         166.9152         estimate D2E/DX2                !
 ! D316  D(41,40,44,47)         -0.286          estimate D2E/DX2                !
 ! D317  D(79,40,44,2)          16.5358         estimate D2E/DX2                !
 ! D318  D(79,40,44,47)       -150.6655         estimate D2E/DX2                !
 ! D319  D(41,40,79,39)       -144.1152         estimate D2E/DX2                !
 ! D320  D(41,40,79,82)          1.3337         estimate D2E/DX2                !
 ! D321  D(44,40,79,39)          9.3            estimate D2E/DX2                !
 ! D322  D(44,40,79,82)        154.7489         estimate D2E/DX2                !
 ! D323  D(40,41,45,4)        -162.4496         estimate D2E/DX2                !
 ! D324  D(40,41,45,48)          3.8646         estimate D2E/DX2                !
 ! D325  D(80,41,45,4)          -6.192          estimate D2E/DX2                !
[...]
 Alpha virt. eigenvalues --    1.24881   1.25111   1.25364   1.25640   1.25965
 Alpha virt. eigenvalues --    1.26551   1.26598   1.26784   1.27176   1.27330
 Alpha virt. eigenvalues --    1.27770   1.28149   1.28194   1.28663   1.28814
 Alpha virt. eigenvalues --    1.29258   1.29463   1.29528   1.30085   1.30309
 Alpha virt. eigenvalues --    1.30606   1.31017   1.31544   1.31755   1.31840
 Alpha virt. eigenvalues --    1.32350   1.32443   1.33164   1.33479   1.34076
 Alpha virt. eigenvalues --    1.34320   1.34965   1.35281   1.35358   1.35653
 Alpha virt. eigenvalues --    1.35857   1.36216   1.36774   1.36937   1.37305
 Alpha virt. eigenvalues --    1.38169   1.39052   1.39490   1.40307   1.40842
 Alpha virt. eigenvalues --    1.40918   1.41593   1.41785   1.41864   1.42972
 Alpha virt. eigenvalues --    1.43749   1.44570   1.44958   1.45311   1.45693
 Alpha virt. eigenvalues --    1.46215   1.46876   1.47045   1.47667   1.47855
 Alpha virt. eigenvalues --    1.48721   1.49528   1.49876   1.50582   1.50816
 Alpha virt. eigenvalues --    1.51174   1.51801   1.52219   1.52645   1.52827
 Alpha virt. eigenvalues --    1.52960   1.53593   1.54160   1.55008   1.55405
 Alpha virt. eigenvalues --    1.55616   1.56025   1.56458   1.57403   1.58003
 Alpha virt. eigenvalues --    1.58747   1.59525   1.60416   1.60773   1.60939
 Alpha virt. eigenvalues --    1.61324   1.61912   1.62241   1.62657   1.62944
 Alpha virt. eigenvalues --    1.63482   1.63530   1.63843   1.63873   1.64663
 Alpha virt. eigenvalues --    1.64814   1.65151   1.65268   1.65368   1.65741
 Alpha virt. eigenvalues --    1.66141   1.66480   1.66737   1.66806   1.67117
 Alpha virt. eigenvalues --    1.67328   1.67585   1.67871   1.68080   1.68265
 Alpha virt. eigenvalues --    1.68286   1.68988   1.69297   1.69362   1.69835
 Alpha virt. eigenvalues --    1.70143   1.70279   1.70371   1.70556   1.71060
 Alpha virt. eigenvalues --    1.71101   1.71267   1.71421   1.71889   1.71976
 Alpha virt. eigenvalues --    1.72382   1.72597   1.72683   1.73022   1.73133
 Alpha virt. eigenvalues --    1.73560   1.73634   1.73912   1.74649   1.74782
 Alpha virt. eigenvalues --    1.74898   1.74965   1.75166   1.75619   1.75814
 Alpha virt. eigenvalues --    1.76081   1.76100   1.76354   1.76476   1.76719
 Alpha virt. eigenvalues --    1.77057   1.77304   1.77462   1.77583   1.77720
 Alpha virt. eigenvalues --    1.77873   1.78273   1.78520   1.78643   1.79393
 Alpha virt. eigenvalues --    1.79511   1.79807   1.80036   1.80281   1.80645
 Alpha virt. eigenvalues --    1.80956   1.81178   1.81468   1.82271   1.82561
 Alpha virt. eigenvalues --    1.82720   1.82874   1.83341   1.84081   1.84528
 Alpha virt. eigenvalues --    1.85129   1.85546   1.85641   1.86664   1.87304
 Alpha virt. eigenvalues --    1.87548   1.87705   1.87841   1.88522   1.88866
 Alpha virt. eigenvalues --    1.89172   1.89323   1.89699   1.90308   1.90751
 Alpha virt. eigenvalues --    1.90870   1.91888   1.92235   1.92641   1.93058
 Alpha virt. eigenvalues --    1.93485   1.93742   1.93969   1.94100   1.94367
 Alpha virt. eigenvalues --    1.94664   1.94981   1.95351   1.95779   1.95913
 Alpha virt. eigenvalues --    1.96306   1.96683   1.96773   1.97307   1.97706
 Alpha virt. eigenvalues --    1.97736   1.98303   1.98438   1.98795   1.98929
 Alpha virt. eigenvalues --    1.99020   1.99615   1.99947   2.00055   2.00153
 Alpha virt. eigenvalues --    2.00590   2.00791   2.00938   2.01572   2.01756
 Alpha virt. eigenvalues --    2.01894   2.02037   2.02261   2.02548   2.02779
 Alpha virt. eigenvalues --    2.03048   2.03388   2.03663   2.03831   2.04040
 Alpha virt. eigenvalues --    2.04388   2.04688   2.04962   2.05019   2.05433
 Alpha virt. eigenvalues --    2.05790   2.06113   2.06568   2.06762   2.07300
 Alpha virt. eigenvalues --    2.07823   2.08175   2.08500   2.09014   2.09406
 Alpha virt. eigenvalues --    2.09956   2.10368   2.10954   2.11048   2.11811
 Alpha virt. eigenvalues --    2.12297   2.12501   2.12952   2.13256   2.13795
 Alpha virt. eigenvalues --    2.13972   2.14484   2.14587   2.15263   2.15750
 Alpha virt. eigenvalues --    2.15949   2.17288   2.17860   2.17916   2.18461
 Alpha virt. eigenvalues --    2.18813   2.19046   2.19519   2.19798   2.20075
 Alpha virt. eigenvalues --    2.20833   2.21098   2.21204   2.21922   2.22322
 Alpha virt. eigenvalues --    2.22418   2.23060   2.23734   2.23771   2.23834
 Alpha virt. eigenvalues --    2.24283   2.24427   2.24691   2.25217   2.25839
 Alpha virt. eigenvalues --    2.26548   2.26624   2.26945   2.27343   2.27765
 Alpha virt. eigenvalues --    2.28091   2.28165   2.28434   2.29153   2.29454
 Alpha virt. eigenvalues --    2.29896   2.30588   2.30729   2.31397   2.31796
 Alpha virt. eigenvalues --    2.32068   2.32237   2.32642   2.33634   2.33742
 Alpha virt. eigenvalues --    2.35012   2.35704   2.36112   2.36380   2.37097
 Alpha virt. eigenvalues --    2.37978   2.38210   2.39244   2.39790   2.40408
 Alpha virt. eigenvalues --    2.40746   2.41119   2.41355   2.42035   2.42577
 Alpha virt. eigenvalues --    2.42766   2.43147   2.43616   2.44937   2.45066
 Alpha virt. eigenvalues --    2.45503   2.46028   2.46667   2.46845   2.47487
 Alpha virt. eigenvalues --    2.48378   2.48713   2.48897   2.49114   2.50294
 Alpha virt. eigenvalues --    2.50665   2.51444   2.52129   2.52326   2.52570
 Alpha virt. eigenvalues --    2.53011   2.53136   2.53883   2.53989   2.54303
 Alpha virt. eigenvalues --    2.54817   2.55109   2.55319   2.55662   2.55942
 Alpha virt. eigenvalues --    2.56250   2.57006   2.57285   2.57385   2.57480
 Alpha virt. eigenvalues --    2.57884   2.58563   2.58656   2.58907   2.59249
 Alpha virt. eigenvalues --    2.59336   2.59661   2.60186   2.60652   2.60907
 Alpha virt. eigenvalues --    2.61069   2.61481   2.61823   2.62240   2.62520
 Alpha virt. eigenvalues --    2.63098   2.63389   2.63889   2.63991   2.64459
 Alpha virt. eigenvalues --    2.64827   2.65202   2.65562   2.65892   2.66053
 Alpha virt. eigenvalues --    2.66349   2.66720   2.66914   2.67326   2.67469
 Alpha virt. eigenvalues --    2.68170   2.68503   2.68696   2.69016   2.69279
 Alpha virt. eigenvalues --    2.69640   2.69916   2.70480   2.71085   2.71334
 Alpha virt. eigenvalues --    2.71820   2.72444   2.72685   2.72830   2.73486
 Alpha virt. eigenvalues --    2.73710   2.74481   2.74849   2.74948   2.75471
 Alpha virt. eigenvalues --    2.75617   2.76589   2.76887   2.77427   2.77785
 Alpha virt. eigenvalues --    2.78469   2.78962   2.79516   2.79837   2.80247
 Alpha virt. eigenvalues --    2.80850   2.81313   2.81482   2.81971   2.82301
 Alpha virt. eigenvalues --    2.82569   2.82917   2.83464   2.83562   2.83714
 Alpha virt. eigenvalues --    2.84792   2.85627   2.86470   2.86619   2.87183
 Alpha virt. eigenvalues --    2.87627   2.88250   2.88519   2.88959   2.89314
 Alpha virt. eigenvalues --    2.89731   2.90061   2.90223   2.90515   2.91469
 Alpha virt. eigenvalues --    2.91569   2.91865   2.92284   2.92400   2.93534
 Alpha virt. eigenvalues --    2.93688   2.94229   2.94773   2.95521   2.95764
 Alpha virt. eigenvalues --    2.96250   2.96700   2.97448   2.97633   2.99305
 Alpha virt. eigenvalues --    2.99804   3.01502   3.02741   3.04010   3.04384
 Alpha virt. eigenvalues --    3.04909   3.05143   3.07082   3.09107   3.11073
 Alpha virt. eigenvalues --    3.11475   3.14182   3.15027   3.16140   3.17379
 Alpha virt. eigenvalues --    3.18379   3.19500   3.20594   3.22719   3.23126
 Alpha virt. eigenvalues --    3.25946   3.26970   3.27564   3.28790   3.30889
 Alpha virt. eigenvalues --    3.32743   3.33969   3.37060   3.37607   3.37904
 Alpha virt. eigenvalues --    3.40830   3.41040   3.44188   3.45211   3.47876
 Alpha virt. eigenvalues --    3.48978   3.51987   3.53321   3.54105   3.60051
 Alpha virt. eigenvalues --    3.60822   3.99630   4.01509   4.01968   4.02201
 Alpha virt. eigenvalues --    4.03112   4.04373   4.04560   4.04762   4.05307
 Alpha virt. eigenvalues --    4.05647   4.06708   4.07020   4.07284   4.08110
 Alpha virt. eigenvalues --    4.08704   4.09408   4.09643   4.10576   4.11145
 Alpha virt. eigenvalues --    4.11723   4.12170   4.13528   4.14824   4.16212
 Alpha virt. eigenvalues --    4.16454   4.17430   4.17823   4.19177   4.20088
 Alpha virt. eigenvalues --    4.20571   4.20887   4.21890   4.22488   4.23281
 Alpha virt. eigenvalues --    4.24217   4.25709   4.26314   4.27001   4.27627
 Alpha virt. eigenvalues --    4.27715   4.28292   4.29082   4.29663   4.30663
 Alpha virt. eigenvalues --    4.31343   4.33562   4.34508   4.35207   4.35624
 Alpha virt. eigenvalues --    4.37817   4.38909   4.40269   4.40646   4.41941
 Alpha virt. eigenvalues --    4.44557   4.45596   4.47602   4.48040   4.48531
 Alpha virt. eigenvalues --    4.48804   4.51105   4.53872   4.54214   4.57031
 Alpha virt. eigenvalues --    4.57730   4.58974   4.59468   4.59922   4.64928
 Alpha virt. eigenvalues --    4.65239   4.66240   4.67803   4.68863   4.74503
 Alpha virt. eigenvalues --    4.78169   4.79567   4.81869   4.82044   4.86085
 Alpha virt. eigenvalues --    4.87920   4.91390   4.93707   4.97614   5.01780
 Alpha virt. eigenvalues --    5.02916   5.06721   5.13488   5.14963   5.23215
 Alpha virt. eigenvalues --    5.26434
          Condensed to atoms (all electrons):
 Mulliken charges:
               1
     1  C   -0.343838
     2  C   -0.367169
     3  C   -0.020017
     4  C   -0.383096
     5  C    0.052216
     6  C    0.089323
     7  C   -0.017062
     8  C    0.088924
     9  C    0.063653
    10  C    0.091740
    11  C    0.087502
    12  C    0.047527
    13  C   -0.006158
    14  C    0.004867
    15  C    0.037638
    16  C    0.008084
    17  C    0.096105
    18  C    0.049590
    19  C    0.081104
    20  C    0.048983
    21  C   -0.041123
    22  C   -0.018622
    23  C   -0.001640
    24  C   -0.012933
    25  C    0.080691
    26  C   -0.010654
    27  C    0.010172
    28  C   -0.019650
    29  C    0.019906
    30  C   -0.018513
    31  C   -0.020849
    32  C   -0.009755
    33  C   -0.019990
    34  C   -0.021284
    35  C    0.038008
    36  C    0.039772
    37  C    0.041058
    38  C    0.071834
    39  C    0.063442
    40  C    0.038316
    41  C    0.081618
    42  C    0.118846
    43  C    0.046784
    44  C    0.124462
    45  C    0.153785
    46  C    0.075692
    47  C    0.128319
    48  C    0.118697
    49  C   -0.379622
    50  C   -0.375867
    51  C    0.087227
    52  C    0.087672
    53  C    0.004138
    54  C    0.005582
    55  C    0.007229
    56  C    0.008282
    57  C   -0.012319
    58  C   -0.020720
    59  C   -0.010622
    60  C   -0.011937
    61  C   -0.018309
    62  C   -0.018542
    63  C    0.039769
    64  C    0.037737
    65  C    0.029158
    66  C    0.042150
    67  C    0.044891
    68  C    0.037334
    69  C   -0.019308
    70  C   -0.019242
    71  C   -0.006637
    72  C   -0.003444
    73  C   -0.003896
    74  C   -0.002527
    75  C   -0.001046
    76  C   -0.000648
    77  C   -0.017202
    78  C   -0.043416
    79  C   -0.006139
    80  C   -0.369691
    81  C    0.007959
    82  C    0.074004
    83  C    0.047219
    84  C    0.048603
    85  Cl   0.008647
    86  Cl   0.003823
    87  Cl  -0.009234
    88  Cl   0.009982
    89  Cl  -0.039595
    90  Cl  -0.007750
 Sum of Mulliken charges =  -0.00000
 Mulliken charges with hydrogens summed into heavy atoms:
               1
     1  C   -0.343838
     2  C   -0.367169
     3  C   -0.020017
     4  C   -0.383096
     5  C    0.052216
     6  C    0.089323
     7  C   -0.017062
     8  C    0.088924
     9  C    0.063653
    10  C    0.091740
    11  C    0.087502
    12  C    0.047527
    13  C   -0.006158
    14  C    0.004867
    15  C    0.037638
    16  C    0.008084
    17  C    0.096105
    18  C    0.049590
    19  C    0.081104
    20  C    0.048983
    21  C   -0.041123
    22  C   -0.018622
    23  C   -0.001640
    24  C   -0.012933
    25  C    0.080691
    26  C   -0.010654
    27  C    0.010172
    28  C   -0.019650
    29  C    0.019906
    30  C   -0.018513
    31  C   -0.020849
    32  C   -0.009755
    33  C   -0.019990
    34  C   -0.021284
    35  C    0.038008
    36  C    0.039772
    37  C    0.041058
    38  C    0.071834
    39  C    0.063442
    40  C    0.038316
    41  C    0.081618
    42  C    0.118846
    43  C    0.046784
    44  C    0.124462
    45  C    0.153785
    46  C    0.075692
    47  C    0.128319
    48  C    0.118697
    49  C   -0.379622
    50  C   -0.375867
    51  C    0.087227
    52  C    0.087672
    53  C    0.004138
    54  C    0.005582
    55  C    0.007229
    56  C    0.008282
    57  C   -0.012319
    58  C   -0.020720
    59  C   -0.010622
    60  C   -0.011937
    61  C   -0.018309
    62  C   -0.018542
    63  C    0.039769
    64  C    0.037737
    65  C    0.029158
    66  C    0.042150
    67  C    0.044891
    68  C    0.037334
    69  C   -0.019308
    70  C   -0.019242
    71  C   -0.006637
    72  C   -0.003444
    73  C   -0.003896
    74  C   -0.002527
    75  C   -0.001046
    76  C   -0.000648
    77  C   -0.017202
    78  C   -0.043416
    79  C   -0.006139
    80  C   -0.369691
    81  C    0.007959
    82  C    0.074004
    83  C    0.047219
    84  C    0.048603
    85  Cl   0.008647
    86  Cl   0.003823
    87  Cl  -0.009234
    88  Cl   0.009982
    89  Cl  -0.039595
    90  Cl  -0.007750
 Electronic spatial extent (au):  <R**2>=          46580.9764
 Charge=             -0.0000 electrons
 Dipole moment (field-independent basis, Debye):
    X=              4.1978    Y=             -3.9468    Z=              2.4406  Tot=              6.2574
 Quadrupole moment (field-independent basis, Debye-Ang):
   XX=           -561.0978   YY=           -544.6953   ZZ=           -530.2407
   XY=             -4.2043   XZ=             -5.4369   YZ=              4.1305
 Traceless Quadrupole moment (field-independent basis, Debye-Ang):
   XX=            -15.7532   YY=              0.6493   ZZ=             15.1039
   XY=             -4.2043   XZ=             -5.4369   YZ=              4.1305
 Octapole moment (field-independent basis, Debye-Ang**2):
  XXX=            -17.0892  YYY=            -17.1552  ZZZ=             -9.9625  XYY=            -27.0446
  XXY=            -32.5381  XXZ=              3.4346  XZZ=             -4.1315  YZZ=             13.3770
  YYZ=             20.3145  XYZ=             21.2341
 Hexadecapole moment (field-independent basis, Debye-Ang**3):
 XXXX=         -25722.8103 YYYY=         -22932.4440 ZZZZ=         -19255.3831 XXXY=           -209.9405
 XXXZ=             95.3278 YYYX=              9.0194 YYYZ=             55.5066 ZZZX=            -57.3157
 ZZZY=            -14.4119 XXYY=          -8252.0563 XXZZ=          -7456.3813 YYZZ=          -7047.4281
 XXYZ=            -45.4576 YYXZ=              2.6054 ZZXY=              5.2228
 N-N= 1.879681705001D+04 E-N=-5.155720227340D+04  KE= 5.923810869687D+03
 No NMR shielding tensors so no spin-rotation constants.
 Leave Link  601 at Mon Jun 27 02:46:33 2022, MaxMem=  1342177280 cpu:              24.0 elap:               1.2
 (Enter /home/mkliu/g16/l9999.exe)
 1\1\GINC-NODE04\FOpt\RB3LYP\6-31G(d,p)\C84Cl6\MKLIU\27-Jun-2022\0\\#P 
 opt b3lyp/6-31G(d, p) empiricaldispersion=GD3\\force\\0,1\C,8.19731576
 12,18.6222735653,10.5957113238\C,12.4555834578,19.9969811169,8.9371242
 781\C,8.2494442622,26.8997557542,10.5406356025\C,12.4801074408,25.7551
 716292,8.9153108791\C,7.9346674897,18.8959067189,9.1189550568\C,11.867
 2218331,19.5557502611,10.2515559649\C,7.9314567338,26.8621108056,9.155
 0046317\C,11.8730957293,26.1920156657,10.225926713\C,8.9209940354,19.0
 837131037,8.1431499584\C,12.1393388229,20.1980715504,11.4195210134\C,1
 2.1384524579,25.5614048379,11.3978993771\C,8.9317391535,26.6652985092,
 8.1583191991\C,10.2801036419,19.0557925083,8.6124244838\C,10.267157519
 6,26.6923706163,8.6207190107\C,10.5864573933,18.961784517,10.045484101
 9\C,10.5933885969,26.7983824948,10.0055463926\C,9.608069324,18.9484003
 637,11.026090681\C,9.5859895173,26.809470351,11.0094433287\C,9.8674987
 238,19.639211486,12.2670864983\C,9.8624582397,26.1184275294,12.2626981
 001\C,8.786675179,20.223755838,12.9923985636\C,8.7829668085,25.5208862
 345,12.9749551008\C,7.4464695554,20.2138063467,12.40333357\C,7.4414918
 813,25.5383872094,12.4117923967\C,7.1793351067,19.5400461999,11.251237
 7249\C,7.1799628921,26.2153074753,11.2497777756\C,6.310829437,20.11982
 07675,10.2888312177\C,6.2569980333,25.6640853842,10.298221685\C,6.7012
 123284,19.5837343589,9.0091912315\C,6.6514927376,26.2013133983,9.02346
 07864\C,6.3690162574,20.2530521304,7.8549831608\C,6.3423428033,25.5349
 934933,7.8750916546\C,7.2877924518,20.295226352,6.7574254171\C,7.28372
 59059,25.482062742,6.7667286928\C,8.6214683995,19.8378665239,6.9279920
 644\C,8.6265517946,25.9127645963,6.9474557992\C,9.6891452999,20.578275
 0248,6.2617589742\C,9.6911019557,25.1622509552,6.2860219029\C,11.02247
 45722,20.5662827677,6.8338858063\C,12.6722881155,22.1766057234,7.80439
 48012\C,12.7232228507,23.5770269375,7.7867422304\C,11.037529556,25.186
 7689226,6.8552641207\C,11.2857318015,19.7516113364,7.9789913009\C,12.8
 479679589,21.4614188533,8.985727359\C,12.8862196504,24.2915307117,8.96
 23876023\C,11.3025020728,25.9614122609,7.9505347155\C,13.0800104086,22
 .1697949954,10.1851536158\C,13.0876245208,23.5871090466,10.1776962213\
 C,13.0714886978,21.3958904075,11.5083026383\C,13.0690570186,24.3658452
 798,11.4956980205\C,12.4056949449,22.2049160216,12.6019173914\C,12.402
 0024739,23.5620080056,12.5935765546\C,11.1372111902,20.2605573739,12.4
 340658376\C,11.1320009908,25.5017485965,12.4224650096\C,11.2921909523,
 21.4887188648,13.1551849024\C,11.2889521751,24.2799231007,13.144676190
 5\C,8.9374423479,21.4477243547,13.6757348176\C,8.9347313254,24.3010595
 269,13.6815487645\C,7.6929931998,22.1922041981,13.527688811\C,7.691097
 8867,23.5597212588,13.5339263553\C,6.8165989158,21.4836209318,12.63849
 00395\C,6.8043627964,24.274752696,12.6533499323\C,6.0534078187,22.1523
 372466,11.6405980033\C,6.0439873202,23.6130126176,11.6483289203\C,5.77
 74418619,21.4330387959,10.4091165798\C,5.7478515875,24.3425229405,10.4
 186111084\C,5.443070417,22.1576770367,9.1794912461\C,5.4289403392,23.6
 180777184,9.1851023594\C,5.6344444972,21.4972993492,7.9352346403\C,5.6
 187816708,24.2892858192,7.9428928812\C,5.9291736191,22.208159236,6.724
 5915936\C,5.9267863421,23.5873134368,6.7270191564\C,6.9688871509,21.48
 13464354,6.0057639907\C,6.9633774771,24.3197375943,6.0136592463\C,7.97
 4764091,22.1707726423,5.3611394419\C,7.980565661,23.6267642572,5.35609
 12578\C,9.3352718455,21.7070059138,5.4649581269\C,9.3293115612,24.0712
 026744,5.4567902709\C,11.8374958794,21.7103032045,6.6905112682\C,12.05
 56489735,24.1097588811,6.520592165\C,10.1719838707,22.868045517,5.4034
 245452\C,11.4150841073,22.8491890448,5.9851724614\C,10.1828768556,22.1
 522913801,13.7323167751\C,10.1773782609,23.6073483174,13.7270820993\Cl
 ,14.7919459907,20.8998407212,11.9472866846\Cl,14.7878408354,24.8694020
 384,11.9494451323\Cl,13.9268449498,18.9774069918,8.4439078593\Cl,13.91
 57209786,26.8161472271,8.4458399098\Cl,7.8199869766,16.8270417472,10.9
 96613008\Cl,13.3086709095,24.7599521227,5.3142459704\\Version=ES64L-G1
 6RevA.03\State=1-A\HF=-5962.226584\RMSD=5.675e-09\RMSF=7.844e-05\Dipol
 e=-2.3541321,0.7138112,0.0963174\Quadrupole=-7.7266057,-3.1696109,10.8
 962166,-5.5507133,3.2411814,5.6339352\PG=C01 [X(C84Cl6)]\\@


 WE LEARN WISDOM FROM FAILURE MUCH MORE THAN FROM SUCCESS.
 WE DISCOVER WHAT WILL DO BY FINDING OUT WHAT WILL NOT DO...
 AND HE WHO NEVER MADE A MISTAKE NEVER MADE A DISCOVERY
 Job cpu time:       1 days  1 hours 39 minutes 49.3 seconds.
 Elapsed time:       0 days  1 hours  4 minutes 15.3 seconds.
 File lengths (MBytes):  RWF=   1161 Int=      0 D2E=      0 Chk=    146 Scr=      1
 Normal termination of Gaussian 16 at Mon Jun 27 02:46:35 2022.
