 Entering Gaussian System, Link 0=g16
 Input=6_addons_C84_14_Cl22_rank_8.gjf
 Output=6_addons_C84_14_Cl22_rank_8.log
 Initial command:
 /home/mkliu/g16/l1.exe "/data/scratch/Gau-100814.inp" -scrdir="/data/scratch/"
 Entering Link 1 = /home/mkliu/g16/l1.exe PID=    100815.
  
 Copyright (c) 1988,1990,1992,1993,1995,1998,2003,2009,2016,
            Gaussian, Inc.  All Rights Reserved.
  
 This is part of the Gaussian(R) 16 program.  It is based on
 the Gaussian(R) 09 system (copyright 2009, Gaussian, Inc.),
 the Gaussian(R) 03 system (copyright 2003, Gaussian, Inc.),
 the Gaussian(R) 98 system (copyright 1998, Gaussian, Inc.),
 the Gaussian(R) 94 system (copyright 1995, Gaussian, Inc.),
 the Gaussian 92(TM) system (copyright 1992, Gaussian, Inc.),
 the Gaussian 90(TM) system (copyright 1990, Gaussian, Inc.),
 the Gaussian 88(TM) system (copyright 1988, Gaussian, Inc.),
 the Gaussian 86(TM) system (copyright 1986, Carnegie Mellon
 University), and the Gaussian 82(TM) system (copyright 1983,
 Carnegie Mellon University). Gaussian is a federally registered
 trademark of Gaussian, Inc.
  
 This software contains proprietary and confidential information,
 including trade secrets, belonging to Gaussian, Inc.
  
 This software is provided under written license and may be
 used, copied, transmitted, or stored only in accord with that
 written license.
  
 The following legend is applicable only to US Government
 contracts under FAR:
  
                    RESTRICTED RIGHTS LEGEND
  
 Use, reproduction and disclosure by the US Government is
 subject to restrictions as set forth in subparagraphs (a)
 and (c) of the Commercial Computer Software - Restricted
 Rights clause in FAR 52.227-19.
  
 Gaussian, Inc.
 340 Quinnipiac St., Bldg. 40, Wallingford CT 06492
  
  
 ---------------------------------------------------------------
 Warning -- This program may not be used in any manner that
 competes with the business of Gaussian, Inc. or will provide
 assistance to any competitor of Gaussian, Inc.  The licensee
 of this program is prohibited from giving any competitor of
 Gaussian, Inc. access to this program.  By using this program,
 the user acknowledges that Gaussian, Inc. is engaged in the
 business of creating and licensing software in the field of
 computational chemistry and represents and warrants to the
 licensee that it is not a competitor of Gaussian, Inc. and that
 it will not use this program in any manner prohibited above.
 ---------------------------------------------------------------
  

 Cite this work as:
 Gaussian 16, Revision A.03,
 M. J. Frisch, G. W. Trucks, H. B. Schlegel, G. E. Scuseria, 
 M. A. Robb, J. R. Cheeseman, G. Scalmani, V. Barone, 
 G. A. Petersson, H. Nakatsuji, X. Li, M. Caricato, A. V. Marenich, 
 J. Bloino, B. G. Janesko, R. Gomperts, B. Mennucci, H. P. Hratchian, 
 J. V. Ortiz, A. F. Izmaylov, J. L. Sonnenberg, D. Williams-Young, 
 F. Ding, F. Lipparini, F. Egidi, J. Goings, B. Peng, A. Petrone, 
 T. Henderson, D. Ranasinghe, V. G. Zakrzewski, J. Gao, N. Rega, 
 G. Zheng, W. Liang, M. Hada, M. Ehara, K. Toyota, R. Fukuda, 
 J. Hasegawa, M. Ishida, T. Nakajima, Y. Honda, O. Kitao, H. Nakai, 
 T. Vreven, K. Throssell, J. A. Montgomery, Jr., J. E. Peralta, 
 F. Ogliaro, M. J. Bearpark, J. J. Heyd, E. N. Brothers, K. N. Kudin, 
 V. N. Staroverov, T. A. Keith, R. Kobayashi, J. Normand, 
 K. Raghavachari, A. P. Rendell, J. C. Burant, S. S. Iyengar, 
 J. Tomasi, M. Cossi, J. M. Millam, M. Klene, C. Adamo, R. Cammi, 
 J. W. Ochterski, R. L. Martin, K. Morokuma, O. Farkas, 
 J. B. Foresman, and D. J. Fox, Gaussian, Inc., Wallingford CT, 2016.
 
 ******************************************
 Gaussian 16:  ES64L-G16RevA.03 25-Dec-2016
                26-Jun-2022 
 ******************************************
 %mem=10GB
 %chk=6_addons_C84_14_Cl22_rank_8.chk
 %nprocshared=24
 Will use up to   24 processors via shared memory.
 ------------------------------------------------
 #P opt b3lyp/6-31G(d, p) empiricaldispersion=GD3
 ------------------------------------------------
 1/18=20,19=15,26=3,38=1/1,3;
 2/9=110,12=2,17=6,18=5,40=1/2;
 3/5=1,6=6,7=101,11=2,25=1,30=1,71=1,74=-5,124=31/1,2,3;
 4//1;
 5/5=2,38=5/2;
 6/7=2,8=2,9=2,10=2,28=1/1;
 7//1,2,3,16;
 1/18=20,19=15,26=3/3(2);
 2/9=110/2;
 99//99;
 2/9=110/2;
 3/5=1,6=6,7=101,11=2,25=1,30=1,71=1,74=-5,124=31/1,2,3;
 4/5=5,16=3,69=1/1;
 5/5=2,38=5/2;
 7//1,2,3,16;
 1/18=20,19=15,26=3/3(-5);
 2/9=110/2;
 6/7=2,8=2,9=2,10=2,19=2,28=1/1;
 99/9=1/99;
 Leave Link    1 at Sun Jun 26 16:31:38 2022, MaxMem=  1342177280 cpu:               0.6 elap:               0.0
 (Enter /home/mkliu/g16/l101.exe)
 -----
 force
 -----
 Symbolic Z-matrix:
 Charge =  0 Multiplicity = 1
 C                     8.28616   18.91228   10.53539 
 C                     12.4976   20.0047   8.90981 
 C                     8.28113   26.86251   10.5401 
 C                     12.28412   25.58452   8.97542 
 C                     7.96894   18.97258   9.15252 
 C                     11.88848   19.56838   10.20926 
 C                     7.96892   26.79732   9.15505 
 C                     11.86095   26.17586   10.21213 
 C                     8.96727   19.14805   8.16695 
 C                     12.1337   20.23068   11.3717 
 C                     12.1282   25.53193   11.38975 
 C                     8.96917   26.64007   8.16492 
 C                     10.29561   19.09193   8.62853 
 C                     10.29151   26.71827   8.63491 
 C                     10.61781   18.96198   10.00324 
 C                     10.60452   26.84213   10.01097 
 C                     9.61967   18.96475   11.00533 
 C                     9.61191   26.82129   11.01512 
 C                     9.89339   19.63096   12.25134 
 C                     9.8891    26.143    12.26257 
 C                     8.82049   20.23822   12.93958 
 C                     8.81704   25.52762   12.94212 
 C                     7.49236   20.21277   12.38788 
 C                     7.48641   25.55049   12.3888 
 C                     7.22165   19.52462   11.24808 
 C                     7.21771   26.2355   11.24985 
 C                     6.1083    19.95366   10.33302 
 C                     6.10928   25.80273   10.33179 
 C                     6.6819    19.55921   9.00841 
 C                     6.68716   26.19826   9.00983 
 C                     6.37963   20.2296   7.87652 
 C                     6.38836   25.52692   7.87838 
 C                     7.34233   20.33656   6.83054 
 C                     7.35398   25.42378   6.83378 
 C                     8.6758    19.89247   6.98238 
 C                     8.67766   25.88576   6.9755 
 C                     9.73521   20.61204   6.31594 
 C                     9.73629   25.15958   6.30412 
 C                     11.06904   20.57582   6.86905 
 C                     12.77804   22.1481   7.77594 
 C                     12.73267   23.57677   7.77968 
 C                     11.06107   25.16303   6.86977 
 C                     11.3327   19.80412   7.96176 
 C                     12.93009   21.45041   8.93451 
 C                     12.91235   24.3156   8.95955 
 C                     11.33479   25.95633   7.99333 
 C                     13.14562   22.16227   10.1785 
 C                     13.15427   23.60551   10.18613 
 C                     12.84285   21.4959   11.37667 
 C                     12.83369   24.27631   11.38772 
 C                     12.37908   22.1967   12.52159 
 C                     12.379    23.57415   12.52929 
 C                     11.15121   20.25057   12.42295 
 C                     11.14879   25.52604   12.44831 
 C                     11.2985   21.46834   13.13588 
 C                     11.29421   24.30301   13.15002 
 C                     8.96926   21.4645   13.6373 
 C                     8.96549   24.30043   13.63671 
 C                     7.73071   22.18936   13.48829 
 C                     7.72836   23.57232   13.48797 
 C                     6.86133   21.48876   12.62854 
 C                     6.86022   24.27041   12.62664 
 C                     6.17435   22.16026   11.58372 
 C                     6.17295   23.59705   11.5832 
 C                     5.88685   21.4654   10.37072 
 C                     5.88629   24.29178   10.37053 
 C                     5.60188   22.16507   9.20616 
 C                     5.60222   23.59224   9.20588 
 C                     5.43909   21.40434   7.88832 
 C                     5.44539   24.35423   7.88913 
 C                     5.96427   22.20054   6.72938 
 C                     5.96837   23.55717   6.73124 
 C                     7.02232   21.49249   6.07924 
 C                     7.03279   24.26009   6.08447 
 C                     8.04117   22.15766   5.40826 
 C                     8.04253   23.58966   5.41585 
 C                     9.37964   21.69532   5.49399 
 C                     9.38669   24.04723   5.51943 
 C                     12.09819   21.62527   6.52725 
 C                     11.88761   24.01752   6.72876 
 C                     10.22331   22.87664   5.44125 
 C                     11.46009   22.8757   6.00522 
 C                     10.19817   22.15343   13.69724 
 C                     10.19653   23.61201   13.70232 
 Cl                    4.55061   19.12934   10.7211 
 Cl                    3.70622   20.94384   7.70407 
 Cl                    3.71317   24.82022   7.69926 
 Cl                    4.54949   26.62702   10.71589 
 Cl                    13.30377   20.93954   5.3578 
 Cl                    13.90389   18.95515   8.44523 
 
 ITRead=  0  0  0  0  0  0  0  0  0  0  0  0  0  0  0  0  0  0  0  0
 ITRead=  0  0  0  0  0  0  0  0  0  0  0  0  0  0  0  0  0  0  0  0
 ITRead=  0  0  0  0  0  0  0  0  0  0  0  0  0  0  0  0  0  0  0  0
 ITRead=  0  0  0  0  0  0  0  0  0  0  0  0  0  0  0  0  0  0  0  0
 ITRead=  0  0  0  0  0  0  0  0  0  0
 MicOpt= -1 -1 -1 -1 -1 -1 -1 -1 -1 -1 -1 -1 -1 -1 -1 -1 -1 -1 -1 -1
 MicOpt= -1 -1 -1 -1 -1 -1 -1 -1 -1 -1 -1 -1 -1 -1 -1 -1 -1 -1 -1 -1
 MicOpt= -1 -1 -1 -1 -1 -1 -1 -1 -1 -1 -1 -1 -1 -1 -1 -1 -1 -1 -1 -1
 MicOpt= -1 -1 -1 -1 -1 -1 -1 -1 -1 -1 -1 -1 -1 -1 -1 -1 -1 -1 -1 -1
 MicOpt= -1 -1 -1 -1 -1 -1 -1 -1 -1 -1
 NAtoms=     90 NQM=       90 NQMF=       0 NMMI=      0 NMMIF=      0
                NMic=       0 NMicF=      0.
                    Isotopes and Nuclear Properties:
 (Nuclear quadrupole moments (NQMom) in fm**2, nuclear magnetic moments (NMagM)
  in nuclear magnetons)

  Atom         1           2           3           4           5           6           7           8           9          10
 IAtWgt=          12          12          12          12          12          12          12          12          12          12
 AtmWgt=  12.0000000  12.0000000  12.0000000  12.0000000  12.0000000  12.0000000  12.0000000  12.0000000  12.0000000  12.0000000
 NucSpn=           0           0           0           0           0           0           0           0           0           0
 AtZEff=  -0.0000000  -0.0000000  -0.0000000  -0.0000000  -0.0000000  -0.0000000  -0.0000000  -0.0000000  -0.0000000  -0.0000000
 NQMom=    0.0000000   0.0000000   0.0000000   0.0000000   0.0000000   0.0000000   0.0000000   0.0000000   0.0000000   0.0000000
 NMagM=    0.0000000   0.0000000   0.0000000   0.0000000   0.0000000   0.0000000   0.0000000   0.0000000   0.0000000   0.0000000
 AtZNuc=   6.0000000   6.0000000   6.0000000   6.0000000   6.0000000   6.0000000   6.0000000   6.0000000   6.0000000   6.0000000

  Atom        11          12          13          14          15          16          17          18          19          20
 IAtWgt=          12          12          12          12          12          12          12          12          12          12
 AtmWgt=  12.0000000  12.0000000  12.0000000  12.0000000  12.0000000  12.0000000  12.0000000  12.0000000  12.0000000  12.0000000
 NucSpn=           0           0           0           0           0           0           0           0           0           0
 AtZEff=  -0.0000000  -0.0000000  -0.0000000  -0.0000000  -0.0000000  -0.0000000  -0.0000000  -0.0000000  -0.0000000  -0.0000000
 NQMom=    0.0000000   0.0000000   0.0000000   0.0000000   0.0000000   0.0000000   0.0000000   0.0000000   0.0000000   0.0000000
 NMagM=    0.0000000   0.0000000   0.0000000   0.0000000   0.0000000   0.0000000   0.0000000   0.0000000   0.0000000   0.0000000
 AtZNuc=   6.0000000   6.0000000   6.0000000   6.0000000   6.0000000   6.0000000   6.0000000   6.0000000   6.0000000   6.0000000

  Atom        21          22          23          24          25          26          27          28          29          30
 IAtWgt=          12          12          12          12          12          12          12          12          12          12
 AtmWgt=  12.0000000  12.0000000  12.0000000  12.0000000  12.0000000  12.0000000  12.0000000  12.0000000  12.0000000  12.0000000
 NucSpn=           0           0           0           0           0           0           0           0           0           0
 AtZEff=  -0.0000000  -0.0000000  -0.0000000  -0.0000000  -0.0000000  -0.0000000  -0.0000000  -0.0000000  -0.0000000  -0.0000000
 NQMom=    0.0000000   0.0000000   0.0000000   0.0000000   0.0000000   0.0000000   0.0000000   0.0000000   0.0000000   0.0000000
 NMagM=    0.0000000   0.0000000   0.0000000   0.0000000   0.0000000   0.0000000   0.0000000   0.0000000   0.0000000   0.0000000
 AtZNuc=   6.0000000   6.0000000   6.0000000   6.0000000   6.0000000   6.0000000   6.0000000   6.0000000   6.0000000   6.0000000

  Atom        31          32          33          34          35          36          37          38          39          40
 IAtWgt=          12          12          12          12          12          12          12          12          12          12
 AtmWgt=  12.0000000  12.0000000  12.0000000  12.0000000  12.0000000  12.0000000  12.0000000  12.0000000  12.0000000  12.0000000
 NucSpn=           0           0           0           0           0           0           0           0           0           0
 AtZEff=  -0.0000000  -0.0000000  -0.0000000  -0.0000000  -0.0000000  -0.0000000  -0.0000000  -0.0000000  -0.0000000  -0.0000000
 NQMom=    0.0000000   0.0000000   0.0000000   0.0000000   0.0000000   0.0000000   0.0000000   0.0000000   0.0000000   0.0000000
 NMagM=    0.0000000   0.0000000   0.0000000   0.0000000   0.0000000   0.0000000   0.0000000   0.0000000   0.0000000   0.0000000
 AtZNuc=   6.0000000   6.0000000   6.0000000   6.0000000   6.0000000   6.0000000   6.0000000   6.0000000   6.0000000   6.0000000

  Atom        41          42          43          44          45          46          47          48          49          50
 IAtWgt=          12          12          12          12          12          12          12          12          12          12
 AtmWgt=  12.0000000  12.0000000  12.0000000  12.0000000  12.0000000  12.0000000  12.0000000  12.0000000  12.0000000  12.0000000
 NucSpn=           0           0           0           0           0           0           0           0           0           0
 AtZEff=  -0.0000000  -0.0000000  -0.0000000  -0.0000000  -0.0000000  -0.0000000  -0.0000000  -0.0000000  -0.0000000  -0.0000000
 NQMom=    0.0000000   0.0000000   0.0000000   0.0000000   0.0000000   0.0000000   0.0000000   0.0000000   0.0000000   0.0000000
 NMagM=    0.0000000   0.0000000   0.0000000   0.0000000   0.0000000   0.0000000   0.0000000   0.0000000   0.0000000   0.0000000
 AtZNuc=   6.0000000   6.0000000   6.0000000   6.0000000   6.0000000   6.0000000   6.0000000   6.0000000   6.0000000   6.0000000

  Atom        51          52          53          54          55          56          57          58          59          60
 IAtWgt=          12          12          12          12          12          12          12          12          12          12
 AtmWgt=  12.0000000  12.0000000  12.0000000  12.0000000  12.0000000  12.0000000  12.0000000  12.0000000  12.0000000  12.0000000
 NucSpn=           0           0           0           0           0           0           0           0           0           0
 AtZEff=  -0.0000000  -0.0000000  -0.0000000  -0.0000000  -0.0000000  -0.0000000  -0.0000000  -0.0000000  -0.0000000  -0.0000000
 NQMom=    0.0000000   0.0000000   0.0000000   0.0000000   0.0000000   0.0000000   0.0000000   0.0000000   0.0000000   0.0000000
 NMagM=    0.0000000   0.0000000   0.0000000   0.0000000   0.0000000   0.0000000   0.0000000   0.0000000   0.0000000   0.0000000
 AtZNuc=   6.0000000   6.0000000   6.0000000   6.0000000   6.0000000   6.0000000   6.0000000   6.0000000   6.0000000   6.0000000

  Atom        61          62          63          64          65          66          67          68          69          70
 IAtWgt=          12          12          12          12          12          12          12          12          12          12
 AtmWgt=  12.0000000  12.0000000  12.0000000  12.0000000  12.0000000  12.0000000  12.0000000  12.0000000  12.0000000  12.0000000
 NucSpn=           0           0           0           0           0           0           0           0           0           0
 AtZEff=  -0.0000000  -0.0000000  -0.0000000  -0.0000000  -0.0000000  -0.0000000  -0.0000000  -0.0000000  -0.0000000  -0.0000000
 NQMom=    0.0000000   0.0000000   0.0000000   0.0000000   0.0000000   0.0000000   0.0000000   0.0000000   0.0000000   0.0000000
 NMagM=    0.0000000   0.0000000   0.0000000   0.0000000   0.0000000   0.0000000   0.0000000   0.0000000   0.0000000   0.0000000
 AtZNuc=   6.0000000   6.0000000   6.0000000   6.0000000   6.0000000   6.0000000   6.0000000   6.0000000   6.0000000   6.0000000

  Atom        71          72          73          74          75          76          77          78          79          80
 IAtWgt=          12          12          12          12          12          12          12          12          12          12
 AtmWgt=  12.0000000  12.0000000  12.0000000  12.0000000  12.0000000  12.0000000  12.0000000  12.0000000  12.0000000  12.0000000
 NucSpn=           0           0           0           0           0           0           0           0           0           0
 AtZEff=  -0.0000000  -0.0000000  -0.0000000  -0.0000000  -0.0000000  -0.0000000  -0.0000000  -0.0000000  -0.0000000  -0.0000000
 NQMom=    0.0000000   0.0000000   0.0000000   0.0000000   0.0000000   0.0000000   0.0000000   0.0000000   0.0000000   0.0000000
 NMagM=    0.0000000   0.0000000   0.0000000   0.0000000   0.0000000   0.0000000   0.0000000   0.0000000   0.0000000   0.0000000
 AtZNuc=   6.0000000   6.0000000   6.0000000   6.0000000   6.0000000   6.0000000   6.0000000   6.0000000   6.0000000   6.0000000

  Atom        81          82          83          84          85          86          87          88          89          90
 IAtWgt=          12          12          12          12          35          35          35          35          35          35
 AtmWgt=  12.0000000  12.0000000  12.0000000  12.0000000  34.9688527  34.9688527  34.9688527  34.9688527  34.9688527  34.9688527
 NucSpn=           0           0           0           0           3           3           3           3           3           3
 AtZEff=  -0.0000000  -0.0000000  -0.0000000  -0.0000000  -0.0000000  -0.0000000  -0.0000000  -0.0000000  -0.0000000  -0.0000000
 NQMom=    0.0000000   0.0000000   0.0000000   0.0000000  -8.1650000  -8.1650000  -8.1650000  -8.1650000  -8.1650000  -8.1650000
 NMagM=    0.0000000   0.0000000   0.0000000   0.0000000   0.8218740   0.8218740   0.8218740   0.8218740   0.8218740   0.8218740
 AtZNuc=   6.0000000   6.0000000   6.0000000   6.0000000  17.0000000  17.0000000  17.0000000  17.0000000  17.0000000  17.0000000
 Leave Link  101 at Sun Jun 26 16:31:39 2022, MaxMem=  1342177280 cpu:               6.6 elap:               0.3
 (Enter /home/mkliu/g16/l103.exe)

 GradGradGradGradGradGradGradGradGradGradGradGradGradGradGradGradGradGrad
 Berny optimization.
 Initialization pass.
                           ----------------------------
                           !    Initial Parameters    !
                           ! (Angstroms and Degrees)  !
 --------------------------                            --------------------------
 ! Name  Definition              Value          Derivative Info.                !
 --------------------------------------------------------------------------------
 ! R1    R(1,5)                  1.4201         estimate D2E/DX2                !
 ! R2    R(1,17)                 1.4149         estimate D2E/DX2                !
 ! R3    R(1,25)                 1.4199         estimate D2E/DX2                !
 ! R4    R(2,6)                  1.5            estimate D2E/DX2                !
 ! R5    R(2,43)                 1.5153         estimate D2E/DX2                !
 ! R6    R(2,44)                 1.5092         estimate D2E/DX2                !
 ! R7    R(2,90)                 1.8152         estimate D2E/DX2                !
 ! R8    R(3,7)                  1.4213         estimate D2E/DX2                !
 ! R9    R(3,18)                 1.4136         estimate D2E/DX2                !
 ! R10   R(3,26)                 1.424          estimate D2E/DX2                !
 ! R11   R(4,8)                  1.4346         estimate D2E/DX2                !
 ! R12   R(4,45)                 1.416          estimate D2E/DX2                !
 ! R13   R(4,46)                 1.4156         estimate D2E/DX2                !
 ! R14   R(5,9)                  1.4138         estimate D2E/DX2                !
 ! R15   R(5,29)                 1.4218         estimate D2E/DX2                !
 ! R16   R(6,10)                 1.3602         estimate D2E/DX2                !
 ! R17   R(6,15)                 1.4229         estimate D2E/DX2                !
 ! R18   R(7,12)                 1.4162         estimate D2E/DX2                !
 ! R19   R(7,30)                 1.4223         estimate D2E/DX2                !
 ! R20   R(8,11)                 1.3685         estimate D2E/DX2                !
 ! R21   R(8,16)                 1.4363         estimate D2E/DX2                !
 ! R22   R(9,13)                 1.4074         estimate D2E/DX2                !
 ! R23   R(9,35)                 1.4291         estimate D2E/DX2                !
 ! R24   R(10,49)                1.4504         estimate D2E/DX2                !
 ! R25   R(10,53)                1.439          estimate D2E/DX2                !
 ! R26   R(11,50)                1.4402         estimate D2E/DX2                !
 ! R27   R(11,54)                1.4422         estimate D2E/DX2                !
 ! R28   R(12,14)                1.4056         estimate D2E/DX2                !
 ! R29   R(12,36)                1.4383         estimate D2E/DX2                !
 ! R30   R(13,15)                1.4179         estimate D2E/DX2                !
 ! R31   R(13,43)                1.4239         estimate D2E/DX2                !
 ! R32   R(14,16)                1.4166         estimate D2E/DX2                !
 ! R33   R(14,46)                1.4424         estimate D2E/DX2                !
 ! R34   R(15,17)                1.4144         estimate D2E/DX2                !
 ! R35   R(16,18)                1.4121         estimate D2E/DX2                !
 ! R36   R(17,19)                1.4392         estimate D2E/DX2                !
 ! R37   R(18,20)                1.4467         estimate D2E/DX2                !
 ! R38   R(19,21)                1.4119         estimate D2E/DX2                !
 ! R39   R(19,53)                1.4126         estimate D2E/DX2                !
 ! R40   R(20,22)                1.4106         estimate D2E/DX2                !
 ! R41   R(20,54)                1.4149         estimate D2E/DX2                !
 ! R42   R(21,23)                1.4384         estimate D2E/DX2                !
 ! R43   R(21,57)                1.4187         estimate D2E/DX2                !
 ! R44   R(22,24)                1.4413         estimate D2E/DX2                !
 ! R45   R(22,58)                1.4179         estimate D2E/DX2                !
 ! R46   R(23,25)                1.3587         estimate D2E/DX2                !
 ! R47   R(23,61)                1.4437         estimate D2E/DX2                !
 ! R48   R(24,26)                1.356          estimate D2E/DX2                !
 ! R49   R(24,62)                1.4448         estimate D2E/DX2                !
 ! R50   R(25,27)                1.5037         estimate D2E/DX2                !
 ! R51   R(26,28)                1.5029         estimate D2E/DX2                !
 ! R52   R(27,29)                1.4964         estimate D2E/DX2                !
 ! R53   R(27,65)                1.5283         estimate D2E/DX2                !
 ! R54   R(27,85)                1.8046         estimate D2E/DX2                !
 ! R55   R(28,30)                1.496          estimate D2E/DX2                !
 ! R56   R(28,66)                1.5278         estimate D2E/DX2                !
 ! R57   R(28,88)                1.8055         estimate D2E/DX2                !
 ! R58   R(29,31)                1.3498         estimate D2E/DX2                !
 ! R59   R(30,32)                1.3491         estimate D2E/DX2                !
 ! R60   R(31,33)                1.4256         estimate D2E/DX2                !
 ! R61   R(31,69)                1.5049         estimate D2E/DX2                !
 ! R62   R(32,34)                1.4263         estimate D2E/DX2                !
 ! R63   R(32,70)                1.5048         estimate D2E/DX2                !
 ! R64   R(33,35)                1.4137         estimate D2E/DX2                !
 ! R65   R(33,73)                1.4153         estimate D2E/DX2                !
 ! R66   R(34,36)                1.4091         estimate D2E/DX2                !
 ! R67   R(34,74)                1.4208         estimate D2E/DX2                !
 ! R68   R(35,37)                1.4437         estimate D2E/DX2                !
 ! R69   R(36,38)                1.4487         estimate D2E/DX2                !
 ! R70   R(37,39)                1.4444         estimate D2E/DX2                !
 ! R71   R(37,77)                1.4055         estimate D2E/DX2                !
 ! R72   R(38,42)                1.4405         estimate D2E/DX2                !
 ! R73   R(38,78)                1.4054         estimate D2E/DX2                !
 ! R74   R(39,43)                1.3635         estimate D2E/DX2                !
 ! R75   R(39,79)                1.5091         estimate D2E/DX2                !
 ! R76   R(40,41)                1.4294         estimate D2E/DX2                !
 ! R77   R(40,44)                1.3609         estimate D2E/DX2                !
 ! R78   R(40,79)                1.5149         estimate D2E/DX2                !
 ! R79   R(41,45)                1.4037         estimate D2E/DX2                !
 ! R80   R(41,80)                1.4187         estimate D2E/DX2                !
 ! R81   R(42,46)                1.4024         estimate D2E/DX2                !
 ! R82   R(42,80)                1.4196         estimate D2E/DX2                !
 ! R83   R(44,47)                1.4494         estimate D2E/DX2                !
 ! R84   R(45,48)                1.4378         estimate D2E/DX2                !
 ! R85   R(47,48)                1.4433         estimate D2E/DX2                !
 ! R86   R(47,49)                1.404          estimate D2E/DX2                !
 ! R87   R(48,50)                1.413          estimate D2E/DX2                !
 ! R88   R(49,51)                1.4202         estimate D2E/DX2                !
 ! R89   R(50,52)                1.4153         estimate D2E/DX2                !
 ! R90   R(51,52)                1.3775         estimate D2E/DX2                !
 ! R91   R(51,55)                1.4407         estimate D2E/DX2                !
 ! R92   R(52,56)                1.4468         estimate D2E/DX2                !
 ! R93   R(53,55)                1.4188         estimate D2E/DX2                !
 ! R94   R(54,56)                1.4175         estimate D2E/DX2                !
 ! R95   R(55,83)                1.4125         estimate D2E/DX2                !
 ! R96   R(56,84)                1.4098         estimate D2E/DX2                !
 ! R97   R(57,59)                1.4428         estimate D2E/DX2                !
 ! R98   R(57,83)                1.4101         estimate D2E/DX2                !
 ! R99   R(58,60)                1.4432         estimate D2E/DX2                !
 ! R100  R(58,84)                1.412          estimate D2E/DX2                !
 ! R101  R(59,60)                1.383          estimate D2E/DX2                !
 ! R102  R(59,61)                1.4092         estimate D2E/DX2                !
 ! R103  R(60,62)                1.4082         estimate D2E/DX2                !
 ! R104  R(61,63)                1.4193         estimate D2E/DX2                !
 ! R105  R(62,64)                1.4193         estimate D2E/DX2                !
 ! R106  R(63,64)                1.4368         estimate D2E/DX2                !
 ! R107  R(63,65)                1.4272         estimate D2E/DX2                !
 ! R108  R(64,66)                1.4267         estimate D2E/DX2                !
 ! R109  R(65,67)                1.3881         estimate D2E/DX2                !
 ! R110  R(66,68)                1.388          estimate D2E/DX2                !
 ! R111  R(67,68)                1.4272         estimate D2E/DX2                !
 ! R112  R(67,69)                1.5303         estimate D2E/DX2                !
 ! R113  R(68,70)                1.5294         estimate D2E/DX2                !
 ! R114  R(69,71)                1.501          estimate D2E/DX2                !
 ! R115  R(69,86)                1.8025         estimate D2E/DX2                !
 ! R116  R(70,72)                1.4998         estimate D2E/DX2                !
 ! R117  R(70,87)                1.8038         estimate D2E/DX2                !
 ! R118  R(71,72)                1.3566         estimate D2E/DX2                !
 ! R119  R(71,73)                1.4295         estimate D2E/DX2                !
 ! R120  R(72,74)                1.4302         estimate D2E/DX2                !
 ! R121  R(73,75)                1.3895         estimate D2E/DX2                !
 ! R122  R(74,76)                1.3842         estimate D2E/DX2                !
 ! R123  R(75,76)                1.432          estimate D2E/DX2                !
 ! R124  R(75,77)                1.4187         estimate D2E/DX2                !
 ! R125  R(76,78)                1.4237         estimate D2E/DX2                !
 ! R126  R(77,81)                1.4526         estimate D2E/DX2                !
 ! R127  R(78,81)                1.441          estimate D2E/DX2                !
 ! R128  R(79,82)                1.4977         estimate D2E/DX2                !
 ! R129  R(79,89)                1.8142         estimate D2E/DX2                !
 ! R130  R(80,82)                1.4178         estimate D2E/DX2                !
 ! R131  R(81,82)                1.3593         estimate D2E/DX2                !
 ! R132  R(83,84)                1.4586         estimate D2E/DX2                !
 ! A1    A(5,1,17)             122.168          estimate D2E/DX2                !
 ! A2    A(5,1,25)             107.6383         estimate D2E/DX2                !
 ! A3    A(17,1,25)            121.5941         estimate D2E/DX2                !
 ! A4    A(6,2,43)             101.0303         estimate D2E/DX2                !
 ! A5    A(6,2,44)             112.3852         estimate D2E/DX2                !
 ! A6    A(6,2,90)             111.6006         estimate D2E/DX2                !
 ! A7    A(43,2,44)            110.9372         estimate D2E/DX2                !
 ! A8    A(43,2,90)            111.0337         estimate D2E/DX2                !
 ! A9    A(44,2,90)            109.6362         estimate D2E/DX2                !
 ! A10   A(7,3,18)             122.2021         estimate D2E/DX2                !
 ! A11   A(7,3,26)             107.5463         estimate D2E/DX2                !
 ! A12   A(18,3,26)            121.5137         estimate D2E/DX2                !
 ! A13   A(8,4,45)             120.6567         estimate D2E/DX2                !
 ! A14   A(8,4,46)             106.9759         estimate D2E/DX2                !
 ! A15   A(45,4,46)            121.6759         estimate D2E/DX2                !
 ! A16   A(1,5,9)              121.7618         estimate D2E/DX2                !
 ! A17   A(1,5,29)             108.5689         estimate D2E/DX2                !
 ! A18   A(9,5,29)             121.1549         estimate D2E/DX2                !
 ! A19   A(2,6,10)             121.7037         estimate D2E/DX2                !
 ! A20   A(2,6,15)             111.1713         estimate D2E/DX2                !
 ! A21   A(10,6,15)            119.4883         estimate D2E/DX2                !
 ! A22   A(3,7,12)             122.0914         estimate D2E/DX2                !
 ! A23   A(3,7,30)             108.4681         estimate D2E/DX2                !
 ! A24   A(12,7,30)            121.2223         estimate D2E/DX2                !
 ! A25   A(4,8,11)             119.3558         estimate D2E/DX2                !
 ! A26   A(4,8,16)             109.1776         estimate D2E/DX2                !
 ! A27   A(11,8,16)            120.6377         estimate D2E/DX2                !
 ! A28   A(5,9,13)             115.6517         estimate D2E/DX2                !
 ! A29   A(5,9,35)             119.8988         estimate D2E/DX2                !
 ! A30   A(13,9,35)            119.0207         estimate D2E/DX2                !
 ! A31   A(6,10,49)            121.0533         estimate D2E/DX2                !
 ! A32   A(6,10,53)            120.5291         estimate D2E/DX2                !
 ! A33   A(49,10,53)           108.6172         estimate D2E/DX2                !
 ! A34   A(8,11,50)            120.309          estimate D2E/DX2                !
 ! A35   A(8,11,54)            120.0606         estimate D2E/DX2                !
 ! A36   A(50,11,54)           109.277          estimate D2E/DX2                !
 ! A37   A(7,12,14)            115.12           estimate D2E/DX2                !
 ! A38   A(7,12,36)            119.5554         estimate D2E/DX2                !
 ! A39   A(14,12,36)           119.7606         estimate D2E/DX2                !
 ! A40   A(9,13,15)            122.4188         estimate D2E/DX2                !
 ! A41   A(9,13,43)            120.9262         estimate D2E/DX2                !
 ! A42   A(15,13,43)           109.5328         estimate D2E/DX2                !
 ! A43   A(12,14,16)           122.5163         estimate D2E/DX2                !
 ! A44   A(12,14,46)           120.1544         estimate D2E/DX2                !
 ! A45   A(16,14,46)           108.5681         estimate D2E/DX2                !
 ! A46   A(6,15,13)            107.7121         estimate D2E/DX2                !
 ! A47   A(6,15,17)            121.7873         estimate D2E/DX2                !
 ! A48   A(13,15,17)           121.7601         estimate D2E/DX2                !
 ! A49   A(8,16,14)            106.7839         estimate D2E/DX2                !
 ! A50   A(8,16,18)            120.5613         estimate D2E/DX2                !
 ! A51   A(14,16,18)           122.285          estimate D2E/DX2                !
 ! A52   A(1,17,15)            115.4505         estimate D2E/DX2                !
 ! A53   A(1,17,19)            118.9454         estimate D2E/DX2                !
 ! A54   A(15,17,19)           118.6912         estimate D2E/DX2                !
 ! A55   A(3,18,16)            114.9838         estimate D2E/DX2                !
 ! A56   A(3,18,20)            118.9329         estimate D2E/DX2                !
 ! A57   A(16,18,20)           119.0381         estimate D2E/DX2                !
 ! A58   A(17,19,21)           118.4628         estimate D2E/DX2                !
 ! A59   A(17,19,53)           118.5265         estimate D2E/DX2                !
 ! A60   A(21,19,53)           115.3876         estimate D2E/DX2                !
 ! A61   A(18,20,22)           118.3137         estimate D2E/DX2                !
 ! A62   A(18,20,54)           119.2226         estimate D2E/DX2                !
 ! A63   A(22,20,54)           115.0346         estimate D2E/DX2                !
 ! A64   A(19,21,23)           120.4681         estimate D2E/DX2                !
 ! A65   A(19,21,57)           122.1275         estimate D2E/DX2                !
 ! A66   A(23,21,57)           107.5033         estimate D2E/DX2                !
 ! A67   A(20,22,24)           120.6503         estimate D2E/DX2                !
 ! A68   A(20,22,58)           122.2754         estimate D2E/DX2                !
 ! A69   A(24,22,58)           107.3653         estimate D2E/DX2                !
 ! A70   A(21,23,25)           120.9777         estimate D2E/DX2                !
 ! A71   A(21,23,61)           108.9056         estimate D2E/DX2                !
 ! A72   A(25,23,61)           120.0269         estimate D2E/DX2                !
 ! A73   A(22,24,26)           120.8926         estimate D2E/DX2                !
 ! A74   A(22,24,62)           108.8379         estimate D2E/DX2                !
 ! A75   A(26,24,62)           119.9993         estimate D2E/DX2                !
 ! A76   A(1,25,23)            119.3492         estimate D2E/DX2                !
 ! A77   A(1,25,27)            111.8829         estimate D2E/DX2                !
 ! A78   A(23,25,27)           120.8995         estimate D2E/DX2                !
 ! A79   A(3,26,24)            119.5452         estimate D2E/DX2                !
 ! A80   A(3,26,28)            111.907          estimate D2E/DX2                !
 ! A81   A(24,26,28)           120.9152         estimate D2E/DX2                !
 ! A82   A(25,27,29)           100.3497         estimate D2E/DX2                !
 ! A83   A(25,27,65)           111.9938         estimate D2E/DX2                !
 ! A84   A(25,27,85)           112.2049         estimate D2E/DX2                !
 ! A85   A(29,27,65)           109.762          estimate D2E/DX2                !
 ! A86   A(29,27,85)           113.6302         estimate D2E/DX2                !
 ! A87   A(65,27,85)           108.7514         estimate D2E/DX2                !
 ! A88   A(26,28,30)           100.2977         estimate D2E/DX2                !
 ! A89   A(26,28,66)           112.1438         estimate D2E/DX2                !
 ! A90   A(26,28,88)           112.0695         estimate D2E/DX2                !
 ! A91   A(30,28,66)           109.8931         estimate D2E/DX2                !
 ! A92   A(30,28,88)           113.6403         estimate D2E/DX2                !
 ! A93   A(66,28,88)           108.6641         estimate D2E/DX2                !
 ! A94   A(5,29,27)            111.4714         estimate D2E/DX2                !
 ! A95   A(5,29,31)            119.5147         estimate D2E/DX2                !
 ! A96   A(27,29,31)           121.704          estimate D2E/DX2                !
 ! A97   A(7,30,28)            111.6702         estimate D2E/DX2                !
 ! A98   A(7,30,32)            119.6576         estimate D2E/DX2                !
 ! A99   A(28,30,32)           121.5988         estimate D2E/DX2                !
 ! A100  A(29,31,33)           120.0866         estimate D2E/DX2                !
 ! A101  A(29,31,69)           121.4044         estimate D2E/DX2                !
 ! A102  A(33,31,69)           111.6683         estimate D2E/DX2                !
 ! A103  A(30,32,34)           120.0176         estimate D2E/DX2                !
 ! A104  A(30,32,70)           121.371          estimate D2E/DX2                !
 ! A105  A(34,32,70)           111.9079         estimate D2E/DX2                !
 ! A106  A(31,33,35)           122.318          estimate D2E/DX2                !
 ! A107  A(31,33,73)           107.3428         estimate D2E/DX2                !
 ! A108  A(35,33,73)           121.7946         estimate D2E/DX2                !
 ! A109  A(32,34,36)           122.5887         estimate D2E/DX2                !
 ! A110  A(32,34,74)           107.0033         estimate D2E/DX2                !
 ! A111  A(36,34,74)           122.269          estimate D2E/DX2                !
 ! A112  A(9,35,33)            116.4265         estimate D2E/DX2                !
 ! A113  A(9,35,37)            119.5114         estimate D2E/DX2                !
 ! A114  A(33,35,37)           119.0803         estimate D2E/DX2                !
 ! A115  A(12,36,34)           116.4549         estimate D2E/DX2                !
 ! A116  A(12,36,38)           119.869          estimate D2E/DX2                !
 ! A117  A(34,36,38)           118.3911         estimate D2E/DX2                !
 ! A118  A(35,37,39)           119.2332         estimate D2E/DX2                !
 ! A119  A(35,37,77)           117.9341         estimate D2E/DX2                !
 ! A120  A(39,37,77)           118.4815         estimate D2E/DX2                !
 ! A121  A(36,38,42)           119.2659         estimate D2E/DX2                !
 ! A122  A(36,38,78)           118.2743         estimate D2E/DX2                !
 ! A123  A(42,38,78)           116.7372         estimate D2E/DX2                !
 ! A124  A(37,39,43)           119.9767         estimate D2E/DX2                !
 ! A125  A(37,39,79)           121.7078         estimate D2E/DX2                !
 ! A126  A(43,39,79)           116.311          estimate D2E/DX2                !
 ! A127  A(41,40,44)           120.9114         estimate D2E/DX2                !
 ! A128  A(41,40,79)           109.4435         estimate D2E/DX2                !
 ! A129  A(44,40,79)           125.0944         estimate D2E/DX2                !
 ! A130  A(40,41,45)           121.6164         estimate D2E/DX2                !
 ! A131  A(40,41,80)           109.1154         estimate D2E/DX2                !
 ! A132  A(45,41,80)           122.3692         estimate D2E/DX2                !
 ! A133  A(38,42,46)           119.7004         estimate D2E/DX2                !
 ! A134  A(38,42,80)           119.639          estimate D2E/DX2                !
 ! A135  A(46,42,80)           114.9868         estimate D2E/DX2                !
 ! A136  A(2,43,13)            109.4613         estimate D2E/DX2                !
 ! A137  A(2,43,39)            125.1107         estimate D2E/DX2                !
 ! A138  A(13,43,39)           121.1677         estimate D2E/DX2                !
 ! A139  A(2,44,40)            116.4321         estimate D2E/DX2                !
 ! A140  A(2,44,47)            121.8122         estimate D2E/DX2                !
 ! A141  A(40,44,47)           119.7018         estimate D2E/DX2                !
 ! A142  A(4,45,41)            115.1071         estimate D2E/DX2                !
 ! A143  A(4,45,48)            120.5082         estimate D2E/DX2                !
 ! A144  A(41,45,48)           118.5988         estimate D2E/DX2                !
 ! A145  A(4,46,14)            108.3728         estimate D2E/DX2                !
 ! A146  A(4,46,42)            122.5572         estimate D2E/DX2                !
 ! A147  A(14,46,42)           120.9313         estimate D2E/DX2                !
 ! A148  A(44,47,48)           119.7726         estimate D2E/DX2                !
 ! A149  A(44,47,49)           117.8576         estimate D2E/DX2                !
 ! A150  A(48,47,49)           118.1232         estimate D2E/DX2                !
 ! A151  A(45,48,47)           119.2313         estimate D2E/DX2                !
 ! A152  A(45,48,50)           116.9254         estimate D2E/DX2                !
 ! A153  A(47,48,50)           118.5455         estimate D2E/DX2                !
 ! A154  A(10,49,47)           121.0986         estimate D2E/DX2                !
 ! A155  A(10,49,51)           105.8755         estimate D2E/DX2                !
 ! A156  A(47,49,51)           121.6129         estimate D2E/DX2                !
 ! A157  A(11,50,48)           121.7497         estimate D2E/DX2                !
 ! A158  A(11,50,52)           105.9043         estimate D2E/DX2                !
 ! A159  A(48,50,52)           121.5533         estimate D2E/DX2                !
 ! A160  A(49,51,52)           119.865          estimate D2E/DX2                !
 ! A161  A(49,51,55)           109.8276         estimate D2E/DX2                !
 ! A162  A(52,51,55)           120.2084         estimate D2E/DX2                !
 ! A163  A(50,52,51)           119.446          estimate D2E/DX2                !
 ! A164  A(50,52,56)           109.6945         estimate D2E/DX2                !
 ! A165  A(51,52,56)           120.4106         estimate D2E/DX2                !
 ! A166  A(10,53,19)           120.8714         estimate D2E/DX2                !
 ! A167  A(10,53,55)           107.9433         estimate D2E/DX2                !
 ! A168  A(19,53,55)           122.0033         estimate D2E/DX2                !
 ! A169  A(11,54,20)           120.4304         estimate D2E/DX2                !
 ! A170  A(11,54,56)           107.2901         estimate D2E/DX2                !
 ! A171  A(20,54,56)           122.1772         estimate D2E/DX2                !
 ! A172  A(51,55,53)           107.3109         estimate D2E/DX2                !
 ! A173  A(51,55,83)           120.5656         estimate D2E/DX2                !
 ! A174  A(53,55,83)           122.353          estimate D2E/DX2                !
 ! A175  A(52,56,54)           107.4086         estimate D2E/DX2                !
 ! A176  A(52,56,84)           120.3283         estimate D2E/DX2                !
 ! A177  A(54,56,84)           122.4768         estimate D2E/DX2                !
 ! A178  A(21,57,59)           107.0643         estimate D2E/DX2                !
 ! A179  A(21,57,83)           122.316          estimate D2E/DX2                !
 ! A180  A(59,57,83)           120.4681         estimate D2E/DX2                !
 ! A181  A(22,58,60)           107.2424         estimate D2E/DX2                !
 ! A182  A(22,58,84)           122.4131         estimate D2E/DX2                !
 ! A183  A(60,58,84)           120.4099         estimate D2E/DX2                !
 ! A184  A(57,59,60)           120.2575         estimate D2E/DX2                !
 ! A185  A(57,59,61)           110.0501         estimate D2E/DX2                !
 ! A186  A(60,59,61)           119.734          estimate D2E/DX2                !
 ! A187  A(58,60,59)           120.2012         estimate D2E/DX2                !
 ! A188  A(58,60,62)           109.9637         estimate D2E/DX2                !
 ! A189  A(59,60,62)           119.797          estimate D2E/DX2                !
 ! A190  A(23,61,59)           105.7506         estimate D2E/DX2                !
 ! A191  A(23,61,63)           120.4639         estimate D2E/DX2                !
 ! A192  A(59,61,63)           120.8314         estimate D2E/DX2                !
 ! A193  A(24,62,60)           105.8263         estimate D2E/DX2                !
 ! A194  A(24,62,64)           120.6103         estimate D2E/DX2                !
 ! A195  A(60,62,64)           120.8651         estimate D2E/DX2                !
 ! A196  A(61,63,64)           118.2842         estimate D2E/DX2                !
 ! A197  A(61,63,65)           119.5263         estimate D2E/DX2                !
 ! A198  A(64,63,65)           119.1022         estimate D2E/DX2                !
 ! A199  A(62,64,63)           118.2733         estimate D2E/DX2                !
 ! A200  A(62,64,66)           119.4164         estimate D2E/DX2                !
 ! A201  A(63,64,66)           119.1743         estimate D2E/DX2                !
 ! A202  A(27,65,63)           118.2529         estimate D2E/DX2                !
 ! A203  A(27,65,67)           120.5048         estimate D2E/DX2                !
 ! A204  A(63,65,67)           120.5962         estimate D2E/DX2                !
 ! A205  A(28,66,64)           118.2824         estimate D2E/DX2                !
 ! A206  A(28,66,68)           120.4666         estimate D2E/DX2                !
 ! A207  A(64,66,68)           120.5925         estimate D2E/DX2                !
 ! A208  A(65,67,68)           120.2751         estimate D2E/DX2                !
 ! A209  A(65,67,69)           119.5856         estimate D2E/DX2                !
 ! A210  A(68,67,69)           119.7988         estimate D2E/DX2                !
 ! A211  A(66,68,67)           120.2571         estimate D2E/DX2                !
 ! A212  A(66,68,70)           119.493          estimate D2E/DX2                !
 ! A213  A(67,68,70)           119.8924         estimate D2E/DX2                !
 ! A214  A(31,69,67)           109.1662         estimate D2E/DX2                !
 ! A215  A(31,69,71)           100.9147         estimate D2E/DX2                !
 ! A216  A(31,69,86)           113.6171         estimate D2E/DX2                !
 ! A217  A(67,69,71)           111.3462         estimate D2E/DX2                !
 ! A218  A(67,69,86)           108.4993         estimate D2E/DX2                !
 ! A219  A(71,69,86)           113.1404         estimate D2E/DX2                !
 ! A220  A(32,70,68)           109.278          estimate D2E/DX2                !
 ! A221  A(32,70,72)           100.9599         estimate D2E/DX2                !
 ! A222  A(32,70,87)           113.5584         estimate D2E/DX2                !
 ! A223  A(68,70,72)           111.355          estimate D2E/DX2                !
 ! A224  A(68,70,87)           108.53           estimate D2E/DX2                !
 ! A225  A(72,70,87)           113.0093         estimate D2E/DX2                !
 ! A226  A(69,71,72)           122.0366         estimate D2E/DX2                !
 ! A227  A(69,71,73)           110.3281         estimate D2E/DX2                !
 ! A228  A(72,71,73)           119.584          estimate D2E/DX2                !
 ! A229  A(70,72,71)           122.102          estimate D2E/DX2                !
 ! A230  A(70,72,74)           110.3314         estimate D2E/DX2                !
 ! A231  A(71,72,74)           119.546          estimate D2E/DX2                !
 ! A232  A(33,73,71)           109.297          estimate D2E/DX2                !
 ! A233  A(33,73,75)           118.7859         estimate D2E/DX2                !
 ! A234  A(71,73,75)           121.6828         estimate D2E/DX2                !
 ! A235  A(34,74,72)           109.408          estimate D2E/DX2                !
 ! A236  A(34,74,76)           119.1116         estimate D2E/DX2                !
 ! A237  A(72,74,76)           121.5536         estimate D2E/DX2                !
 ! A238  A(73,75,76)           118.4796         estimate D2E/DX2                !
 ! A239  A(73,75,77)           120.4379         estimate D2E/DX2                !
 ! A240  A(76,75,77)           108.9461         estimate D2E/DX2                !
 ! A241  A(74,76,75)           119.0906         estimate D2E/DX2                !
 ! A242  A(74,76,78)           119.8612         estimate D2E/DX2                !
 ! A243  A(75,76,78)           108.825          estimate D2E/DX2                !
 ! A244  A(37,77,75)           121.6816         estimate D2E/DX2                !
 ! A245  A(37,77,81)           120.0717         estimate D2E/DX2                !
 ! A246  A(75,77,81)           106.3041         estimate D2E/DX2                !
 ! A247  A(38,78,76)           121.9953         estimate D2E/DX2                !
 ! A248  A(38,78,81)           121.9262         estimate D2E/DX2                !
 ! A249  A(76,78,81)           106.447          estimate D2E/DX2                !
 ! A250  A(39,79,40)           111.0621         estimate D2E/DX2                !
 ! A251  A(39,79,82)           111.6532         estimate D2E/DX2                !
 ! A252  A(39,79,89)           109.6539         estimate D2E/DX2                !
 ! A253  A(40,79,82)           100.9737         estimate D2E/DX2                !
 ! A254  A(40,79,89)           111.3199         estimate D2E/DX2                !
 ! A255  A(82,79,89)           111.9627         estimate D2E/DX2                !
 ! A256  A(41,80,42)           121.5949         estimate D2E/DX2                !
 ! A257  A(41,80,82)           107.9056         estimate D2E/DX2                !
 ! A258  A(42,80,82)           121.668          estimate D2E/DX2                !
 ! A259  A(77,81,78)           108.752          estimate D2E/DX2                !
 ! A260  A(77,81,82)           120.8521         estimate D2E/DX2                !
 ! A261  A(78,81,82)           120.4195         estimate D2E/DX2                !
 ! A262  A(79,82,80)           111.4711         estimate D2E/DX2                !
 ! A263  A(79,82,81)           122.1964         estimate D2E/DX2                !
 ! A264  A(80,82,81)           119.0484         estimate D2E/DX2                !
 ! A265  A(55,83,57)           115.1525         estimate D2E/DX2                !
 ! A266  A(55,83,84)           119.1616         estimate D2E/DX2                !
 ! A267  A(57,83,84)           119.191          estimate D2E/DX2                !
 ! A268  A(56,84,58)           114.9402         estimate D2E/DX2                !
 ! A269  A(56,84,83)           119.203          estimate D2E/DX2                !
 ! A270  A(58,84,83)           119.2341         estimate D2E/DX2                !
 ! D1    D(17,1,5,9)            -2.8331         estimate D2E/DX2                !
 ! D2    D(17,1,5,29)         -151.0306         estimate D2E/DX2                !
 ! D3    D(25,1,5,9)           145.3151         estimate D2E/DX2                !
 ! D4    D(25,1,5,29)           -2.8824         estimate D2E/DX2                !
 ! D5    D(5,1,17,15)           -5.3538         estimate D2E/DX2                !
 ! D6    D(5,1,17,19)          145.1976         estimate D2E/DX2                !
 ! D7    D(25,1,17,15)        -149.1664         estimate D2E/DX2                !
 ! D8    D(25,1,17,19)           1.385          estimate D2E/DX2                !
 ! D9    D(5,1,25,23)         -146.3428         estimate D2E/DX2                !
 ! D10   D(5,1,25,27)            3.058          estimate D2E/DX2                !
 ! D11   D(17,1,25,23)           2.0262         estimate D2E/DX2                !
 ! D12   D(17,1,25,27)         151.427          estimate D2E/DX2                !
 ! D13   D(43,2,6,10)         -139.7375         estimate D2E/DX2                !
 ! D14   D(43,2,6,15)            9.5449         estimate D2E/DX2                !
 ! D15   D(44,2,6,10)          -21.4416         estimate D2E/DX2                !
 ! D16   D(44,2,6,15)          127.8409         estimate D2E/DX2                !
 ! D17   D(90,2,6,10)          102.1976         estimate D2E/DX2                !
 ! D18   D(90,2,6,15)         -108.52           estimate D2E/DX2                !
 ! D19   D(6,2,43,13)          -10.2434         estimate D2E/DX2                !
 ! D20   D(6,2,43,39)          146.6012         estimate D2E/DX2                !
 ! D21   D(44,2,43,13)        -129.5847         estimate D2E/DX2                !
 ! D22   D(44,2,43,39)          27.2599         estimate D2E/DX2                !
 ! D23   D(90,2,43,13)         108.2329         estimate D2E/DX2                !
 ! D24   D(90,2,43,39)         -94.9225         estimate D2E/DX2                !
 ! D25   D(6,2,44,40)         -144.2192         estimate D2E/DX2                !
 ! D26   D(6,2,44,47)           19.4199         estimate D2E/DX2                !
 ! D27   D(43,2,44,40)         -31.9392         estimate D2E/DX2                !
 ! D28   D(43,2,44,47)         131.6999         estimate D2E/DX2                !
 ! D29   D(90,2,44,40)          91.0534         estimate D2E/DX2                !
 ! D30   D(90,2,44,47)        -105.3075         estimate D2E/DX2                !
 ! D31   D(18,3,7,12)            2.2422         estimate D2E/DX2                !
 ! D32   D(18,3,7,30)          150.9471         estimate D2E/DX2                !
 ! D33   D(26,3,7,12)         -145.6444         estimate D2E/DX2                !
 ! D34   D(26,3,7,30)            3.0605         estimate D2E/DX2                !
 ! D35   D(7,3,18,16)            5.8761         estimate D2E/DX2                !
 ! D36   D(7,3,18,20)         -144.5178         estimate D2E/DX2                !
 ! D37   D(26,3,18,16)         149.3955         estimate D2E/DX2                !
 ! D38   D(26,3,18,20)          -0.9984         estimate D2E/DX2                !
 ! D39   D(7,3,26,24)          146.3166         estimate D2E/DX2                !
 ! D40   D(7,3,26,28)           -3.5049         estimate D2E/DX2                !
 ! D41   D(18,3,26,24)          -1.8372         estimate D2E/DX2                !
 ! D42   D(18,3,26,28)        -151.6586         estimate D2E/DX2                !
 ! D43   D(45,4,8,11)            3.1841         estimate D2E/DX2                !
 ! D44   D(45,4,8,16)         -141.3698         estimate D2E/DX2                !
 ! D45   D(46,4,8,11)          148.1873         estimate D2E/DX2                !
 ! D46   D(46,4,8,16)            3.6333         estimate D2E/DX2                !
 ! D47   D(8,4,45,41)          151.9475         estimate D2E/DX2                !
 ! D48   D(8,4,45,48)           -0.8846         estimate D2E/DX2                !
 ! D49   D(46,4,45,41)          12.0801         estimate D2E/DX2                !
 ! D50   D(46,4,45,48)        -140.752          estimate D2E/DX2                !
 ! D51   D(8,4,46,14)           -2.8801         estimate D2E/DX2                !
 ! D52   D(8,4,46,42)         -151.602          estimate D2E/DX2                !
 ! D53   D(45,4,46,14)         141.6879         estimate D2E/DX2                !
 ! D54   D(45,4,46,42)          -7.034          estimate D2E/DX2                !
 ! D55   D(1,5,9,13)             7.5606         estimate D2E/DX2                !
 ! D56   D(1,5,9,35)          -146.1955         estimate D2E/DX2                !
 ! D57   D(29,5,9,13)          151.8457         estimate D2E/DX2                !
 ! D58   D(29,5,9,35)           -1.9103         estimate D2E/DX2                !
 ! D59   D(1,5,29,27)            1.7197         estimate D2E/DX2                !
 ! D60   D(1,5,29,31)          152.3656         estimate D2E/DX2                !
 ! D61   D(9,5,29,27)         -146.707          estimate D2E/DX2                !
 ! D62   D(9,5,29,31)            3.9388         estimate D2E/DX2                !
 ! D63   D(2,6,10,49)            8.736          estimate D2E/DX2                !
 ! D64   D(2,6,10,53)          150.7084         estimate D2E/DX2                !
 ! D65   D(15,6,10,49)        -138.0877         estimate D2E/DX2                !
 ! D66   D(15,6,10,53)           3.8848         estimate D2E/DX2                !
 ! D67   D(2,6,15,13)           -5.5363         estimate D2E/DX2                !
 ! D68   D(2,6,15,17)         -153.5289         estimate D2E/DX2                !
 ! D69   D(10,6,15,13)         144.5127         estimate D2E/DX2                !
 ! D70   D(10,6,15,17)          -3.4799         estimate D2E/DX2                !
 ! D71   D(3,7,12,14)           -7.4519         estimate D2E/DX2                !
 ! D72   D(3,7,12,36)          146.1986         estimate D2E/DX2                !
 ! D73   D(30,7,12,14)        -152.2723         estimate D2E/DX2                !
 ! D74   D(30,7,12,36)           1.3781         estimate D2E/DX2                !
 ! D75   D(3,7,30,28)           -1.5793         estimate D2E/DX2                !
 ! D76   D(3,7,30,32)         -152.6318         estimate D2E/DX2                !
 ! D77   D(12,7,30,28)         147.4493         estimate D2E/DX2                !
 ! D78   D(12,7,30,32)          -3.6032         estimate D2E/DX2                !
 ! D79   D(4,8,11,50)            0.3275         estimate D2E/DX2                !
 ! D80   D(4,8,11,54)         -140.9472         estimate D2E/DX2                !
 ! D81   D(16,8,11,50)         140.7872         estimate D2E/DX2                !
 ! D82   D(16,8,11,54)          -0.4875         estimate D2E/DX2                !
 ! D83   D(4,8,16,14)           -2.9588         estimate D2E/DX2                !
 ! D84   D(4,8,16,18)          142.7308         estimate D2E/DX2                !
 ! D85   D(11,8,16,14)        -146.9808         estimate D2E/DX2                !
 ! D86   D(11,8,16,18)          -1.2912         estimate D2E/DX2                !
 ! D87   D(5,9,13,15)           -4.2517         estimate D2E/DX2                !
 ! D88   D(5,9,13,43)         -151.6247         estimate D2E/DX2                !
 ! D89   D(35,9,13,15)         149.7476         estimate D2E/DX2                !
 ! D90   D(35,9,13,43)           2.3745         estimate D2E/DX2                !
 ! D91   D(5,9,35,33)           -4.3714         estimate D2E/DX2                !
 ! D92   D(5,9,35,37)          150.4483         estimate D2E/DX2                !
 ! D93   D(13,9,35,33)        -157.2519         estimate D2E/DX2                !
 ! D94   D(13,9,35,37)          -2.4323         estimate D2E/DX2                !
 ! D95   D(6,10,49,47)           8.3533         estimate D2E/DX2                !
 ! D96   D(6,10,49,51)         152.2522         estimate D2E/DX2                !
 ! D97   D(53,10,49,47)       -137.595          estimate D2E/DX2                !
 ! D98   D(53,10,49,51)          6.3039         estimate D2E/DX2                !
 ! D99   D(6,10,53,19)          -2.5735         estimate D2E/DX2                !
 ! D100  D(6,10,53,55)        -149.9893         estimate D2E/DX2                !
 ! D101  D(49,10,53,19)        143.5852         estimate D2E/DX2                !
 ! D102  D(49,10,53,55)         -3.8307         estimate D2E/DX2                !
 ! D103  D(8,11,50,48)          -6.3428         estimate D2E/DX2                !
 ! D104  D(8,11,50,52)        -151.0487         estimate D2E/DX2                !
 ! D105  D(54,11,50,48)        138.6554         estimate D2E/DX2                !
 ! D106  D(54,11,50,52)         -6.0505         estimate D2E/DX2                !
 ! D107  D(8,11,54,20)           2.2335         estimate D2E/DX2                !
 ! D108  D(8,11,54,56)         148.301          estimate D2E/DX2                !
 ! D109  D(50,11,54,20)       -142.8656         estimate D2E/DX2                !
 ! D110  D(50,11,54,56)          3.2019         estimate D2E/DX2                !
 ! D111  D(7,12,14,16)           4.6486         estimate D2E/DX2                !
 ! D112  D(7,12,14,46)         148.4591         estimate D2E/DX2                !
 ! D113  D(36,12,14,16)       -148.9439         estimate D2E/DX2                !
 ! D114  D(36,12,14,46)         -5.1334         estimate D2E/DX2                !
 ! D115  D(7,12,36,34)           4.4            estimate D2E/DX2                !
 ! D116  D(7,12,36,38)        -149.5265         estimate D2E/DX2                !
 ! D117  D(14,12,36,34)        156.824          estimate D2E/DX2                !
 ! D118  D(14,12,36,38)          2.8975         estimate D2E/DX2                !
 ! D119  D(9,13,15,6)         -152.0333         estimate D2E/DX2                !
 ! D120  D(9,13,15,17)          -4.0301         estimate D2E/DX2                !
 ! D121  D(43,13,15,6)          -1.4236         estimate D2E/DX2                !
 ! D122  D(43,13,15,17)        146.5795         estimate D2E/DX2                !
 ! D123  D(9,13,43,2)          158.8431         estimate D2E/DX2                !
 ! D124  D(9,13,43,39)           0.9256         estimate D2E/DX2                !
 ! D125  D(15,13,43,2)           7.7202         estimate D2E/DX2                !
 ! D126  D(15,13,43,39)       -150.1973         estimate D2E/DX2                !
 ! D127  D(12,14,16,8)         148.5572         estimate D2E/DX2                !
 ! D128  D(12,14,16,18)          3.5962         estimate D2E/DX2                !
 ! D129  D(46,14,16,8)           1.1449         estimate D2E/DX2                !
 ! D130  D(46,14,16,18)       -143.8162         estimate D2E/DX2                !
 ! D131  D(12,14,46,4)        -147.2226         estimate D2E/DX2                !
 ! D132  D(12,14,46,42)          2.1032         estimate D2E/DX2                !
 ! D133  D(16,14,46,4)           1.0932         estimate D2E/DX2                !
 ! D134  D(16,14,46,42)        150.419          estimate D2E/DX2                !
 ! D135  D(6,15,17,1)          152.2366         estimate D2E/DX2                !
 ! D136  D(6,15,17,19)           1.6063         estimate D2E/DX2                !
 ! D137  D(13,15,17,1)           8.6653         estimate D2E/DX2                !
 ! D138  D(13,15,17,19)       -141.9649         estimate D2E/DX2                !
 ! D139  D(8,16,18,3)         -149.0439         estimate D2E/DX2                !
 ! D140  D(8,16,18,20)           1.3169         estimate D2E/DX2                !
 ! D141  D(14,16,18,3)          -8.713          estimate D2E/DX2                !
 ! D142  D(14,16,18,20)        141.6478         estimate D2E/DX2                !
 ! D143  D(1,17,19,21)          -1.648          estimate D2E/DX2                !
 ! D144  D(1,17,19,53)        -149.8319         estimate D2E/DX2                !
 ! D145  D(15,17,19,21)        147.9498         estimate D2E/DX2                !
 ! D146  D(15,17,19,53)         -0.2341         estimate D2E/DX2                !
 ! D147  D(3,18,20,22)           1.1513         estimate D2E/DX2                !
 ! D148  D(3,18,20,54)         149.5971         estimate D2E/DX2                !
 ! D149  D(16,18,20,22)       -148.0389         estimate D2E/DX2                !
 ! D150  D(16,18,20,54)          0.4069         estimate D2E/DX2                !
 ! D151  D(17,19,21,23)         -1.3254         estimate D2E/DX2                !
 ! D152  D(17,19,21,57)       -142.7211         estimate D2E/DX2                !
 ! D153  D(53,19,21,23)        147.8305         estimate D2E/DX2                !
 ! D154  D(53,19,21,57)          6.4349         estimate D2E/DX2                !
 ! D155  D(17,19,53,10)          0.68           estimate D2E/DX2                !
 ! D156  D(17,19,53,55)        143.5111         estimate D2E/DX2                !
 ! D157  D(21,19,53,10)       -148.4553         estimate D2E/DX2                !
 ! D158  D(21,19,53,55)         -5.6242         estimate D2E/DX2                !
 ! D159  D(18,20,22,24)          1.3808         estimate D2E/DX2                !
 ! D160  D(18,20,22,58)        143.0637         estimate D2E/DX2                !
 ! D161  D(54,20,22,24)       -148.3503         estimate D2E/DX2                !
 ! D162  D(54,20,22,58)         -6.6674         estimate D2E/DX2                !
 ! D163  D(18,20,54,11)         -2.1688         estimate D2E/DX2                !
 ! D164  D(18,20,54,56)       -143.14           estimate D2E/DX2                !
 ! D165  D(22,20,54,11)        147.2693         estimate D2E/DX2                !
 ! D166  D(22,20,54,56)          6.2981         estimate D2E/DX2                !
 ! D167  D(19,21,23,25)          4.8356         estimate D2E/DX2                !
 ! D168  D(19,21,23,61)       -140.5044         estimate D2E/DX2                !
 ! D169  D(57,21,23,25)        151.1905         estimate D2E/DX2                !
 ! D170  D(57,21,23,61)          5.8506         estimate D2E/DX2                !
 ! D171  D(19,21,57,59)        144.8545         estimate D2E/DX2                !
 ! D172  D(19,21,57,83)         -0.4101         estimate D2E/DX2                !
 ! D173  D(23,21,57,59)         -0.8203         estimate D2E/DX2                !
 ! D174  D(23,21,57,83)       -146.0849         estimate D2E/DX2                !
 ! D175  D(20,22,24,26)         -4.2972         estimate D2E/DX2                !
 ! D176  D(20,22,24,62)        140.7625         estimate D2E/DX2                !
 ! D177  D(58,22,24,26)       -150.9817         estimate D2E/DX2                !
 ! D178  D(58,22,24,62)         -5.922          estimate D2E/DX2                !
 ! D179  D(20,22,58,60)       -145.2735         estimate D2E/DX2                !
 ! D180  D(20,22,58,84)          0.302          estimate D2E/DX2                !
 ! D181  D(24,22,58,60)          0.7491         estimate D2E/DX2                !
 ! D182  D(24,22,58,84)        146.3245         estimate D2E/DX2                !
 ! D183  D(21,23,25,1)          -5.0962         estimate D2E/DX2                !
 ! D184  D(21,23,25,27)       -151.696          estimate D2E/DX2                !
 ! D185  D(61,23,25,1)         136.4833         estimate D2E/DX2                !
 ! D186  D(61,23,25,27)        -10.1165         estimate D2E/DX2                !
 ! D187  D(21,23,61,59)         -8.5531         estimate D2E/DX2                !
 ! D188  D(21,23,61,63)        133.0466         estimate D2E/DX2                !
 ! D189  D(25,23,61,59)       -154.2776         estimate D2E/DX2                !
 ! D190  D(25,23,61,63)        -12.6778         estimate D2E/DX2                !
 ! D191  D(22,24,26,3)           4.4416         estimate D2E/DX2                !
 ! D192  D(22,24,26,28)        151.5104         estimate D2E/DX2                !
 ! D193  D(62,24,26,3)        -136.8105         estimate D2E/DX2                !
 ! D194  D(62,24,26,28)         10.2584         estimate D2E/DX2                !
 ! D195  D(22,24,62,60)          8.7575         estimate D2E/DX2                !
 ! D196  D(22,24,62,64)       -133.1745         estimate D2E/DX2                !
 ! D197  D(26,24,62,60)        154.1815         estimate D2E/DX2                !
 ! D198  D(26,24,62,64)         12.2495         estimate D2E/DX2                !
 ! D199  D(1,25,27,29)          -1.9189         estimate D2E/DX2                !
 ! D200  D(1,25,27,65)        -118.3068         estimate D2E/DX2                !
 ! D201  D(1,25,27,85)         119.0549         estimate D2E/DX2                !
 ! D202  D(23,25,27,29)        146.9441         estimate D2E/DX2                !
 ! D203  D(23,25,27,65)         30.5563         estimate D2E/DX2                !
 ! D204  D(23,25,27,85)        -92.082          estimate D2E/DX2                !
 ! D205  D(3,26,28,30)           2.4159         estimate D2E/DX2                !
 ! D206  D(3,26,28,66)         118.9875         estimate D2E/DX2                !
 ! D207  D(3,26,28,88)        -118.4777         estimate D2E/DX2                !
 ! D208  D(24,26,28,30)       -146.9369         estimate D2E/DX2                !
 ! D209  D(24,26,28,66)        -30.3653         estimate D2E/DX2                !
 ! D210  D(24,26,28,88)         92.1695         estimate D2E/DX2                !
 ! D211  D(25,27,29,5)           0.0953         estimate D2E/DX2                !
 ! D212  D(25,27,29,31)       -149.8109         estimate D2E/DX2                !
 ! D213  D(65,27,29,5)         118.1386         estimate D2E/DX2                !
 ! D214  D(65,27,29,31)        -31.7677         estimate D2E/DX2                !
 ! D215  D(85,27,29,5)        -119.854          estimate D2E/DX2                !
 ! D216  D(85,27,29,31)         90.2398         estimate D2E/DX2                !
 ! D217  D(25,27,65,63)        -30.3621         estimate D2E/DX2                !
 ! D218  D(25,27,65,67)        140.4796         estimate D2E/DX2                !
 ! D219  D(29,27,65,63)       -140.9101         estimate D2E/DX2                !
 ! D220  D(29,27,65,67)         29.9316         estimate D2E/DX2                !
 ! D221  D(85,27,65,63)         94.2171         estimate D2E/DX2                !
 ! D222  D(85,27,65,67)        -94.9412         estimate D2E/DX2                !
 ! D223  D(26,28,30,7)          -0.4747         estimate D2E/DX2                !
 ! D224  D(26,28,30,32)        149.9337         estimate D2E/DX2                !
 ! D225  D(66,28,30,7)        -118.7143         estimate D2E/DX2                !
 ! D226  D(66,28,30,32)         31.694          estimate D2E/DX2                !
 ! D227  D(88,28,30,7)         119.2871         estimate D2E/DX2                !
 ! D228  D(88,28,30,32)        -90.3045         estimate D2E/DX2                !
 ! D229  D(26,28,66,64)         30.0848         estimate D2E/DX2                !
 ! D230  D(26,28,66,68)       -140.6698         estimate D2E/DX2                !
 ! D231  D(30,28,66,64)        140.7253         estimate D2E/DX2                !
 ! D232  D(30,28,66,68)        -30.0293         estimate D2E/DX2                !
 ! D233  D(88,28,66,64)        -94.3612         estimate D2E/DX2                !
 ! D234  D(88,28,66,68)         94.8842         estimate D2E/DX2                !
 ! D235  D(5,29,31,33)           0.5468         estimate D2E/DX2                !
 ! D236  D(5,29,31,69)        -148.067          estimate D2E/DX2                !
 ! D237  D(27,29,31,33)        148.1214         estimate D2E/DX2                !
 ! D238  D(27,29,31,69)         -0.4924         estimate D2E/DX2                !
 ! D239  D(7,30,32,34)          -0.1791         estimate D2E/DX2                !
 ! D240  D(7,30,32,70)         148.7977         estimate D2E/DX2                !
 ! D241  D(28,30,32,34)       -148.3022         estimate D2E/DX2                !
 ! D242  D(28,30,32,70)          0.6746         estimate D2E/DX2                !
 ! D243  D(29,31,33,35)         -7.2842         estimate D2E/DX2                !
 ! D244  D(29,31,33,73)       -155.572          estimate D2E/DX2                !
 ! D245  D(69,31,33,35)        144.1406         estimate D2E/DX2                !
 ! D246  D(69,31,33,73)         -4.1472         estimate D2E/DX2                !
 ! D247  D(29,31,69,67)         33.7767         estimate D2E/DX2                !
 ! D248  D(29,31,69,71)        151.1306         estimate D2E/DX2                !
 ! D249  D(29,31,69,86)        -87.4614         estimate D2E/DX2                !
 ! D250  D(33,31,69,67)       -117.2174         estimate D2E/DX2                !
 ! D251  D(33,31,69,71)          0.1366         estimate D2E/DX2                !
 ! D252  D(33,31,69,86)        121.5445         estimate D2E/DX2                !
 ! D253  D(30,32,34,36)          6.418          estimate D2E/DX2                !
 ! D254  D(30,32,34,74)        155.5222         estimate D2E/DX2                !
 ! D255  D(70,32,34,36)       -145.2685         estimate D2E/DX2                !
 ! D256  D(70,32,34,74)          3.8356         estimate D2E/DX2                !
 ! D257  D(30,32,70,68)        -33.9302         estimate D2E/DX2                !
 ! D258  D(30,32,70,72)       -151.361          estimate D2E/DX2                !
 ! D259  D(30,32,70,87)         87.3885         estimate D2E/DX2                !
 ! D260  D(34,32,70,68)        117.3195         estimate D2E/DX2                !
 ! D261  D(34,32,70,72)         -0.1112         estimate D2E/DX2                !
 ! D262  D(34,32,70,87)       -121.3618         estimate D2E/DX2                !
 ! D263  D(31,33,35,9)           9.0027         estimate D2E/DX2                !
 ! D264  D(31,33,35,37)       -145.9304         estimate D2E/DX2                !
 ! D265  D(73,33,35,9)         152.8215         estimate D2E/DX2                !
 ! D266  D(73,33,35,37)         -2.1116         estimate D2E/DX2                !
 ! D267  D(31,33,73,71)          6.6437         estimate D2E/DX2                !
 ! D268  D(31,33,73,75)        152.468          estimate D2E/DX2                !
 ! D269  D(35,33,73,71)       -141.8459         estimate D2E/DX2                !
 ! D270  D(35,33,73,75)          3.9784         estimate D2E/DX2                !
 ! D271  D(32,34,36,12)         -8.3547         estimate D2E/DX2                !
 ! D272  D(32,34,36,38)        145.9713         estimate D2E/DX2                !
 ! D273  D(74,34,36,12)       -152.853          estimate D2E/DX2                !
 ! D274  D(74,34,36,38)          1.473          estimate D2E/DX2                !
 ! D275  D(32,34,74,72)         -6.1706         estimate D2E/DX2                !
 ! D276  D(32,34,74,76)       -152.3962         estimate D2E/DX2                !
 ! D277  D(36,34,74,72)        143.0548         estimate D2E/DX2                !
 ! D278  D(36,34,74,76)         -3.1708         estimate D2E/DX2                !
 ! D279  D(9,35,37,39)          -0.6204         estimate D2E/DX2                !
 ! D280  D(9,35,37,77)        -156.8666         estimate D2E/DX2                !
 ! D281  D(33,35,37,39)        153.5327         estimate D2E/DX2                !
 ! D282  D(33,35,37,77)         -2.7135         estimate D2E/DX2                !
 ! D283  D(12,36,38,42)          2.3492         estimate D2E/DX2                !
 ! D284  D(12,36,38,78)        154.8491         estimate D2E/DX2                !
 ! D285  D(34,36,38,42)       -151.0803         estimate D2E/DX2                !
 ! D286  D(34,36,38,78)          1.4196         estimate D2E/DX2                !
 ! D287  D(35,37,39,43)          3.8969         estimate D2E/DX2                !
 ! D288  D(35,37,39,79)       -159.4028         estimate D2E/DX2                !
 ! D289  D(77,37,39,43)        160.0135         estimate D2E/DX2                !
 ! D290  D(77,37,39,79)         -3.2862         estimate D2E/DX2                !
 ! D291  D(35,37,77,75)          5.7595         estimate D2E/DX2                !
 ! D292  D(35,37,77,81)        143.3685         estimate D2E/DX2                !
 ! D293  D(39,37,77,75)       -150.6683         estimate D2E/DX2                !
 ! D294  D(39,37,77,81)        -13.0592         estimate D2E/DX2                !
 ! D295  D(36,38,42,46)         -5.3673         estimate D2E/DX2                !
 ! D296  D(36,38,42,80)        146.7672         estimate D2E/DX2                !
 ! D297  D(78,38,42,46)       -158.2802         estimate D2E/DX2                !
 ! D298  D(78,38,42,80)         -6.1457         estimate D2E/DX2                !
 ! D299  D(36,38,78,76)         -2.6828         estimate D2E/DX2                !
 ! D300  D(36,38,78,81)       -144.1836         estimate D2E/DX2                !
 ! D301  D(42,38,78,76)        150.5069         estimate D2E/DX2                !
 ! D302  D(42,38,78,81)          9.0061         estimate D2E/DX2                !
 ! D303  D(37,39,43,2)        -158.3908         estimate D2E/DX2                !
 ! D304  D(37,39,43,13)         -4.0683         estimate D2E/DX2                !
 ! D305  D(79,39,43,2)           5.7826         estimate D2E/DX2                !
 ! D306  D(79,39,43,13)        160.1051         estimate D2E/DX2                !
 ! D307  D(37,39,79,40)        132.1278         estimate D2E/DX2                !
 ! D308  D(37,39,79,82)         20.2664         estimate D2E/DX2                !
 ! D309  D(37,39,79,89)       -104.4197         estimate D2E/DX2                !
 ! D310  D(43,39,79,40)        -31.7496         estimate D2E/DX2                !
 ! D311  D(43,39,79,82)       -143.6111         estimate D2E/DX2                !
 ! D312  D(43,39,79,89)         91.7028         estimate D2E/DX2                !
 ! D313  D(44,40,41,45)          3.3958         estimate D2E/DX2                !
 ! D314  D(44,40,41,80)       -148.0934         estimate D2E/DX2                !
 ! D315  D(79,40,41,45)        160.6158         estimate D2E/DX2                !
 ! D316  D(79,40,41,80)          9.1267         estimate D2E/DX2                !
 ! D317  D(41,40,44,2)         159.5194         estimate D2E/DX2                !
 ! D318  D(41,40,44,47)         -4.4842         estimate D2E/DX2                !
 ! D319  D(79,40,44,2)           6.0217         estimate D2E/DX2                !
 ! D320  D(79,40,44,47)       -157.9819         estimate D2E/DX2                !
 ! D321  D(41,40,79,39)       -128.9513         estimate D2E/DX2                !
 ! D322  D(41,40,79,82)        -10.4327         estimate D2E/DX2                !
 ! D323  D(41,40,79,89)        108.5558         estimate D2E/DX2                !
 ! D324  D(44,40,79,39)         27.0945         estimate D2E/DX2                !
 ! D325  D(44,40,79,82)        145.6131         estimate D2E/DX2                !
[...]
 Alpha virt. eigenvalues --    1.26237   1.26375   1.27011   1.27196   1.27474
 Alpha virt. eigenvalues --    1.27617   1.27965   1.28060   1.28538   1.28786
 Alpha virt. eigenvalues --    1.29088   1.29401   1.29919   1.30383   1.30908
 Alpha virt. eigenvalues --    1.31164   1.31227   1.31458   1.31690   1.31905
 Alpha virt. eigenvalues --    1.32187   1.32629   1.32675   1.33315   1.33450
 Alpha virt. eigenvalues --    1.33849   1.33923   1.34655   1.34977   1.35197
 Alpha virt. eigenvalues --    1.36078   1.36203   1.36755   1.37497   1.37949
 Alpha virt. eigenvalues --    1.38299   1.38894   1.39241   1.39729   1.39975
 Alpha virt. eigenvalues --    1.40759   1.41186   1.42208   1.42513   1.43378
 Alpha virt. eigenvalues --    1.43579   1.44018   1.44666   1.44805   1.45643
 Alpha virt. eigenvalues --    1.46046   1.46193   1.47403   1.47621   1.47964
 Alpha virt. eigenvalues --    1.48271   1.49235   1.49952   1.50650   1.51312
 Alpha virt. eigenvalues --    1.51982   1.52531   1.52777   1.53030   1.53162
 Alpha virt. eigenvalues --    1.53795   1.54196   1.54301   1.54408   1.55090
 Alpha virt. eigenvalues --    1.55697   1.56106   1.56544   1.56694   1.57019
 Alpha virt. eigenvalues --    1.57580   1.58391   1.58693   1.59959   1.60197
 Alpha virt. eigenvalues --    1.60345   1.61897   1.62473   1.63092   1.63432
 Alpha virt. eigenvalues --    1.63741   1.64098   1.64225   1.64498   1.64724
 Alpha virt. eigenvalues --    1.65077   1.65128   1.65300   1.65482   1.65686
 Alpha virt. eigenvalues --    1.65975   1.66147   1.66717   1.67058   1.67268
 Alpha virt. eigenvalues --    1.67392   1.67764   1.67966   1.68110   1.68664
 Alpha virt. eigenvalues --    1.68964   1.69102   1.69181   1.69413   1.69486
 Alpha virt. eigenvalues --    1.69849   1.69962   1.69992   1.70383   1.70612
 Alpha virt. eigenvalues --    1.70750   1.70966   1.71392   1.71585   1.71966
 Alpha virt. eigenvalues --    1.72242   1.72291   1.72459   1.72769   1.72966
 Alpha virt. eigenvalues --    1.73240   1.73731   1.73955   1.74211   1.74322
 Alpha virt. eigenvalues --    1.74691   1.74959   1.75249   1.75552   1.75694
 Alpha virt. eigenvalues --    1.76027   1.76126   1.76458   1.76604   1.76979
 Alpha virt. eigenvalues --    1.77461   1.77717   1.77775   1.77934   1.78185
 Alpha virt. eigenvalues --    1.78300   1.78716   1.79053   1.79157   1.79402
 Alpha virt. eigenvalues --    1.79644   1.79724   1.80183   1.80260   1.80444
 Alpha virt. eigenvalues --    1.80995   1.81270   1.81632   1.81927   1.82393
 Alpha virt. eigenvalues --    1.82879   1.83657   1.83841   1.84322   1.84595
 Alpha virt. eigenvalues --    1.85045   1.85624   1.85734   1.86216   1.86818
 Alpha virt. eigenvalues --    1.87176   1.87951   1.88267   1.88481   1.88687
 Alpha virt. eigenvalues --    1.88899   1.89082   1.89553   1.90178   1.90327
 Alpha virt. eigenvalues --    1.91507   1.91672   1.92252   1.92503   1.93448
 Alpha virt. eigenvalues --    1.93778   1.93953   1.94131   1.94209   1.94639
 Alpha virt. eigenvalues --    1.95025   1.95267   1.95544   1.95775   1.96076
 Alpha virt. eigenvalues --    1.96222   1.96675   1.96913   1.97173   1.97320
 Alpha virt. eigenvalues --    1.97748   1.97930   1.98376   1.98793   1.99071
 Alpha virt. eigenvalues --    1.99352   1.99431   1.99801   1.99908   1.99950
 Alpha virt. eigenvalues --    2.00293   2.00519   2.00818   2.00941   2.01106
 Alpha virt. eigenvalues --    2.01512   2.01721   2.01955   2.02268   2.02503
 Alpha virt. eigenvalues --    2.02737   2.03306   2.03496   2.03569   2.03811
 Alpha virt. eigenvalues --    2.04158   2.04639   2.04795   2.05343   2.05904
 Alpha virt. eigenvalues --    2.06108   2.06544   2.06710   2.07186   2.07340
 Alpha virt. eigenvalues --    2.08013   2.08339   2.08388   2.09020   2.09158
 Alpha virt. eigenvalues --    2.09737   2.10025   2.10310   2.11041   2.11522
 Alpha virt. eigenvalues --    2.11994   2.12458   2.12576   2.12841   2.13134
 Alpha virt. eigenvalues --    2.13585   2.13968   2.14345   2.14980   2.15723
 Alpha virt. eigenvalues --    2.16216   2.17077   2.17440   2.17826   2.18004
 Alpha virt. eigenvalues --    2.18542   2.18985   2.19543   2.19742   2.19977
 Alpha virt. eigenvalues --    2.20672   2.20759   2.21081   2.21371   2.22238
 Alpha virt. eigenvalues --    2.22843   2.23270   2.23552   2.23930   2.24244
 Alpha virt. eigenvalues --    2.24400   2.24664   2.25233   2.25522   2.26318
 Alpha virt. eigenvalues --    2.26545   2.27087   2.27520   2.27838   2.27940
 Alpha virt. eigenvalues --    2.28268   2.28723   2.29177   2.29257   2.29618
 Alpha virt. eigenvalues --    2.30271   2.30515   2.30811   2.31177   2.31413
 Alpha virt. eigenvalues --    2.32224   2.32849   2.33064   2.33953   2.34647
 Alpha virt. eigenvalues --    2.35045   2.35938   2.36103   2.36572   2.37318
 Alpha virt. eigenvalues --    2.38139   2.38587   2.38974   2.39845   2.40162
 Alpha virt. eigenvalues --    2.40970   2.41398   2.41949   2.42556   2.42795
 Alpha virt. eigenvalues --    2.43024   2.43283   2.43996   2.44354   2.44670
 Alpha virt. eigenvalues --    2.44783   2.45064   2.46192   2.46819   2.47098
 Alpha virt. eigenvalues --    2.47529   2.48323   2.48647   2.48903   2.50311
 Alpha virt. eigenvalues --    2.50877   2.51628   2.51844   2.52096   2.52410
 Alpha virt. eigenvalues --    2.52763   2.53381   2.53593   2.53862   2.54246
 Alpha virt. eigenvalues --    2.54718   2.55046   2.55198   2.55333   2.55662
 Alpha virt. eigenvalues --    2.55895   2.56646   2.56861   2.57146   2.57614
 Alpha virt. eigenvalues --    2.57760   2.58567   2.59056   2.59211   2.59446
 Alpha virt. eigenvalues --    2.59720   2.59818   2.60141   2.60640   2.61157
 Alpha virt. eigenvalues --    2.61309   2.61575   2.62050   2.62350   2.62418
 Alpha virt. eigenvalues --    2.63154   2.63517   2.63793   2.63989   2.64442
 Alpha virt. eigenvalues --    2.64663   2.64867   2.65027   2.65425   2.65706
 Alpha virt. eigenvalues --    2.66064   2.66760   2.66856   2.67037   2.67363
 Alpha virt. eigenvalues --    2.67534   2.68197   2.68836   2.68966   2.69226
 Alpha virt. eigenvalues --    2.69561   2.70329   2.70863   2.71270   2.71373
 Alpha virt. eigenvalues --    2.71864   2.72423   2.72568   2.72764   2.73892
 Alpha virt. eigenvalues --    2.74408   2.74670   2.75059   2.75365   2.75726
 Alpha virt. eigenvalues --    2.75800   2.76551   2.76891   2.77205   2.77731
 Alpha virt. eigenvalues --    2.78026   2.78821   2.79089   2.80133   2.80506
 Alpha virt. eigenvalues --    2.80762   2.80849   2.81157   2.81710   2.81940
 Alpha virt. eigenvalues --    2.82336   2.83007   2.83300   2.83799   2.84896
 Alpha virt. eigenvalues --    2.85041   2.85399   2.86477   2.86745   2.87313
 Alpha virt. eigenvalues --    2.87710   2.88066   2.88354   2.88778   2.89137
 Alpha virt. eigenvalues --    2.90246   2.90554   2.91284   2.91579   2.91691
 Alpha virt. eigenvalues --    2.91848   2.92109   2.92469   2.92703   2.92831
 Alpha virt. eigenvalues --    2.93361   2.93576   2.94521   2.95054   2.95277
 Alpha virt. eigenvalues --    2.95484   2.96356   2.98091   2.98489   2.99181
 Alpha virt. eigenvalues --    3.00126   3.00961   3.02073   3.03245   3.04251
 Alpha virt. eigenvalues --    3.07374   3.08797   3.09025   3.10267   3.11008
 Alpha virt. eigenvalues --    3.12471   3.12678   3.14048   3.16407   3.17583
 Alpha virt. eigenvalues --    3.18625   3.19705   3.19770   3.21265   3.22789
 Alpha virt. eigenvalues --    3.23907   3.27091   3.29166   3.29912   3.30783
 Alpha virt. eigenvalues --    3.33477   3.34941   3.35737   3.37115   3.37487
 Alpha virt. eigenvalues --    3.40869   3.43143   3.44673   3.45609   3.47545
 Alpha virt. eigenvalues --    3.49201   3.50681   3.52448   3.55721   3.58801
 Alpha virt. eigenvalues --    3.63257   4.01278   4.01655   4.02155   4.02390
 Alpha virt. eigenvalues --    4.03008   4.03110   4.03581   4.05015   4.05510
 Alpha virt. eigenvalues --    4.05785   4.05978   4.06949   4.07466   4.08145
 Alpha virt. eigenvalues --    4.08985   4.09355   4.09794   4.10036   4.10688
 Alpha virt. eigenvalues --    4.11678   4.12717   4.13138   4.14581   4.16058
 Alpha virt. eigenvalues --    4.16448   4.16953   4.17635   4.18422   4.19925
 Alpha virt. eigenvalues --    4.20091   4.20681   4.21907   4.22550   4.23202
 Alpha virt. eigenvalues --    4.23681   4.25578   4.26045   4.26945   4.27828
 Alpha virt. eigenvalues --    4.28165   4.28332   4.29297   4.29633   4.30169
 Alpha virt. eigenvalues --    4.30868   4.32138   4.34534   4.35473   4.36554
 Alpha virt. eigenvalues --    4.37162   4.39509   4.40590   4.41128   4.41778
 Alpha virt. eigenvalues --    4.44493   4.45356   4.47308   4.48199   4.48962
 Alpha virt. eigenvalues --    4.49547   4.51285   4.52955   4.53620   4.57418
 Alpha virt. eigenvalues --    4.57969   4.58936   4.60421   4.60542   4.63038
 Alpha virt. eigenvalues --    4.64425   4.66035   4.67427   4.70615   4.74078
 Alpha virt. eigenvalues --    4.78214   4.79894   4.80904   4.82831   4.86926
 Alpha virt. eigenvalues --    4.88039   4.90699   4.94263   4.95842   5.00975
 Alpha virt. eigenvalues --    5.06728   5.08474   5.13503   5.16589   5.18404
 Alpha virt. eigenvalues --    5.28264
          Condensed to atoms (all electrons):
 Mulliken charges:
               1
     1  C    0.010551
     2  C   -0.362834
     3  C    0.006096
     4  C   -0.020775
     5  C    0.006237
     6  C    0.072279
     7  C    0.004324
     8  C   -0.018562
     9  C    0.039279
    10  C    0.008640
    11  C    0.002886
    12  C    0.047364
    13  C    0.005565
    14  C   -0.027490
    15  C    0.014256
    16  C   -0.022002
    17  C    0.039273
    18  C    0.049445
    19  C    0.056468
    20  C    0.056589
    21  C   -0.019599
    22  C   -0.019248
    23  C    0.004504
    24  C    0.000931
    25  C    0.069407
    26  C    0.071536
    27  C   -0.356543
    28  C   -0.355579
    29  C    0.088587
    30  C    0.089650
    31  C    0.092127
    32  C    0.087164
    33  C    0.002600
    34  C    0.000570
    35  C    0.034145
    36  C    0.036086
    37  C    0.074627
    38  C    0.047722
    39  C    0.119987
    40  C    0.078720
    41  C    0.002601
    42  C    0.045370
    43  C    0.082080
    44  C    0.119081
    45  C    0.046621
    46  C   -0.026889
    47  C    0.072402
    48  C    0.040707
    49  C   -0.043460
    50  C   -0.023085
    51  C   -0.006009
    52  C   -0.012652
    53  C   -0.021812
    54  C   -0.022611
    55  C   -0.020009
    56  C   -0.021101
    57  C   -0.022106
    58  C   -0.020139
    59  C   -0.007521
    60  C   -0.006383
    61  C   -0.036099
    62  C   -0.035028
    63  C    0.067767
    64  C    0.068063
    65  C    0.101091
    66  C    0.100674
    67  C    0.121737
    68  C    0.123978
    69  C   -0.369035
    70  C   -0.369370
    71  C    0.090947
    72  C    0.089799
    73  C    0.022611
    74  C    0.024161
    75  C   -0.010720
    76  C   -0.015511
    77  C   -0.044384
    78  C   -0.021307
    79  C   -0.364164
    80  C    0.012981
    81  C    0.003474
    82  C    0.076500
    83  C    0.057368
    84  C    0.057473
    85  Cl  -0.002181
    86  Cl   0.007369
    87  Cl   0.003169
    88  Cl  -0.003883
    89  Cl  -0.013540
    90  Cl  -0.014007
 Sum of Mulliken charges =  -0.00000
 Mulliken charges with hydrogens summed into heavy atoms:
               1
     1  C    0.010551
     2  C   -0.362834
     3  C    0.006096
     4  C   -0.020775
     5  C    0.006237
     6  C    0.072279
     7  C    0.004324
     8  C   -0.018562
     9  C    0.039279
    10  C    0.008640
    11  C    0.002886
    12  C    0.047364
    13  C    0.005565
    14  C   -0.027490
    15  C    0.014256
    16  C   -0.022002
    17  C    0.039273
    18  C    0.049445
    19  C    0.056468
    20  C    0.056589
    21  C   -0.019599
    22  C   -0.019248
    23  C    0.004504
    24  C    0.000931
    25  C    0.069407
    26  C    0.071536
    27  C   -0.356543
    28  C   -0.355579
    29  C    0.088587
    30  C    0.089650
    31  C    0.092127
    32  C    0.087164
    33  C    0.002600
    34  C    0.000570
    35  C    0.034145
    36  C    0.036086
    37  C    0.074627
    38  C    0.047722
    39  C    0.119987
    40  C    0.078720
    41  C    0.002601
    42  C    0.045370
    43  C    0.082080
    44  C    0.119081
    45  C    0.046621
    46  C   -0.026889
    47  C    0.072402
    48  C    0.040707
    49  C   -0.043460
    50  C   -0.023085
    51  C   -0.006009
    52  C   -0.012652
    53  C   -0.021812
    54  C   -0.022611
    55  C   -0.020009
    56  C   -0.021101
    57  C   -0.022106
    58  C   -0.020139
    59  C   -0.007521
    60  C   -0.006383
    61  C   -0.036099
    62  C   -0.035028
    63  C    0.067767
    64  C    0.068063
    65  C    0.101091
    66  C    0.100674
    67  C    0.121737
    68  C    0.123978
    69  C   -0.369035
    70  C   -0.369370
    71  C    0.090947
    72  C    0.089799
    73  C    0.022611
    74  C    0.024161
    75  C   -0.010720
    76  C   -0.015511
    77  C   -0.044384
    78  C   -0.021307
    79  C   -0.364164
    80  C    0.012981
    81  C    0.003474
    82  C    0.076500
    83  C    0.057368
    84  C    0.057473
    85  Cl  -0.002181
    86  Cl   0.007369
    87  Cl   0.003169
    88  Cl  -0.003883
    89  Cl  -0.013540
    90  Cl  -0.014007
 Electronic spatial extent (au):  <R**2>=          47002.4046
 Charge=              0.0000 electrons
 Dipole moment (field-independent basis, Debye):
    X=              2.5371    Y=              2.5390    Z=             -0.1538  Tot=              3.5927
 Quadrupole moment (field-independent basis, Debye-Ang):
   XX=           -576.9701   YY=           -533.6932   ZZ=           -528.9229
   XY=              2.2665   XZ=              6.2765   YZ=              1.5887
 Traceless Quadrupole moment (field-independent basis, Debye-Ang):
   XX=            -30.4414   YY=             12.8355   ZZ=             17.6058
   XY=              2.2665   XZ=              6.2765   YZ=              1.5887
 Octapole moment (field-independent basis, Debye-Ang**2):
  XXX=            -28.8065  YYY=            -46.3096  ZZZ=            -19.0128  XYY=             13.7027
  XXY=             45.6531  XXZ=             29.6123  XZZ=            -11.9935  YZZ=              2.3702
  YYZ=             -8.6065  XYZ=            -27.5337
 Hexadecapole moment (field-independent basis, Debye-Ang**3):
 XXXX=         -28819.9595 YYYY=         -20887.6439 ZZZZ=         -18954.1038 XXXY=            228.8912
 XXXZ=           -105.7799 YYYX=            -95.6139 YYYZ=            -14.3608 ZZZX=             46.4453
 ZZZY=            -18.9819 XXYY=          -8326.7981 XXZZ=          -7886.2621 YYZZ=          -6665.8075
 XXYZ=            -40.3448 YYXZ=             56.2701 ZZXY=            -22.0078
 N-N= 1.878013285670D+04 E-N=-5.152397487692D+04  KE= 5.923801238481D+03
 No NMR shielding tensors so no spin-rotation constants.
 Leave Link  601 at Sun Jun 26 17:48:57 2022, MaxMem=  1342177280 cpu:              24.0 elap:               1.2
 (Enter /home/mkliu/g16/l9999.exe)
 1\1\GINC-NODE05\FOpt\RB3LYP\6-31G(d,p)\C84Cl6\MKLIU\26-Jun-2022\0\\#P 
 opt b3lyp/6-31G(d, p) empiricaldispersion=GD3\\force\\0,1\C,8.28042841
 49,18.8889538043,10.5432903276\C,12.5186777234,19.9879155228,8.9049261
 204\C,8.2750547832,26.8893728101,10.5509085216\C,12.3125926342,25.6117
 290234,8.9694838138\C,7.9574414266,18.9458492232,9.1533118177\C,11.903
 4931417,19.5534171378,10.2142989299\C,7.9580290891,26.8243875297,9.158
 8330812\C,11.8837338595,26.2011959188,10.2154655039\C,8.9657936348,19.
 1154733283,8.1610354683\C,12.1556864359,20.2140515776,11.3777051649\C,
 12.1473046724,25.5526893017,11.3947008407\C,8.9717140202,26.6695860707
 ,8.1649907313\C,10.3039867273,19.0604765738,8.6205986902\C,10.30392591
 78,26.7523220806,8.6319269146\C,10.6292539805,18.939403223,10.00359114
 69\C,10.6206159089,26.8772405403,10.0138956603\C,9.6232075406,18.94173
 04226,11.0100576541\C,9.6158847486,26.8480005597,11.0202063967\C,9.899
 6587207,19.6174426326,12.2686398797\C,9.8934476458,26.1609823868,12.28
 21574334\C,8.8169864191,20.2203878132,12.9641379417\C,8.8113278687,25.
 5494966972,12.9677573289\C,7.4793690527,20.1931770498,12.4074607952\C,
 7.4701596892,25.5735650697,12.4115486643\C,7.2147851173,19.5062951534,
 11.2651403603\C,7.2096303493,26.2548649059,11.2692365003\C,6.089713864
 4,19.9307490432,10.3410694929\C,6.0905684529,25.8260787094,10.34054859
 28\C,6.6607330887,19.5285493237,9.0020886224\C,6.6669295549,26.2282237
 212,9.0049339974\C,6.3595440247,20.2008950155,7.8705047754\C,6.3689179
 823,25.5557316492,7.8728498036\C,7.3270260751,20.3186952294,6.81662710
 35\C,7.3413804523,25.4415324696,6.8222315309\C,8.6693171751,19.8653993
 193,6.9655540654\C,8.6736909489,25.9077750679,6.9646585319\C,9.7381617
 032,20.5893864044,6.2870418487\C,9.7429750174,25.172593235,6.285524092
 1\C,11.0853043114,20.5491463455,6.846702028\C,12.814296336,22.14407452
 45,7.763760426\C,12.7665417884,23.5829016663,7.7657119756\C,11.0800440
 652,25.1794993577,6.8593860414\C,11.3452492181,19.7756214569,7.9443328
 333\C,12.970785537,21.4398272942,8.9223552383\C,12.9438187723,24.33143
 45282,8.9484245035\C,11.3572243706,25.983713461,7.9833960314\C,13.1865
 678318,22.1584899832,10.1804362841\C,13.1900068299,23.6160752171,10.18
 81357921\C,12.8708000592,21.4896957013,11.3848507359\C,12.8640695341,2
 4.2899068551,11.3996899236\C,12.4063065431,22.1980553823,12.5317017829
 \C,12.40867977,23.5805785292,12.5417616148\C,11.1691316308,20.23505429
 25,12.4400698297\C,11.1660495478,25.5475813867,12.4664277336\C,11.3173
 817999,21.4602314501,13.1524643628\C,11.3134732382,24.3164317849,13.16
 72324018\C,8.9647963204,21.4542592703,13.6617714318\C,8.9607705274,24.
 3125292154,13.6588097191\C,7.7131928235,22.1859024359,13.5106268472\C,
 7.7101569749,23.5765066434,13.5107259021\C,6.842578735,21.4756055075,1
 2.6567393367\C,6.8422267126,24.2832927361,12.6537819644\C,6.1326154334
 ,22.1546611254,11.6125806841\C,6.1304365595,23.6024985612,11.612038953
 8\C,5.8399324956,21.4538227007,10.3901438891\C,5.8385521595,24.3034741
 764,10.3903054543\C,5.5485126589,22.1581105196,9.2189334171\C,5.548234
 2859,23.600070455,9.2187610917\C,5.4172830348,21.3931368729,7.88215169
 26\C,5.4246354002,24.3655136229,7.8829079317\C,5.9538946932,22.1990741
 281,6.7190472472\C,5.9587371405,23.5575548127,6.7217957456\C,7.0155505
 188,21.4814394501,6.0639491595\C,7.0285182978,24.2685404894,6.07150008
 03\C,8.0377307105,22.1500413279,5.3883043499\C,8.0393434948,23.5948150
 431,5.3973902948\C,9.3819893431,21.6854661354,5.4665862612\C,9.3896558
 007,24.0539206736,5.4945548356\C,12.1141145081,21.617991692,6.50914482
 88\C,11.9059957499,24.0204773995,6.7153948259\C,10.2355784709,22.87548
 23036,5.4156461109\C,11.469828449,22.8779533798,5.9871506103\C,10.2032
 430019,22.1449158704,13.7115977682\C,10.2020144102,23.6248834873,13.71
 72802795\Cl,4.5294881288,19.0305300191,10.7577544067\Cl,3.6568715104,2
 0.9083266684,7.6157982476\Cl,3.6632999532,24.853043991,7.6097033139\Cl
 ,4.5271332038,26.726354488,10.7518787433\Cl,13.3451443992,20.959205123
 ,5.2784802464\Cl,13.941982626,18.8705888958,8.46353742\\Version=ES64L-
 G16RevA.03\State=1-A\HF=-5962.2178433\RMSD=7.940e-09\RMSF=1.959e-05\Di
 pole=1.2503611,0.4764699,0.455454\Quadrupole=-19.4198542,7.1294495,12.
 2904047,8.555764,6.2651537,-3.3710111\PG=C01 [X(C84Cl6)]\\@


 IF YOU WANT TO LEARN FROM THE THEORETICAL PHYSICISTS ABOUT THE
 METHODS WHICH THEY USE, I ADVISE YOU TO FOLLOW THIS PRINCIPLE VERY STRICTLY:
 DON'T LISTEN TO THEIR WORDS; PAY ATTENTION, INSTEAD, TO THEIR ACTIONS.
 -- A.EINSTEIN, 1934
 Job cpu time:       1 days  6 hours 45 minutes  5.0 seconds.
 Elapsed time:       0 days  1 hours 16 minutes 59.3 seconds.
 File lengths (MBytes):  RWF=   1161 Int=      0 D2E=      0 Chk=    146 Scr=      1
 Normal termination of Gaussian 16 at Sun Jun 26 17:48:58 2022.
