 Entering Gaussian System, Link 0=g16
 Input=6_addons_C84_14_Cl22_rank_7.gjf
 Output=6_addons_C84_14_Cl22_rank_7.log
 Initial command:
 /home/mkliu/g16/l1.exe "/data/scratch/Gau-82386.inp" -scrdir="/data/scratch/"
 Entering Link 1 = /home/mkliu/g16/l1.exe PID=     82387.
  
 Copyright (c) 1988,1990,1992,1993,1995,1998,2003,2009,2016,
            Gaussian, Inc.  All Rights Reserved.
  
 This is part of the Gaussian(R) 16 program.  It is based on
 the Gaussian(R) 09 system (copyright 2009, Gaussian, Inc.),
 the Gaussian(R) 03 system (copyright 2003, Gaussian, Inc.),
 the Gaussian(R) 98 system (copyright 1998, Gaussian, Inc.),
 the Gaussian(R) 94 system (copyright 1995, Gaussian, Inc.),
 the Gaussian 92(TM) system (copyright 1992, Gaussian, Inc.),
 the Gaussian 90(TM) system (copyright 1990, Gaussian, Inc.),
 the Gaussian 88(TM) system (copyright 1988, Gaussian, Inc.),
 the Gaussian 86(TM) system (copyright 1986, Carnegie Mellon
 University), and the Gaussian 82(TM) system (copyright 1983,
 Carnegie Mellon University). Gaussian is a federally registered
 trademark of Gaussian, Inc.
  
 This software contains proprietary and confidential information,
 including trade secrets, belonging to Gaussian, Inc.
  
 This software is provided under written license and may be
 used, copied, transmitted, or stored only in accord with that
 written license.
  
 The following legend is applicable only to US Government
 contracts under FAR:
  
                    RESTRICTED RIGHTS LEGEND
  
 Use, reproduction and disclosure by the US Government is
 subject to restrictions as set forth in subparagraphs (a)
 and (c) of the Commercial Computer Software - Restricted
 Rights clause in FAR 52.227-19.
  
 Gaussian, Inc.
 340 Quinnipiac St., Bldg. 40, Wallingford CT 06492
  
  
 ---------------------------------------------------------------
 Warning -- This program may not be used in any manner that
 competes with the business of Gaussian, Inc. or will provide
 assistance to any competitor of Gaussian, Inc.  The licensee
 of this program is prohibited from giving any competitor of
 Gaussian, Inc. access to this program.  By using this program,
 the user acknowledges that Gaussian, Inc. is engaged in the
 business of creating and licensing software in the field of
 computational chemistry and represents and warrants to the
 licensee that it is not a competitor of Gaussian, Inc. and that
 it will not use this program in any manner prohibited above.
 ---------------------------------------------------------------
  

 Cite this work as:
 Gaussian 16, Revision A.03,
 M. J. Frisch, G. W. Trucks, H. B. Schlegel, G. E. Scuseria, 
 M. A. Robb, J. R. Cheeseman, G. Scalmani, V. Barone, 
 G. A. Petersson, H. Nakatsuji, X. Li, M. Caricato, A. V. Marenich, 
 J. Bloino, B. G. Janesko, R. Gomperts, B. Mennucci, H. P. Hratchian, 
 J. V. Ortiz, A. F. Izmaylov, J. L. Sonnenberg, D. Williams-Young, 
 F. Ding, F. Lipparini, F. Egidi, J. Goings, B. Peng, A. Petrone, 
 T. Henderson, D. Ranasinghe, V. G. Zakrzewski, J. Gao, N. Rega, 
 G. Zheng, W. Liang, M. Hada, M. Ehara, K. Toyota, R. Fukuda, 
 J. Hasegawa, M. Ishida, T. Nakajima, Y. Honda, O. Kitao, H. Nakai, 
 T. Vreven, K. Throssell, J. A. Montgomery, Jr., J. E. Peralta, 
 F. Ogliaro, M. J. Bearpark, J. J. Heyd, E. N. Brothers, K. N. Kudin, 
 V. N. Staroverov, T. A. Keith, R. Kobayashi, J. Normand, 
 K. Raghavachari, A. P. Rendell, J. C. Burant, S. S. Iyengar, 
 J. Tomasi, M. Cossi, J. M. Millam, M. Klene, C. Adamo, R. Cammi, 
 J. W. Ochterski, R. L. Martin, K. Morokuma, O. Farkas, 
 J. B. Foresman, and D. J. Fox, Gaussian, Inc., Wallingford CT, 2016.
 
 ******************************************
 Gaussian 16:  ES64L-G16RevA.03 25-Dec-2016
                28-Jun-2022 
 ******************************************
 %mem=10GB
 %chk=6_addons_C84_14_Cl22_rank_7.chk
 %nprocshared=24
 Will use up to   24 processors via shared memory.
 ------------------------------------------------
 #P opt b3lyp/6-31G(d, p) empiricaldispersion=GD3
 ------------------------------------------------
 1/18=20,19=15,26=3,38=1/1,3;
 2/9=110,12=2,17=6,18=5,40=1/2;
 3/5=1,6=6,7=101,11=2,25=1,30=1,71=1,74=-5,124=31/1,2,3;
 4//1;
 5/5=2,38=5/2;
 6/7=2,8=2,9=2,10=2,28=1/1;
 7//1,2,3,16;
 1/18=20,19=15,26=3/3(2);
 2/9=110/2;
 99//99;
 2/9=110/2;
 3/5=1,6=6,7=101,11=2,25=1,30=1,71=1,74=-5,124=31/1,2,3;
 4/5=5,16=3,69=1/1;
 5/5=2,38=5/2;
 7//1,2,3,16;
 1/18=20,19=15,26=3/3(-5);
 2/9=110/2;
 6/7=2,8=2,9=2,10=2,19=2,28=1/1;
 99/9=1/99;
 Leave Link    1 at Tue Jun 28 12:56:27 2022, MaxMem=  1342177280 cpu:               0.7 elap:               0.1
 (Enter /home/mkliu/g16/l101.exe)
 -----
 force
 -----
 Symbolic Z-matrix:
 Charge =  0 Multiplicity = 1
 C                     8.22277   18.61888   10.5675 
 C                     12.24597   20.18688   8.95181 
 C                     8.22304   27.13266   10.56932 
 C                     12.24617   25.56509   8.95294 
 C                     7.95937   18.89013   9.09915 
 C                     11.81536   19.61757   10.1841 
 C                     7.95964   26.862    9.10083 
 C                     11.81559   26.1339   10.18548 
 C                     8.93844   19.08222   8.11449 
 C                     12.07535   20.26099   11.37482 
 C                     12.07557   25.48997   11.37593 
 C                     8.93871   26.67028   8.1161 
 C                     10.27575   19.03524   8.57391 
 C                     10.27602   26.717    8.57554 
 C                     10.57669   18.95427   9.99254 
 C                     10.57696   26.79735   9.9942 
 C                     9.61985   18.97325   10.99469 
 C                     9.62011   26.778    10.99634 
 C                     9.89537   19.63545   12.22289 
 C                     9.89559   26.11526   12.22425 
 C                     8.78396   20.05438   13.14844 
 C                     8.78413   25.69603   13.14963 
 C                     7.49435   20.19939   12.37977 
 C                     7.49448   25.55143   12.38092 
 C                     7.23064   19.53835   11.22514 
 C                     7.23083   26.21297   11.22656 
 C                     6.36701   20.12938   10.27284 
 C                     6.36716   25.62239   10.27401 
 C                     6.74414   19.58814   9.00131 
 C                     6.74436   26.16412   9.0027 
 C                     6.40593   20.25986   7.8502 
 C                     6.40613   25.4929   7.85131 
 C                     7.31932   20.29655   6.75076 
 C                     7.31953   25.45662   6.75187 
 C                     8.64321   19.84771   6.91571 
 C                     8.64344   25.90532   6.91699 
 C                     9.69475   20.59049   6.24824 
 C                     9.69492   25.16275   6.2492 
 C                     11.0273   20.58867   6.81352 
 C                     12.71208   22.17087   7.73711 
 C                     12.71211   23.58155   7.73742 
 C                     11.02746   25.16425   6.81449 
 C                     11.28672   19.78935   7.95522 
 C                     12.87638   21.43849   8.93456 
 C                     12.8765   24.31344   8.93516 
 C                     11.28694   25.96308   7.95653 
 C                     13.1089   22.15782   10.17114 
 C                     13.10897   23.59358   10.17145 
 C                     12.77499   21.51036   11.37815 
 C                     12.77517   24.24057   11.37875 
 C                     12.38385   22.19618   12.55567 
 C                     12.38407   23.5543   12.55603 
 C                     11.1269   20.23182   12.42266 
 C                     11.1271   25.51874   12.42378 
 C                     11.43145   21.36875   13.37945 
 C                     11.43159   24.38141   13.38009 
 C                     8.99518   21.47415   13.63255 
 C                     8.99524   24.27605   13.63313 
 C                     7.79656   22.18827   13.43794 
 C                     7.7965    23.5621   13.43829 
 C                     6.91491   21.47769   12.56751 
 C                     6.91492   24.27311   12.56814 
 C                     6.15954   22.15229   11.58558 
 C                     6.15946   23.59896   11.58594 
 C                     5.85641   21.44016   10.38115 
 C                     5.85645   24.31161   10.38178 
 C                     5.50949   22.15631   9.16962 
 C                     5.5095    23.59598   9.16994 
 C                     5.68248   21.49007   7.93439 
 C                     5.68261   24.2627   7.93499 
 C                     5.964     22.18858   6.72041 
 C                     5.96417   23.56467   6.72075 
 C                     6.98524   21.46571   5.99947 
 C                     6.9854    24.28779   6.00009 
 C                     7.98203   22.15653   5.34549 
 C                     7.98212   23.5972   5.3458 
 C                     9.33526   21.7011   5.45565 
 C                     9.33537   24.05248   5.45615 
 C                     11.85633   21.71159   6.67586 
 C                     11.8564   24.04132   6.67637 
 C                     10.15868   22.87678   5.39482 
 C                     11.39361   22.87661   5.9971 
 C                     10.18949   22.16119   13.69042 
 C                     10.18955   23.58893   13.6907 
 Cl                    8.64514   18.89726   14.52771 
 Cl                    12.17944   20.76063   14.9072 
 Cl                    12.17953   24.98889   14.90813 
 Cl                    8.64541   26.85259   14.52938 
 Cl                    7.91866   16.87243   10.95938 
 Cl                    7.91899   28.87891   10.96182 
 
 ITRead=  0  0  0  0  0  0  0  0  0  0  0  0  0  0  0  0  0  0  0  0
 ITRead=  0  0  0  0  0  0  0  0  0  0  0  0  0  0  0  0  0  0  0  0
 ITRead=  0  0  0  0  0  0  0  0  0  0  0  0  0  0  0  0  0  0  0  0
 ITRead=  0  0  0  0  0  0  0  0  0  0  0  0  0  0  0  0  0  0  0  0
 ITRead=  0  0  0  0  0  0  0  0  0  0
 MicOpt= -1 -1 -1 -1 -1 -1 -1 -1 -1 -1 -1 -1 -1 -1 -1 -1 -1 -1 -1 -1
 MicOpt= -1 -1 -1 -1 -1 -1 -1 -1 -1 -1 -1 -1 -1 -1 -1 -1 -1 -1 -1 -1
 MicOpt= -1 -1 -1 -1 -1 -1 -1 -1 -1 -1 -1 -1 -1 -1 -1 -1 -1 -1 -1 -1
 MicOpt= -1 -1 -1 -1 -1 -1 -1 -1 -1 -1 -1 -1 -1 -1 -1 -1 -1 -1 -1 -1
 MicOpt= -1 -1 -1 -1 -1 -1 -1 -1 -1 -1
 NAtoms=     90 NQM=       90 NQMF=       0 NMMI=      0 NMMIF=      0
                NMic=       0 NMicF=      0.
                    Isotopes and Nuclear Properties:
 (Nuclear quadrupole moments (NQMom) in fm**2, nuclear magnetic moments (NMagM)
  in nuclear magnetons)

  Atom         1           2           3           4           5           6           7           8           9          10
 IAtWgt=          12          12          12          12          12          12          12          12          12          12
 AtmWgt=  12.0000000  12.0000000  12.0000000  12.0000000  12.0000000  12.0000000  12.0000000  12.0000000  12.0000000  12.0000000
 NucSpn=           0           0           0           0           0           0           0           0           0           0
 AtZEff=  -0.0000000  -0.0000000  -0.0000000  -0.0000000  -0.0000000  -0.0000000  -0.0000000  -0.0000000  -0.0000000  -0.0000000
 NQMom=    0.0000000   0.0000000   0.0000000   0.0000000   0.0000000   0.0000000   0.0000000   0.0000000   0.0000000   0.0000000
 NMagM=    0.0000000   0.0000000   0.0000000   0.0000000   0.0000000   0.0000000   0.0000000   0.0000000   0.0000000   0.0000000
 AtZNuc=   6.0000000   6.0000000   6.0000000   6.0000000   6.0000000   6.0000000   6.0000000   6.0000000   6.0000000   6.0000000

  Atom        11          12          13          14          15          16          17          18          19          20
 IAtWgt=          12          12          12          12          12          12          12          12          12          12
 AtmWgt=  12.0000000  12.0000000  12.0000000  12.0000000  12.0000000  12.0000000  12.0000000  12.0000000  12.0000000  12.0000000
 NucSpn=           0           0           0           0           0           0           0           0           0           0
 AtZEff=  -0.0000000  -0.0000000  -0.0000000  -0.0000000  -0.0000000  -0.0000000  -0.0000000  -0.0000000  -0.0000000  -0.0000000
 NQMom=    0.0000000   0.0000000   0.0000000   0.0000000   0.0000000   0.0000000   0.0000000   0.0000000   0.0000000   0.0000000
 NMagM=    0.0000000   0.0000000   0.0000000   0.0000000   0.0000000   0.0000000   0.0000000   0.0000000   0.0000000   0.0000000
 AtZNuc=   6.0000000   6.0000000   6.0000000   6.0000000   6.0000000   6.0000000   6.0000000   6.0000000   6.0000000   6.0000000

  Atom        21          22          23          24          25          26          27          28          29          30
 IAtWgt=          12          12          12          12          12          12          12          12          12          12
 AtmWgt=  12.0000000  12.0000000  12.0000000  12.0000000  12.0000000  12.0000000  12.0000000  12.0000000  12.0000000  12.0000000
 NucSpn=           0           0           0           0           0           0           0           0           0           0
 AtZEff=  -0.0000000  -0.0000000  -0.0000000  -0.0000000  -0.0000000  -0.0000000  -0.0000000  -0.0000000  -0.0000000  -0.0000000
 NQMom=    0.0000000   0.0000000   0.0000000   0.0000000   0.0000000   0.0000000   0.0000000   0.0000000   0.0000000   0.0000000
 NMagM=    0.0000000   0.0000000   0.0000000   0.0000000   0.0000000   0.0000000   0.0000000   0.0000000   0.0000000   0.0000000
 AtZNuc=   6.0000000   6.0000000   6.0000000   6.0000000   6.0000000   6.0000000   6.0000000   6.0000000   6.0000000   6.0000000

  Atom        31          32          33          34          35          36          37          38          39          40
 IAtWgt=          12          12          12          12          12          12          12          12          12          12
 AtmWgt=  12.0000000  12.0000000  12.0000000  12.0000000  12.0000000  12.0000000  12.0000000  12.0000000  12.0000000  12.0000000
 NucSpn=           0           0           0           0           0           0           0           0           0           0
 AtZEff=  -0.0000000  -0.0000000  -0.0000000  -0.0000000  -0.0000000  -0.0000000  -0.0000000  -0.0000000  -0.0000000  -0.0000000
 NQMom=    0.0000000   0.0000000   0.0000000   0.0000000   0.0000000   0.0000000   0.0000000   0.0000000   0.0000000   0.0000000
 NMagM=    0.0000000   0.0000000   0.0000000   0.0000000   0.0000000   0.0000000   0.0000000   0.0000000   0.0000000   0.0000000
 AtZNuc=   6.0000000   6.0000000   6.0000000   6.0000000   6.0000000   6.0000000   6.0000000   6.0000000   6.0000000   6.0000000

  Atom        41          42          43          44          45          46          47          48          49          50
 IAtWgt=          12          12          12          12          12          12          12          12          12          12
 AtmWgt=  12.0000000  12.0000000  12.0000000  12.0000000  12.0000000  12.0000000  12.0000000  12.0000000  12.0000000  12.0000000
 NucSpn=           0           0           0           0           0           0           0           0           0           0
 AtZEff=  -0.0000000  -0.0000000  -0.0000000  -0.0000000  -0.0000000  -0.0000000  -0.0000000  -0.0000000  -0.0000000  -0.0000000
 NQMom=    0.0000000   0.0000000   0.0000000   0.0000000   0.0000000   0.0000000   0.0000000   0.0000000   0.0000000   0.0000000
 NMagM=    0.0000000   0.0000000   0.0000000   0.0000000   0.0000000   0.0000000   0.0000000   0.0000000   0.0000000   0.0000000
 AtZNuc=   6.0000000   6.0000000   6.0000000   6.0000000   6.0000000   6.0000000   6.0000000   6.0000000   6.0000000   6.0000000

  Atom        51          52          53          54          55          56          57          58          59          60
 IAtWgt=          12          12          12          12          12          12          12          12          12          12
 AtmWgt=  12.0000000  12.0000000  12.0000000  12.0000000  12.0000000  12.0000000  12.0000000  12.0000000  12.0000000  12.0000000
 NucSpn=           0           0           0           0           0           0           0           0           0           0
 AtZEff=  -0.0000000  -0.0000000  -0.0000000  -0.0000000  -0.0000000  -0.0000000  -0.0000000  -0.0000000  -0.0000000  -0.0000000
 NQMom=    0.0000000   0.0000000   0.0000000   0.0000000   0.0000000   0.0000000   0.0000000   0.0000000   0.0000000   0.0000000
 NMagM=    0.0000000   0.0000000   0.0000000   0.0000000   0.0000000   0.0000000   0.0000000   0.0000000   0.0000000   0.0000000
 AtZNuc=   6.0000000   6.0000000   6.0000000   6.0000000   6.0000000   6.0000000   6.0000000   6.0000000   6.0000000   6.0000000

  Atom        61          62          63          64          65          66          67          68          69          70
 IAtWgt=          12          12          12          12          12          12          12          12          12          12
 AtmWgt=  12.0000000  12.0000000  12.0000000  12.0000000  12.0000000  12.0000000  12.0000000  12.0000000  12.0000000  12.0000000
 NucSpn=           0           0           0           0           0           0           0           0           0           0
 AtZEff=  -0.0000000  -0.0000000  -0.0000000  -0.0000000  -0.0000000  -0.0000000  -0.0000000  -0.0000000  -0.0000000  -0.0000000
 NQMom=    0.0000000   0.0000000   0.0000000   0.0000000   0.0000000   0.0000000   0.0000000   0.0000000   0.0000000   0.0000000
 NMagM=    0.0000000   0.0000000   0.0000000   0.0000000   0.0000000   0.0000000   0.0000000   0.0000000   0.0000000   0.0000000
 AtZNuc=   6.0000000   6.0000000   6.0000000   6.0000000   6.0000000   6.0000000   6.0000000   6.0000000   6.0000000   6.0000000

  Atom        71          72          73          74          75          76          77          78          79          80
 IAtWgt=          12          12          12          12          12          12          12          12          12          12
 AtmWgt=  12.0000000  12.0000000  12.0000000  12.0000000  12.0000000  12.0000000  12.0000000  12.0000000  12.0000000  12.0000000
 NucSpn=           0           0           0           0           0           0           0           0           0           0
 AtZEff=  -0.0000000  -0.0000000  -0.0000000  -0.0000000  -0.0000000  -0.0000000  -0.0000000  -0.0000000  -0.0000000  -0.0000000
 NQMom=    0.0000000   0.0000000   0.0000000   0.0000000   0.0000000   0.0000000   0.0000000   0.0000000   0.0000000   0.0000000
 NMagM=    0.0000000   0.0000000   0.0000000   0.0000000   0.0000000   0.0000000   0.0000000   0.0000000   0.0000000   0.0000000
 AtZNuc=   6.0000000   6.0000000   6.0000000   6.0000000   6.0000000   6.0000000   6.0000000   6.0000000   6.0000000   6.0000000

  Atom        81          82          83          84          85          86          87          88          89          90
 IAtWgt=          12          12          12          12          35          35          35          35          35          35
 AtmWgt=  12.0000000  12.0000000  12.0000000  12.0000000  34.9688527  34.9688527  34.9688527  34.9688527  34.9688527  34.9688527
 NucSpn=           0           0           0           0           3           3           3           3           3           3
 AtZEff=  -0.0000000  -0.0000000  -0.0000000  -0.0000000  -0.0000000  -0.0000000  -0.0000000  -0.0000000  -0.0000000  -0.0000000
 NQMom=    0.0000000   0.0000000   0.0000000   0.0000000  -8.1650000  -8.1650000  -8.1650000  -8.1650000  -8.1650000  -8.1650000
 NMagM=    0.0000000   0.0000000   0.0000000   0.0000000   0.8218740   0.8218740   0.8218740   0.8218740   0.8218740   0.8218740
 AtZNuc=   6.0000000   6.0000000   6.0000000   6.0000000  17.0000000  17.0000000  17.0000000  17.0000000  17.0000000  17.0000000
 Leave Link  101 at Tue Jun 28 12:56:28 2022, MaxMem=  1342177280 cpu:               6.6 elap:               0.3
 (Enter /home/mkliu/g16/l103.exe)

 GradGradGradGradGradGradGradGradGradGradGradGradGradGradGradGradGradGrad
 Berny optimization.
 Initialization pass.
                           ----------------------------
                           !    Initial Parameters    !
                           ! (Angstroms and Degrees)  !
 --------------------------                            --------------------------
 ! Name  Definition              Value          Derivative Info.                !
 --------------------------------------------------------------------------------
 ! R1    R(1,5)                  1.5163         estimate D2E/DX2                !
 ! R2    R(1,17)                 1.5033         estimate D2E/DX2                !
 ! R3    R(1,25)                 1.5041         estimate D2E/DX2                !
 ! R4    R(1,89)                 1.8155         estimate D2E/DX2                !
 ! R5    R(2,6)                  1.4241         estimate D2E/DX2                !
 ! R6    R(2,43)                 1.4392         estimate D2E/DX2                !
 ! R7    R(2,44)                 1.4015         estimate D2E/DX2                !
 ! R8    R(3,7)                  1.5163         estimate D2E/DX2                !
 ! R9    R(3,18)                 1.5033         estimate D2E/DX2                !
 ! R10   R(3,26)                 1.5041         estimate D2E/DX2                !
 ! R11   R(3,90)                 1.8155         estimate D2E/DX2                !
 ! R12   R(4,8)                  1.4241         estimate D2E/DX2                !
 ! R13   R(4,45)                 1.4015         estimate D2E/DX2                !
 ! R14   R(4,46)                 1.4392         estimate D2E/DX2                !
 ! R15   R(5,9)                  1.4018         estimate D2E/DX2                !
 ! R16   R(5,29)                 1.4048         estimate D2E/DX2                !
 ! R17   R(6,10)                 1.3782         estimate D2E/DX2                !
 ! R18   R(6,15)                 1.4181         estimate D2E/DX2                !
 ! R19   R(7,12)                 1.4018         estimate D2E/DX2                !
 ! R20   R(7,30)                 1.4048         estimate D2E/DX2                !
 ! R21   R(8,11)                 1.3782         estimate D2E/DX2                !
 ! R22   R(8,16)                 1.4181         estimate D2E/DX2                !
 ! R23   R(9,13)                 1.4148         estimate D2E/DX2                !
 ! R24   R(9,35)                 1.4527         estimate D2E/DX2                !
 ! R25   R(10,49)                1.4319         estimate D2E/DX2                !
 ! R26   R(10,53)                1.4136         estimate D2E/DX2                !
 ! R27   R(11,50)                1.4319         estimate D2E/DX2                !
 ! R28   R(11,54)                1.4136         estimate D2E/DX2                !
 ! R29   R(12,14)                1.4148         estimate D2E/DX2                !
 ! R30   R(12,36)                1.4527         estimate D2E/DX2                !
 ! R31   R(13,15)                1.4525         estimate D2E/DX2                !
 ! R32   R(13,43)                1.4048         estimate D2E/DX2                !
 ! R33   R(14,16)                1.4525         estimate D2E/DX2                !
 ! R34   R(14,46)                1.4048         estimate D2E/DX2                !
 ! R35   R(15,17)                1.3857         estimate D2E/DX2                !
 ! R36   R(16,18)                1.3857         estimate D2E/DX2                !
 ! R37   R(17,19)                1.4223         estimate D2E/DX2                !
 ! R38   R(18,20)                1.4223         estimate D2E/DX2                !
 ! R39   R(19,21)                1.5058         estimate D2E/DX2                !
 ! R40   R(19,53)                1.3828         estimate D2E/DX2                !
 ! R41   R(20,22)                1.5058         estimate D2E/DX2                !
 ! R42   R(20,54)                1.3828         estimate D2E/DX2                !
 ! R43   R(21,23)                1.5083         estimate D2E/DX2                !
 ! R44   R(21,57)                1.5148         estimate D2E/DX2                !
 ! R45   R(21,85)                1.8057         estimate D2E/DX2                !
 ! R46   R(22,24)                1.5083         estimate D2E/DX2                !
 ! R47   R(22,58)                1.5148         estimate D2E/DX2                !
 ! R48   R(22,88)                1.8057         estimate D2E/DX2                !
 ! R49   R(23,25)                1.3563         estimate D2E/DX2                !
 ! R50   R(23,61)                1.416          estimate D2E/DX2                !
 ! R51   R(24,26)                1.3563         estimate D2E/DX2                !
 ! R52   R(24,62)                1.416          estimate D2E/DX2                !
 ! R53   R(25,27)                1.4149         estimate D2E/DX2                !
 ! R54   R(26,28)                1.4149         estimate D2E/DX2                !
 ! R55   R(27,29)                1.4325         estimate D2E/DX2                !
 ! R56   R(27,65)                1.4109         estimate D2E/DX2                !
 ! R57   R(28,30)                1.4325         estimate D2E/DX2                !
 ! R58   R(28,66)                1.4109         estimate D2E/DX2                !
 ! R59   R(29,31)                1.375          estimate D2E/DX2                !
 ! R60   R(30,32)                1.375          estimate D2E/DX2                !
 ! R61   R(31,33)                1.4298         estimate D2E/DX2                !
 ! R62   R(31,69)                1.4296         estimate D2E/DX2                !
 ! R63   R(32,34)                1.4298         estimate D2E/DX2                !
 ! R64   R(32,70)                1.4296         estimate D2E/DX2                !
 ! R65   R(33,35)                1.4076         estimate D2E/DX2                !
 ! R66   R(33,73)                1.4293         estimate D2E/DX2                !
 ! R67   R(34,36)                1.4076         estimate D2E/DX2                !
 ! R68   R(34,74)                1.4293         estimate D2E/DX2                !
 ! R69   R(35,37)                1.4502         estimate D2E/DX2                !
 ! R70   R(36,38)                1.4502         estimate D2E/DX2                !
 ! R71   R(37,39)                1.4475         estimate D2E/DX2                !
 ! R72   R(37,77)                1.411          estimate D2E/DX2                !
 ! R73   R(38,42)                1.4475         estimate D2E/DX2                !
 ! R74   R(38,78)                1.411          estimate D2E/DX2                !
 ! R75   R(39,43)                1.4176         estimate D2E/DX2                !
 ! R76   R(39,79)                1.4026         estimate D2E/DX2                !
 ! R77   R(40,41)                1.4107         estimate D2E/DX2                !
 ! R78   R(40,44)                1.4132         estimate D2E/DX2                !
 ! R79   R(40,79)                1.4386         estimate D2E/DX2                !
 ! R80   R(41,45)                1.4132         estimate D2E/DX2                !
 ! R81   R(41,80)                1.4386         estimate D2E/DX2                !
 ! R82   R(42,46)                1.4176         estimate D2E/DX2                !
 ! R83   R(42,80)                1.4026         estimate D2E/DX2                !
 ! R84   R(44,47)                1.4494         estimate D2E/DX2                !
 ! R85   R(45,48)                1.4494         estimate D2E/DX2                !
 ! R86   R(47,48)                1.4358         estimate D2E/DX2                !
 ! R87   R(47,49)                1.4098         estimate D2E/DX2                !
 ! R88   R(48,50)                1.4098         estimate D2E/DX2                !
 ! R89   R(49,51)                1.4177         estimate D2E/DX2                !
 ! R90   R(50,52)                1.4177         estimate D2E/DX2                !
 ! R91   R(51,52)                1.3581         estimate D2E/DX2                !
 ! R92   R(51,55)                1.5068         estimate D2E/DX2                !
 ! R93   R(52,56)                1.5068         estimate D2E/DX2                !
 ! R94   R(53,55)                1.5168         estimate D2E/DX2                !
 ! R95   R(54,56)                1.5168         estimate D2E/DX2                !
 ! R96   R(55,83)                1.5057         estimate D2E/DX2                !
 ! R97   R(55,86)                1.8065         estimate D2E/DX2                !
 ! R98   R(56,84)                1.5057         estimate D2E/DX2                !
 ! R99   R(56,87)                1.8065         estimate D2E/DX2                !
 ! R100  R(57,59)                1.4087         estimate D2E/DX2                !
 ! R101  R(57,83)                1.379          estimate D2E/DX2                !
 ! R102  R(58,60)                1.4088         estimate D2E/DX2                !
 ! R103  R(58,84)                1.3791         estimate D2E/DX2                !
 ! R104  R(59,60)                1.3738         estimate D2E/DX2                !
 ! R105  R(59,61)                1.4282         estimate D2E/DX2                !
 ! R106  R(60,62)                1.4282         estimate D2E/DX2                !
 ! R107  R(61,63)                1.4106         estimate D2E/DX2                !
 ! R108  R(62,64)                1.4106         estimate D2E/DX2                !
 ! R109  R(63,64)                1.4467         estimate D2E/DX2                !
 ! R110  R(63,65)                1.4317         estimate D2E/DX2                !
 ! R111  R(64,66)                1.4317         estimate D2E/DX2                !
 ! R112  R(65,67)                1.4495         estimate D2E/DX2                !
 ! R113  R(66,68)                1.4495         estimate D2E/DX2                !
 ! R114  R(67,68)                1.4397         estimate D2E/DX2                !
 ! R115  R(67,69)                1.4141         estimate D2E/DX2                !
 ! R116  R(68,70)                1.4141         estimate D2E/DX2                !
 ! R117  R(69,71)                1.4286         estimate D2E/DX2                !
 ! R118  R(70,72)                1.4286         estimate D2E/DX2                !
 ! R119  R(71,72)                1.3761         estimate D2E/DX2                !
 ! R120  R(71,73)                1.444          estimate D2E/DX2                !
 ! R121  R(72,74)                1.444          estimate D2E/DX2                !
 ! R122  R(73,75)                1.3779         estimate D2E/DX2                !
 ! R123  R(74,76)                1.3779         estimate D2E/DX2                !
 ! R124  R(75,76)                1.4407         estimate D2E/DX2                !
 ! R125  R(75,77)                1.432          estimate D2E/DX2                !
 ! R126  R(76,78)                1.432          estimate D2E/DX2                !
 ! R127  R(77,81)                1.4366         estimate D2E/DX2                !
 ! R128  R(78,81)                1.4366         estimate D2E/DX2                !
 ! R129  R(79,82)                1.4255         estimate D2E/DX2                !
 ! R130  R(80,82)                1.4255         estimate D2E/DX2                !
 ! R131  R(81,82)                1.374          estimate D2E/DX2                !
 ! R132  R(83,84)                1.4277         estimate D2E/DX2                !
 ! A1    A(5,1,17)             113.2322         estimate D2E/DX2                !
 ! A2    A(5,1,25)             101.5063         estimate D2E/DX2                !
 ! A3    A(5,1,89)             110.6109         estimate D2E/DX2                !
 ! A4    A(17,1,25)            110.1613         estimate D2E/DX2                !
 ! A5    A(17,1,89)            108.7294         estimate D2E/DX2                !
 ! A6    A(25,1,89)            112.5316         estimate D2E/DX2                !
 ! A7    A(6,2,43)             106.6924         estimate D2E/DX2                !
 ! A8    A(6,2,44)             120.2428         estimate D2E/DX2                !
 ! A9    A(43,2,44)            122.5433         estimate D2E/DX2                !
 ! A10   A(7,3,18)             113.2303         estimate D2E/DX2                !
 ! A11   A(7,3,26)             101.5056         estimate D2E/DX2                !
 ! A12   A(7,3,90)             110.6092         estimate D2E/DX2                !
 ! A13   A(18,3,26)            110.1617         estimate D2E/DX2                !
 ! A14   A(18,3,90)            108.7328         estimate D2E/DX2                !
 ! A15   A(26,3,90)            112.5318         estimate D2E/DX2                !
 ! A16   A(8,4,45)             120.2426         estimate D2E/DX2                !
 ! A17   A(8,4,46)             106.6923         estimate D2E/DX2                !
 ! A18   A(45,4,46)            122.5429         estimate D2E/DX2                !
 ! A19   A(1,5,9)              125.6915         estimate D2E/DX2                !
 ! A20   A(1,5,29)             107.8546         estimate D2E/DX2                !
 ! A21   A(9,5,29)             119.1545         estimate D2E/DX2                !
 ! A22   A(2,6,10)             120.2605         estimate D2E/DX2                !
 ! A23   A(2,6,15)             109.5248         estimate D2E/DX2                !
 ! A24   A(10,6,15)            119.9908         estimate D2E/DX2                !
 ! A25   A(3,7,12)             125.692          estimate D2E/DX2                !
 ! A26   A(3,7,30)             107.8542         estimate D2E/DX2                !
 ! A27   A(12,7,30)            119.1556         estimate D2E/DX2                !
 ! A28   A(4,8,11)             120.2607         estimate D2E/DX2                !
 ! A29   A(4,8,16)             109.5248         estimate D2E/DX2                !
 ! A30   A(11,8,16)            119.9911         estimate D2E/DX2                !
 ! A31   A(5,9,13)             115.3116         estimate D2E/DX2                !
 ! A32   A(5,9,35)             120.6591         estimate D2E/DX2                !
 ! A33   A(13,9,35)            118.5271         estimate D2E/DX2                !
 ! A34   A(6,10,49)            120.1009         estimate D2E/DX2                !
 ! A35   A(6,10,53)            120.279          estimate D2E/DX2                !
 ! A36   A(49,10,53)           110.1258         estimate D2E/DX2                !
 ! A37   A(8,11,50)            120.1012         estimate D2E/DX2                !
 ! A38   A(8,11,54)            120.278          estimate D2E/DX2                !
 ! A39   A(50,11,54)           110.1264         estimate D2E/DX2                !
 ! A40   A(7,12,14)            115.312          estimate D2E/DX2                !
 ! A41   A(7,12,36)            120.659          estimate D2E/DX2                !
 ! A42   A(14,12,36)           118.527          estimate D2E/DX2                !
 ! A43   A(9,13,15)            120.9881         estimate D2E/DX2                !
 ! A44   A(9,13,43)            121.2913         estimate D2E/DX2                !
 ! A45   A(15,13,43)           108.1177         estimate D2E/DX2                !
 ! A46   A(12,14,16)           120.9877         estimate D2E/DX2                !
 ! A47   A(12,14,46)           121.2907         estimate D2E/DX2                !
 ! A48   A(16,14,46)           108.1177         estimate D2E/DX2                !
 ! A49   A(6,15,13)            106.669          estimate D2E/DX2                !
 ! A50   A(6,15,17)            119.9365         estimate D2E/DX2                !
 ! A51   A(13,15,17)           124.2304         estimate D2E/DX2                !
 ! A52   A(8,16,14)            106.6688         estimate D2E/DX2                !
 ! A53   A(8,16,18)            119.9368         estimate D2E/DX2                !
 ! A54   A(14,16,18)           124.2306         estimate D2E/DX2                !
 ! A55   A(1,17,15)            115.6567         estimate D2E/DX2                !
 ! A56   A(1,17,19)            122.3555         estimate D2E/DX2                !
 ! A57   A(15,17,19)           119.8103         estimate D2E/DX2                !
 ! A58   A(3,18,16)            115.6571         estimate D2E/DX2                !
 ! A59   A(3,18,20)            122.3553         estimate D2E/DX2                !
 ! A60   A(16,18,20)           119.8101         estimate D2E/DX2                !
 ! A61   A(17,19,21)           121.1542         estimate D2E/DX2                !
 ! A62   A(17,19,53)           119.8722         estimate D2E/DX2                !
 ! A63   A(21,19,53)           116.6503         estimate D2E/DX2                !
 ! A64   A(18,20,22)           121.1533         estimate D2E/DX2                !
 ! A65   A(18,20,54)           119.8719         estimate D2E/DX2                !
 ! A66   A(22,20,54)           116.6522         estimate D2E/DX2                !
 ! A67   A(19,21,23)           110.1555         estimate D2E/DX2                !
 ! A68   A(19,21,57)           110.7492         estimate D2E/DX2                !
 ! A69   A(19,21,85)           110.3627         estimate D2E/DX2                !
 ! A70   A(23,21,57)           101.0681         estimate D2E/DX2                !
 ! A71   A(23,21,85)           112.6531         estimate D2E/DX2                !
 ! A72   A(57,21,85)           111.5438         estimate D2E/DX2                !
 ! A73   A(20,22,24)           110.1575         estimate D2E/DX2                !
 ! A74   A(20,22,58)           110.7486         estimate D2E/DX2                !
 ! A75   A(20,22,88)           110.3622         estimate D2E/DX2                !
 ! A76   A(24,22,58)           101.0674         estimate D2E/DX2                !
 ! A77   A(24,22,88)           112.6525         estimate D2E/DX2                !
 ! A78   A(58,22,88)           111.5443         estimate D2E/DX2                !
 ! A79   A(21,23,25)           123.5878         estimate D2E/DX2                !
 ! A80   A(21,23,61)           111.6601         estimate D2E/DX2                !
 ! A81   A(25,23,61)           118.2476         estimate D2E/DX2                !
 ! A82   A(22,24,26)           123.5865         estimate D2E/DX2                !
 ! A83   A(22,24,62)           111.6614         estimate D2E/DX2                !
 ! A84   A(26,24,62)           118.2472         estimate D2E/DX2                !
 ! A85   A(1,25,23)            122.8132         estimate D2E/DX2                !
 ! A86   A(1,25,27)            111.327          estimate D2E/DX2                !
 ! A87   A(23,25,27)           119.211          estimate D2E/DX2                !
 ! A88   A(3,26,24)            122.813          estimate D2E/DX2                !
 ! A89   A(3,26,28)            111.3274         estimate D2E/DX2                !
 ! A90   A(24,26,28)           119.2113         estimate D2E/DX2                !
 ! A91   A(25,27,29)           106.1948         estimate D2E/DX2                !
 ! A92   A(25,27,65)           123.8688         estimate D2E/DX2                !
 ! A93   A(29,27,65)           120.9608         estimate D2E/DX2                !
 ! A94   A(26,28,30)           106.1943         estimate D2E/DX2                !
 ! A95   A(26,28,66)           123.8692         estimate D2E/DX2                !
 ! A96   A(30,28,66)           120.961          estimate D2E/DX2                !
 ! A97   A(5,29,27)            110.7106         estimate D2E/DX2                !
 ! A98   A(5,29,31)            120.9176         estimate D2E/DX2                !
 ! A99   A(27,29,31)           119.589          estimate D2E/DX2                !
 ! A100  A(7,30,28)            110.7118         estimate D2E/DX2                !
 ! A101  A(7,30,32)            120.9164         estimate D2E/DX2                !
 ! A102  A(28,30,32)           119.5893         estimate D2E/DX2                !
 ! A103  A(29,31,33)           119.9424         estimate D2E/DX2                !
 ! A104  A(29,31,69)           119.7056         estimate D2E/DX2                !
 ! A105  A(33,31,69)           110.2711         estimate D2E/DX2                !
 ! A106  A(30,32,34)           119.9429         estimate D2E/DX2                !
 ! A107  A(30,32,70)           119.7051         estimate D2E/DX2                !
 ! A108  A(34,32,70)           110.2714         estimate D2E/DX2                !
 ! A109  A(31,33,35)           120.1679         estimate D2E/DX2                !
 ! A110  A(31,33,73)           106.0123         estimate D2E/DX2                !
 ! A111  A(35,33,73)           122.8372         estimate D2E/DX2                !
 ! A112  A(32,34,36)           120.1686         estimate D2E/DX2                !
 ! A113  A(32,34,74)           106.0125         estimate D2E/DX2                !
 ! A114  A(36,34,74)           122.8365         estimate D2E/DX2                !
 ! A115  A(9,35,33)            117.1216         estimate D2E/DX2                !
 ! A116  A(9,35,37)            120.1569         estimate D2E/DX2                !
 ! A117  A(33,35,37)           117.6931         estimate D2E/DX2                !
 ! A118  A(12,36,34)           117.1209         estimate D2E/DX2                !
 ! A119  A(12,36,38)           120.1577         estimate D2E/DX2                !
 ! A120  A(34,36,38)           117.6926         estimate D2E/DX2                !
 ! A121  A(35,37,39)           119.1533         estimate D2E/DX2                !
 ! A122  A(35,37,77)           118.4873         estimate D2E/DX2                !
 ! A123  A(39,37,77)           117.059          estimate D2E/DX2                !
 ! A124  A(36,38,42)           119.1525         estimate D2E/DX2                !
 ! A125  A(36,38,78)           118.4879         estimate D2E/DX2                !
 ! A126  A(42,38,78)           117.0589         estimate D2E/DX2                !
 ! A127  A(37,39,43)           118.9264         estimate D2E/DX2                !
 ! A128  A(37,39,79)           120.3186         estimate D2E/DX2                !
 ! A129  A(43,39,79)           114.9794         estimate D2E/DX2                !
 ! A130  A(41,40,44)           121.2006         estimate D2E/DX2                !
 ! A131  A(41,40,79)           108.6287         estimate D2E/DX2                !
 ! A132  A(44,40,79)           121.9226         estimate D2E/DX2                !
 ! A133  A(40,41,45)           121.2026         estimate D2E/DX2                !
 ! A134  A(40,41,80)           108.6281         estimate D2E/DX2                !
 ! A135  A(45,41,80)           121.9236         estimate D2E/DX2                !
 ! A136  A(38,42,46)           118.9271         estimate D2E/DX2                !
 ! A137  A(38,42,80)           120.3175         estimate D2E/DX2                !
 ! A138  A(46,42,80)           114.9797         estimate D2E/DX2                !
 ! A139  A(2,43,13)            108.8416         estimate D2E/DX2                !
 ! A140  A(2,43,39)            121.5943         estimate D2E/DX2                !
 ! A141  A(13,43,39)           121.7127         estimate D2E/DX2                !
 ! A142  A(2,44,40)            114.8937         estimate D2E/DX2                !
 ! A143  A(2,44,47)            120.3237         estimate D2E/DX2                !
 ! A144  A(40,44,47)           118.9707         estimate D2E/DX2                !
 ! A145  A(4,45,41)            114.8934         estimate D2E/DX2                !
 ! A146  A(4,45,48)            120.3233         estimate D2E/DX2                !
 ! A147  A(41,45,48)           118.9705         estimate D2E/DX2                !
 ! A148  A(4,46,14)            108.8417         estimate D2E/DX2                !
 ! A149  A(4,46,42)            121.5946         estimate D2E/DX2                !
 ! A150  A(14,46,42)           121.7127         estimate D2E/DX2                !
 ! A151  A(44,47,48)           119.7691         estimate D2E/DX2                !
 ! A152  A(44,47,49)           117.6799         estimate D2E/DX2                !
 ! A153  A(48,47,49)           117.3277         estimate D2E/DX2                !
 ! A154  A(45,48,47)           119.7674         estimate D2E/DX2                !
 ! A155  A(45,48,50)           117.6808         estimate D2E/DX2                !
 ! A156  A(47,48,50)           117.3285         estimate D2E/DX2                !
 ! A157  A(10,49,47)           120.9592         estimate D2E/DX2                !
 ! A158  A(10,49,51)           106.8107         estimate D2E/DX2                !
 ! A159  A(47,49,51)           123.6614         estimate D2E/DX2                !
 ! A160  A(11,50,48)           120.9578         estimate D2E/DX2                !
 ! A161  A(11,50,52)           106.8113         estimate D2E/DX2                !
 ! A162  A(48,50,52)           123.6617         estimate D2E/DX2                !
 ! A163  A(49,51,52)           118.9421         estimate D2E/DX2                !
 ! A164  A(49,51,55)           111.2747         estimate D2E/DX2                !
 ! A165  A(52,51,55)           123.3055         estimate D2E/DX2                !
 ! A166  A(50,52,51)           118.94           estimate D2E/DX2                !
 ! A167  A(50,52,56)           111.273          estimate D2E/DX2                !
 ! A168  A(51,52,56)           123.2962         estimate D2E/DX2                !
 ! A169  A(10,53,19)           119.9555         estimate D2E/DX2                !
 ! A170  A(10,53,55)           108.5048         estimate D2E/DX2                !
 ! A171  A(19,53,55)           126.384          estimate D2E/DX2                !
 ! A172  A(11,54,20)           119.9563         estimate D2E/DX2                !
 ! A173  A(11,54,56)           108.5046         estimate D2E/DX2                !
 ! A174  A(20,54,56)           126.3835         estimate D2E/DX2                !
 ! A175  A(51,55,53)           101.166          estimate D2E/DX2                !
 ! A176  A(51,55,83)           110.1983         estimate D2E/DX2                !
 ! A177  A(51,55,86)           112.6754         estimate D2E/DX2                !
 ! A178  A(53,55,83)           111.0473         estimate D2E/DX2                !
 ! A179  A(53,55,86)           111.363          estimate D2E/DX2                !
 ! A180  A(83,55,86)           110.1233         estimate D2E/DX2                !
 ! A181  A(52,56,54)           101.1677         estimate D2E/DX2                !
 ! A182  A(52,56,84)           110.2026         estimate D2E/DX2                !
 ! A183  A(52,56,87)           112.6734         estimate D2E/DX2                !
 ! A184  A(54,56,84)           111.0451         estimate D2E/DX2                !
 ! A185  A(54,56,87)           111.3623         estimate D2E/DX2                !
 ! A186  A(84,56,87)           110.1223         estimate D2E/DX2                !
 ! A187  A(21,57,59)           108.1999         estimate D2E/DX2                !
 ! A188  A(21,57,83)           126.9491         estimate D2E/DX2                !
 ! A189  A(59,57,83)           119.3481         estimate D2E/DX2                !
 ! A190  A(22,58,60)           108.1995         estimate D2E/DX2                !
 ! A191  A(22,58,84)           126.9466         estimate D2E/DX2                !
 ! A192  A(60,58,84)           119.3522         estimate D2E/DX2                !
 ! A193  A(57,59,60)           120.4594         estimate D2E/DX2                !
 ! A194  A(57,59,61)           110.9283         estimate D2E/DX2                !
 ! A195  A(60,59,61)           119.845          estimate D2E/DX2                !
 ! A196  A(58,60,59)           120.4499         estimate D2E/DX2                !
 ! A197  A(58,60,62)           110.9281         estimate D2E/DX2                !
 ! A198  A(59,60,62)           119.8471         estimate D2E/DX2                !
 ! A199  A(23,61,59)           106.1018         estimate D2E/DX2                !
 ! A200  A(23,61,63)           123.9565         estimate D2E/DX2                !
 ! A201  A(59,61,63)           121.121          estimate D2E/DX2                !
 ! A202  A(24,62,60)           106.1009         estimate D2E/DX2                !
 ! A203  A(24,62,64)           123.9571         estimate D2E/DX2                !
 ! A204  A(60,62,64)           121.1221         estimate D2E/DX2                !
 ! A205  A(61,63,64)           118.5609         estimate D2E/DX2                !
 ! A206  A(61,63,65)           117.4583         estimate D2E/DX2                !
 ! A207  A(64,63,65)           119.8421         estimate D2E/DX2                !
 ! A208  A(62,64,63)           118.5575         estimate D2E/DX2                !
 ! A209  A(62,64,66)           117.4577         estimate D2E/DX2                !
 ! A210  A(63,64,66)           119.8399         estimate D2E/DX2                !
 ! A211  A(27,65,63)           116.7493         estimate D2E/DX2                !
 ! A212  A(27,65,67)           118.7811         estimate D2E/DX2                !
 ! A213  A(63,65,67)           120.5363         estimate D2E/DX2                !
 ! A214  A(28,66,64)           116.7493         estimate D2E/DX2                !
 ! A215  A(28,66,68)           118.7808         estimate D2E/DX2                !
 ! A216  A(64,66,68)           120.5365         estimate D2E/DX2                !
 ! A217  A(65,67,68)           119.596          estimate D2E/DX2                !
 ! A218  A(65,67,69)           117.9088         estimate D2E/DX2                !
 ! A219  A(68,67,69)           118.1211         estimate D2E/DX2                !
 ! A220  A(66,68,67)           119.5968         estimate D2E/DX2                !
 ! A221  A(66,68,70)           117.9083         estimate D2E/DX2                !
 ! A222  A(67,68,70)           118.119          estimate D2E/DX2                !
 ! A223  A(31,69,67)           121.2496         estimate D2E/DX2                !
 ! A224  A(31,69,71)           105.7224         estimate D2E/DX2                !
 ! A225  A(67,69,71)           122.4143         estimate D2E/DX2                !
 ! A226  A(32,70,68)           121.251          estimate D2E/DX2                !
 ! A227  A(32,70,72)           105.7214         estimate D2E/DX2                !
 ! A228  A(68,70,72)           122.4141         estimate D2E/DX2                !
 ! A229  A(69,71,72)           119.2588         estimate D2E/DX2                !
 ! A230  A(69,71,73)           108.5933         estimate D2E/DX2                !
 ! A231  A(72,71,73)           120.0414         estimate D2E/DX2                !
 ! A232  A(70,72,71)           119.262          estimate D2E/DX2                !
 ! A233  A(70,72,74)           108.5954         estimate D2E/DX2                !
 ! A234  A(71,72,74)           120.0489         estimate D2E/DX2                !
 ! A235  A(33,73,71)           108.2013         estimate D2E/DX2                !
 ! A236  A(33,73,75)           119.3729         estimate D2E/DX2                !
 ! A237  A(71,73,75)           119.8418         estimate D2E/DX2                !
 ! A238  A(34,74,72)           108.2003         estimate D2E/DX2                !
 ! A239  A(34,74,76)           119.3746         estimate D2E/DX2                !
 ! A240  A(72,74,76)           119.8405         estimate D2E/DX2                !
 ! A241  A(73,75,76)           120.0866         estimate D2E/DX2                !
 ! A242  A(73,75,77)           119.1869         estimate D2E/DX2                !
 ! A243  A(76,75,77)           108.5388         estimate D2E/DX2                !
 ! A244  A(74,76,75)           120.0841         estimate D2E/DX2                !
 ! A245  A(74,76,78)           119.1861         estimate D2E/DX2                !
 ! A246  A(75,76,78)           108.5424         estimate D2E/DX2                !
 ! A247  A(37,77,75)           122.2955         estimate D2E/DX2                !
 ! A248  A(37,77,81)           121.4594         estimate D2E/DX2                !
 ! A249  A(75,77,81)           106.1468         estimate D2E/DX2                !
 ! A250  A(38,78,76)           122.2952         estimate D2E/DX2                !
 ! A251  A(38,78,81)           121.4608         estimate D2E/DX2                !
 ! A252  A(76,78,81)           106.1453         estimate D2E/DX2                !
 ! A253  A(39,79,40)           122.3313         estimate D2E/DX2                !
 ! A254  A(39,79,82)           120.6094         estimate D2E/DX2                !
 ! A255  A(40,79,82)           106.4655         estimate D2E/DX2                !
 ! A256  A(41,80,42)           122.3307         estimate D2E/DX2                !
 ! A257  A(41,80,82)           106.4662         estimate D2E/DX2                !
 ! A258  A(42,80,82)           120.6104         estimate D2E/DX2                !
 ! A259  A(77,81,78)           109.8432         estimate D2E/DX2                !
 ! A260  A(77,81,82)           119.7684         estimate D2E/DX2                !
 ! A261  A(78,81,82)           119.7673         estimate D2E/DX2                !
 ! A262  A(79,82,80)           109.6005         estimate D2E/DX2                !
 ! A263  A(79,82,81)           120.0377         estimate D2E/DX2                !
 ! A264  A(80,82,81)           120.0376         estimate D2E/DX2                !
 ! A265  A(55,83,57)           116.3259         estimate D2E/DX2                !
 ! A266  A(55,83,84)           121.756          estimate D2E/DX2                !
 ! A267  A(57,83,84)           119.884          estimate D2E/DX2                !
 ! A268  A(56,84,58)           116.329          estimate D2E/DX2                !
 ! A269  A(56,84,83)           121.7564         estimate D2E/DX2                !
 ! A270  A(58,84,83)           119.8816         estimate D2E/DX2                !
 ! D1    D(17,1,5,9)            17.4609         estimate D2E/DX2                !
 ! D2    D(17,1,5,29)         -132.0331         estimate D2E/DX2                !
 ! D3    D(25,1,5,9)           135.5052         estimate D2E/DX2                !
 ! D4    D(25,1,5,29)          -13.9888         estimate D2E/DX2                !
 ! D5    D(89,1,5,9)          -104.8676         estimate D2E/DX2                !
 ! D6    D(89,1,5,29)          105.6384         estimate D2E/DX2                !
 ! D7    D(5,1,17,15)          -25.3195         estimate D2E/DX2                !
 ! D8    D(5,1,17,19)          137.8519         estimate D2E/DX2                !
 ! D9    D(25,1,17,15)        -138.2029         estimate D2E/DX2                !
 ! D10   D(25,1,17,19)          24.9685         estimate D2E/DX2                !
 ! D11   D(89,1,17,15)          98.0507         estimate D2E/DX2                !
 ! D12   D(89,1,17,19)         -98.7779         estimate D2E/DX2                !
 ! D13   D(5,1,25,23)         -143.6            estimate D2E/DX2                !
 ! D14   D(5,1,25,27)            7.4579         estimate D2E/DX2                !
 ! D15   D(17,1,25,23)         -23.3638         estimate D2E/DX2                !
 ! D16   D(17,1,25,27)         127.6941         estimate D2E/DX2                !
 ! D17   D(89,1,25,23)          98.1461         estimate D2E/DX2                !
 ! D18   D(89,1,25,27)        -110.7959         estimate D2E/DX2                !
 ! D19   D(43,2,6,10)         -148.8689         estimate D2E/DX2                !
 ! D20   D(43,2,6,15)           -3.6929         estimate D2E/DX2                !
 ! D21   D(44,2,6,10)           -3.2897         estimate D2E/DX2                !
 ! D22   D(44,2,6,15)          141.8863         estimate D2E/DX2                !
 ! D23   D(6,2,43,13)            1.8828         estimate D2E/DX2                !
 ! D24   D(6,2,43,39)          151.4199         estimate D2E/DX2                !
 ! D25   D(44,2,43,13)        -142.7166         estimate D2E/DX2                !
 ! D26   D(44,2,43,39)           6.8206         estimate D2E/DX2                !
 ! D27   D(6,2,44,40)         -152.1995         estimate D2E/DX2                !
 ! D28   D(6,2,44,47)            0.6779         estimate D2E/DX2                !
 ! D29   D(43,2,44,40)         -12.1628         estimate D2E/DX2                !
 ! D30   D(43,2,44,47)         140.7146         estimate D2E/DX2                !
 ! D31   D(18,3,7,12)          -17.4633         estimate D2E/DX2                !
 ! D32   D(18,3,7,30)          132.0331         estimate D2E/DX2                !
 ! D33   D(26,3,7,12)         -135.5068         estimate D2E/DX2                !
 ! D34   D(26,3,7,30)           13.9896         estimate D2E/DX2                !
 ! D35   D(90,3,7,12)          104.867          estimate D2E/DX2                !
 ! D36   D(90,3,7,30)         -105.6366         estimate D2E/DX2                !
 ! D37   D(7,3,18,16)           25.3212         estimate D2E/DX2                !
 ! D38   D(7,3,18,20)         -137.8506         estimate D2E/DX2                !
 ! D39   D(26,3,18,16)         138.2028         estimate D2E/DX2                !
 ! D40   D(26,3,18,20)         -24.9689         estimate D2E/DX2                !
 ! D41   D(90,3,18,16)         -98.048          estimate D2E/DX2                !
 ! D42   D(90,3,18,20)          98.7802         estimate D2E/DX2                !
 ! D43   D(7,3,26,24)          143.5996         estimate D2E/DX2                !
 ! D44   D(7,3,26,28)           -7.4594         estimate D2E/DX2                !
 ! D45   D(18,3,26,24)          23.3658         estimate D2E/DX2                !
 ! D46   D(18,3,26,28)        -127.6932         estimate D2E/DX2                !
 ! D47   D(90,3,26,24)         -98.1489         estimate D2E/DX2                !
 ! D48   D(90,3,26,28)         110.792          estimate D2E/DX2                !
 ! D49   D(45,4,8,11)            3.2914         estimate D2E/DX2                !
 ! D50   D(45,4,8,16)         -141.8854         estimate D2E/DX2                !
 ! D51   D(46,4,8,11)          148.8694         estimate D2E/DX2                !
 ! D52   D(46,4,8,16)            3.6926         estimate D2E/DX2                !
 ! D53   D(8,4,45,41)          152.1969         estimate D2E/DX2                !
 ! D54   D(8,4,45,48)           -0.6787         estimate D2E/DX2                !
 ! D55   D(46,4,45,41)          12.1615         estimate D2E/DX2                !
 ! D56   D(46,4,45,48)        -140.7141         estimate D2E/DX2                !
 ! D57   D(8,4,46,14)           -1.8816         estimate D2E/DX2                !
 ! D58   D(8,4,46,42)         -151.4194         estimate D2E/DX2                !
 ! D59   D(45,4,46,14)         142.7166         estimate D2E/DX2                !
 ! D60   D(45,4,46,42)          -6.8212         estimate D2E/DX2                !
 ! D61   D(1,5,9,13)            -1.1813         estimate D2E/DX2                !
 ! D62   D(1,5,9,35)          -154.6251         estimate D2E/DX2                !
 ! D63   D(29,5,9,13)          145.2267         estimate D2E/DX2                !
 ! D64   D(29,5,9,35)           -8.2171         estimate D2E/DX2                !
 ! D65   D(1,5,29,27)           16.2607         estimate D2E/DX2                !
 ! D66   D(1,5,29,31)          163.5864         estimate D2E/DX2                !
 ! D67   D(9,5,29,27)         -135.5692         estimate D2E/DX2                !
 ! D68   D(9,5,29,31)           11.7565         estimate D2E/DX2                !
 ! D69   D(2,6,10,49)            0.3125         estimate D2E/DX2                !
 ! D70   D(2,6,10,53)          143.348          estimate D2E/DX2                !
 ! D71   D(15,6,10,49)        -141.2672         estimate D2E/DX2                !
 ! D72   D(15,6,10,53)           1.7684         estimate D2E/DX2                !
 ! D73   D(2,6,15,13)            4.0295         estimate D2E/DX2                !
 ! D74   D(2,6,15,17)         -144.1859         estimate D2E/DX2                !
 ! D75   D(10,6,15,13)         149.3141         estimate D2E/DX2                !
 ! D76   D(10,6,15,17)           1.0987         estimate D2E/DX2                !
 ! D77   D(3,7,12,14)            1.1828         estimate D2E/DX2                !
 ! D78   D(3,7,12,36)          154.627          estimate D2E/DX2                !
 ! D79   D(30,7,12,14)        -145.2275         estimate D2E/DX2                !
 ! D80   D(30,7,12,36)           8.2167         estimate D2E/DX2                !
 ! D81   D(3,7,30,28)          -16.2609         estimate D2E/DX2                !
 ! D82   D(3,7,30,32)         -163.5873         estimate D2E/DX2                !
 ! D83   D(12,7,30,28)         135.5711         estimate D2E/DX2                !
 ! D84   D(12,7,30,32)         -11.7553         estimate D2E/DX2                !
 ! D85   D(4,8,11,50)           -0.3118         estimate D2E/DX2                !
 ! D86   D(4,8,11,54)         -143.3474         estimate D2E/DX2                !
 ! D87   D(16,8,11,50)         141.2687         estimate D2E/DX2                !
 ! D88   D(16,8,11,54)          -1.7669         estimate D2E/DX2                !
 ! D89   D(4,8,16,14)           -4.0301         estimate D2E/DX2                !
 ! D90   D(4,8,16,18)          144.186          estimate D2E/DX2                !
 ! D91   D(11,8,16,14)        -149.3155         estimate D2E/DX2                !
 ! D92   D(11,8,16,18)          -1.0994         estimate D2E/DX2                !
 ! D93   D(5,9,13,15)           -7.05           estimate D2E/DX2                !
 ! D94   D(5,9,13,43)         -149.1908         estimate D2E/DX2                !
 ! D95   D(35,9,13,15)         146.9912         estimate D2E/DX2                !
 ! D96   D(35,9,13,43)           4.8504         estimate D2E/DX2                !
 ! D97   D(5,9,35,33)           -4.409          estimate D2E/DX2                !
 ! D98   D(5,9,35,37)          149.9439         estimate D2E/DX2                !
 ! D99   D(13,9,35,33)        -157.0218         estimate D2E/DX2                !
 ! D100  D(13,9,35,37)          -2.6688         estimate D2E/DX2                !
 ! D101  D(6,10,49,47)           5.3949         estimate D2E/DX2                !
 ! D102  D(6,10,49,51)         154.317          estimate D2E/DX2                !
 ! D103  D(53,10,49,47)       -141.028          estimate D2E/DX2                !
 ! D104  D(53,10,49,51)          7.8941         estimate D2E/DX2                !
 ! D105  D(6,10,53,19)          -4.4804         estimate D2E/DX2                !
 ! D106  D(6,10,53,55)        -160.6676         estimate D2E/DX2                !
 ! D107  D(49,10,53,19)        141.8736         estimate D2E/DX2                !
 ! D108  D(49,10,53,55)        -14.3135         estimate D2E/DX2                !
 ! D109  D(8,11,50,48)          -5.3989         estimate D2E/DX2                !
 ! D110  D(8,11,50,52)        -154.3202         estimate D2E/DX2                !
 ! D111  D(54,11,50,48)        141.0236         estimate D2E/DX2                !
 ! D112  D(54,11,50,52)         -7.8977         estimate D2E/DX2                !
 ! D113  D(8,11,54,20)           4.4798         estimate D2E/DX2                !
 ! D114  D(8,11,54,56)         160.667          estimate D2E/DX2                !
 ! D115  D(50,11,54,20)       -141.8744         estimate D2E/DX2                !
 ! D116  D(50,11,54,56)         14.3129         estimate D2E/DX2                !
 ! D117  D(7,12,14,16)           7.0505         estimate D2E/DX2                !
 ! D118  D(7,12,14,46)         149.1897         estimate D2E/DX2                !
 ! D119  D(36,12,14,16)       -146.9911         estimate D2E/DX2                !
 ! D120  D(36,12,14,46)         -4.8519         estimate D2E/DX2                !
 ! D121  D(7,12,36,34)           4.4084         estimate D2E/DX2                !
 ! D122  D(7,12,36,38)        -149.9432         estimate D2E/DX2                !
 ! D123  D(14,12,36,34)        157.0217         estimate D2E/DX2                !
 ! D124  D(14,12,36,38)          2.6701         estimate D2E/DX2                !
 ! D125  D(9,13,15,6)         -149.3178         estimate D2E/DX2                !
 ! D126  D(9,13,15,17)          -2.8277         estimate D2E/DX2                !
 ! D127  D(43,13,15,6)          -2.809          estimate D2E/DX2                !
 ! D128  D(43,13,15,17)        143.6811         estimate D2E/DX2                !
 ! D129  D(9,13,43,2)          146.9567         estimate D2E/DX2                !
 ! D130  D(9,13,43,39)          -2.5374         estimate D2E/DX2                !
 ! D131  D(15,13,43,2)           0.5694         estimate D2E/DX2                !
 ! D132  D(15,13,43,39)       -148.9247         estimate D2E/DX2                !
 ! D133  D(12,14,16,8)         149.3175         estimate D2E/DX2                !
 ! D134  D(12,14,16,18)          2.8267         estimate D2E/DX2                !
 ! D135  D(46,14,16,8)           2.8103         estimate D2E/DX2                !
 ! D136  D(46,14,16,18)       -143.6805         estimate D2E/DX2                !
 ! D137  D(12,14,46,4)        -146.9567         estimate D2E/DX2                !
 ! D138  D(12,14,46,42)          2.5382         estimate D2E/DX2                !
 ! D139  D(16,14,46,4)          -0.571          estimate D2E/DX2                !
 ! D140  D(16,14,46,42)        148.924          estimate D2E/DX2                !
 ! D141  D(6,15,17,1)          162.343          estimate D2E/DX2                !
 ! D142  D(6,15,17,19)          -1.2859         estimate D2E/DX2                !
 ! D143  D(13,15,17,1)          19.9548         estimate D2E/DX2                !
 ! D144  D(13,15,17,19)       -143.674          estimate D2E/DX2                !
 ! D145  D(8,16,18,3)         -162.3441         estimate D2E/DX2                !
 ! D146  D(8,16,18,20)           1.2851         estimate D2E/DX2                !
 ! D147  D(14,16,18,3)         -19.9553         estimate D2E/DX2                !
 ! D148  D(14,16,18,20)        143.6739         estimate D2E/DX2                !
 ! D149  D(1,17,19,21)          -1.797          estimate D2E/DX2                !
 ! D150  D(1,17,19,53)        -163.9118         estimate D2E/DX2                !
 ! D151  D(15,17,19,21)        160.6995         estimate D2E/DX2                !
 ! D152  D(15,17,19,53)         -1.4152         estimate D2E/DX2                !
 ! D153  D(3,18,20,22)           1.7965         estimate D2E/DX2                !
 ! D154  D(3,18,20,54)         163.9138         estimate D2E/DX2                !
 ! D155  D(16,18,20,22)       -160.7005         estimate D2E/DX2                !
 ! D156  D(16,18,20,54)          1.4168         estimate D2E/DX2                !
 ! D157  D(17,19,21,23)        -23.0534         estimate D2E/DX2                !
 ! D158  D(17,19,21,57)       -134.0147         estimate D2E/DX2                !
 ! D159  D(17,19,21,85)        101.9661         estimate D2E/DX2                !
 ! D160  D(53,19,21,23)        139.6112         estimate D2E/DX2                !
 ! D161  D(53,19,21,57)         28.6499         estimate D2E/DX2                !
 ! D162  D(53,19,21,85)        -95.3692         estimate D2E/DX2                !
 ! D163  D(17,19,53,10)          4.2723         estimate D2E/DX2                !
 ! D164  D(17,19,53,55)        155.8748         estimate D2E/DX2                !
 ! D165  D(21,19,53,10)       -158.6265         estimate D2E/DX2                !
 ! D166  D(21,19,53,55)         -7.0241         estimate D2E/DX2                !
 ! D167  D(18,20,22,24)         23.054          estimate D2E/DX2                !
 ! D168  D(18,20,22,58)        134.0153         estimate D2E/DX2                !
 ! D169  D(18,20,22,88)       -101.9658         estimate D2E/DX2                !
 ! D170  D(54,20,22,24)       -139.6128         estimate D2E/DX2                !
 ! D171  D(54,20,22,58)        -28.6515         estimate D2E/DX2                !
 ! D172  D(54,20,22,88)         95.3674         estimate D2E/DX2                !
 ! D173  D(18,20,54,11)         -4.2732         estimate D2E/DX2                !
 ! D174  D(18,20,54,56)       -155.8759         estimate D2E/DX2                !
 ! D175  D(22,20,54,11)        158.6276         estimate D2E/DX2                !
 ! D176  D(22,20,54,56)          7.0249         estimate D2E/DX2                !
 ! D177  D(19,21,23,25)         25.4802         estimate D2E/DX2                !
 ! D178  D(19,21,23,61)       -125.5699         estimate D2E/DX2                !
 ! D179  D(57,21,23,25)        142.6314         estimate D2E/DX2                !
 ! D180  D(57,21,23,61)         -8.4187         estimate D2E/DX2                !
 ! D181  D(85,21,23,25)        -98.219          estimate D2E/DX2                !
 ! D182  D(85,21,23,61)        110.7308         estimate D2E/DX2                !
 ! D183  D(19,21,57,59)        130.2068         estimate D2E/DX2                !
 ! D184  D(19,21,57,83)        -23.0299         estimate D2E/DX2                !
 ! D185  D(23,21,57,59)         13.4913         estimate D2E/DX2                !
 ! D186  D(23,21,57,83)       -139.7453         estimate D2E/DX2                !
 ! D187  D(85,21,57,59)       -106.4528         estimate D2E/DX2                !
 ! D188  D(85,21,57,83)        100.3106         estimate D2E/DX2                !
 ! D189  D(20,22,24,26)        -25.4791         estimate D2E/DX2                !
 ! D190  D(20,22,24,62)        125.5702         estimate D2E/DX2                !
 ! D191  D(58,22,24,26)       -142.6301         estimate D2E/DX2                !
 ! D192  D(58,22,24,62)          8.4192         estimate D2E/DX2                !
 ! D193  D(88,22,24,26)         98.2205         estimate D2E/DX2                !
 ! D194  D(88,22,24,62)       -110.7302         estimate D2E/DX2                !
 ! D195  D(20,22,58,60)       -130.2106         estimate D2E/DX2                !
 ! D196  D(20,22,58,84)         23.0298         estimate D2E/DX2                !
 ! D197  D(24,22,58,60)        -13.4934         estimate D2E/DX2                !
 ! D198  D(24,22,58,84)        139.7469         estimate D2E/DX2                !
 ! D199  D(88,22,58,60)        106.4498         estimate D2E/DX2                !
 ! D200  D(88,22,58,84)       -100.3099         estimate D2E/DX2                !
 ! D201  D(21,23,25,1)          -1.95           estimate D2E/DX2                !
 ! D202  D(21,23,25,27)       -150.8545         estimate D2E/DX2                !
 ! D203  D(61,23,25,1)         147.3407         estimate D2E/DX2                !
 ! D204  D(61,23,25,27)         -1.5638         estimate D2E/DX2                !
 ! D205  D(21,23,61,59)          0.3591         estimate D2E/DX2                !
 ! D206  D(21,23,61,63)        147.8115         estimate D2E/DX2                !
 ! D207  D(25,23,61,59)       -152.3995         estimate D2E/DX2                !
 ! D208  D(25,23,61,63)         -4.9471         estimate D2E/DX2                !
 ! D209  D(22,24,26,3)           1.9473         estimate D2E/DX2                !
 ! D210  D(22,24,26,28)        150.853          estimate D2E/DX2                !
 ! D211  D(62,24,26,3)        -147.343          estimate D2E/DX2                !
 ! D212  D(62,24,26,28)          1.5627         estimate D2E/DX2                !
 ! D213  D(22,24,62,60)         -0.3574         estimate D2E/DX2                !
 ! D214  D(22,24,62,64)       -147.8113         estimate D2E/DX2                !
 ! D215  D(26,24,62,60)        152.4001         estimate D2E/DX2                !
 ! D216  D(26,24,62,64)          4.9463         estimate D2E/DX2                !
 ! D217  D(1,25,27,29)           1.636          estimate D2E/DX2                !
 ! D218  D(1,25,27,65)        -145.5165         estimate D2E/DX2                !
 ! D219  D(23,25,27,29)        153.8631         estimate D2E/DX2                !
 ! D220  D(23,25,27,65)          6.7105         estimate D2E/DX2                !
 ! D221  D(3,26,28,30)          -1.6344         estimate D2E/DX2                !
 ! D222  D(3,26,28,66)         145.5182         estimate D2E/DX2                !
 ! D223  D(24,26,28,30)       -153.8623         estimate D2E/DX2                !
 ! D224  D(24,26,28,66)         -6.7097         estimate D2E/DX2                !
 ! D225  D(25,27,29,5)         -11.2391         estimate D2E/DX2                !
 ! D226  D(25,27,29,31)       -159.0571         estimate D2E/DX2                !
 ! D227  D(65,27,29,5)         137.0794         estimate D2E/DX2                !
 ! D228  D(65,27,29,31)        -10.7386         estimate D2E/DX2                !
 ! D229  D(25,27,65,63)         -5.1254         estimate D2E/DX2                !
 ! D230  D(25,27,65,67)        152.7005         estimate D2E/DX2                !
 ! D231  D(29,27,65,63)       -147.7217         estimate D2E/DX2                !
 ! D232  D(29,27,65,67)         10.1042         estimate D2E/DX2                !
 ! D233  D(26,28,30,7)          11.2383         estimate D2E/DX2                !
 ! D234  D(26,28,30,32)        159.0565         estimate D2E/DX2                !
 ! D235  D(66,28,30,7)        -137.0804         estimate D2E/DX2                !
 ! D236  D(66,28,30,32)         10.7379         estimate D2E/DX2                !
 ! D237  D(26,28,66,64)          5.1268         estimate D2E/DX2                !
 ! D238  D(26,28,66,68)       -152.699          estimate D2E/DX2                !
 ! D239  D(30,28,66,64)        147.7229         estimate D2E/DX2                !
 ! D240  D(30,28,66,68)        -10.1029         estimate D2E/DX2                !
 ! D241  D(5,29,31,33)          -2.4022         estimate D2E/DX2                !
 ! D242  D(5,29,31,69)        -144.4896         estimate D2E/DX2                !
 ! D243  D(27,29,31,33)        142.0975         estimate D2E/DX2                !
 ! D244  D(27,29,31,69)          0.0102         estimate D2E/DX2                !
 ! D245  D(7,30,32,34)           2.4014         estimate D2E/DX2                !
 ! D246  D(7,30,32,70)         144.4893         estimate D2E/DX2                !
 ! D247  D(28,30,32,34)       -142.0994         estimate D2E/DX2                !
 ! D248  D(28,30,32,70)         -0.0115         estimate D2E/DX2                !
 ! D249  D(29,31,33,35)        -10.7369         estimate D2E/DX2                !
 ! D250  D(29,31,33,73)       -155.7547         estimate D2E/DX2                !
 ! D251  D(69,31,33,35)        134.5863         estimate D2E/DX2                !
 ! D252  D(69,31,33,73)        -10.4315         estimate D2E/DX2                !
 ! D253  D(29,31,69,67)         11.3256         estimate D2E/DX2                !
 ! D254  D(29,31,69,71)        156.6312         estimate D2E/DX2                !
 ! D255  D(33,31,69,67)       -134.0913         estimate D2E/DX2                !
 ! D256  D(33,31,69,71)         11.2142         estimate D2E/DX2                !
 ! D257  D(30,32,34,36)         10.7367         estimate D2E/DX2                !
 ! D258  D(30,32,34,74)        155.7545         estimate D2E/DX2                !
 ! D259  D(70,32,34,36)       -134.5867         estimate D2E/DX2                !
 ! D260  D(70,32,34,74)         10.4312         estimate D2E/DX2                !
 ! D261  D(30,32,70,68)        -11.3228         estimate D2E/DX2                !
 ! D262  D(30,32,70,72)       -156.6284         estimate D2E/DX2                !
 ! D263  D(34,32,70,68)        134.0947         estimate D2E/DX2                !
 ! D264  D(34,32,70,72)        -11.2109         estimate D2E/DX2                !
 ! D265  D(31,33,35,9)          13.7816         estimate D2E/DX2                !
 ! D266  D(31,33,35,37)       -141.2157         estimate D2E/DX2                !
 ! D267  D(73,33,35,9)         152.7954         estimate D2E/DX2                !
 ! D268  D(73,33,35,37)         -2.202          estimate D2E/DX2                !
 ! D269  D(31,33,73,71)          5.4451         estimate D2E/DX2                !
 ! D270  D(31,33,73,75)        147.273          estimate D2E/DX2                !
 ! D271  D(35,33,73,71)       -138.4028         estimate D2E/DX2                !
 ! D272  D(35,33,73,75)          3.4252         estimate D2E/DX2                !
 ! D273  D(32,34,36,12)        -13.7807         estimate D2E/DX2                !
 ! D274  D(32,34,36,38)        141.2158         estimate D2E/DX2                !
 ! D275  D(74,34,36,12)       -152.7949         estimate D2E/DX2                !
 ! D276  D(74,34,36,38)          2.2015         estimate D2E/DX2                !
 ! D277  D(32,34,74,72)         -5.4477         estimate D2E/DX2                !
 ! D278  D(32,34,74,76)       -147.2741         estimate D2E/DX2                !
 ! D279  D(36,34,74,72)        138.4008         estimate D2E/DX2                !
 ! D280  D(36,34,74,76)         -3.4255         estimate D2E/DX2                !
 ! D281  D(9,35,37,39)          -1.7576         estimate D2E/DX2                !
 ! D282  D(9,35,37,77)        -155.312          estimate D2E/DX2                !
 ! D283  D(33,35,37,39)        152.4526         estimate D2E/DX2                !
 ! D284  D(33,35,37,77)         -1.1018         estimate D2E/DX2                !
 ! D285  D(12,36,38,42)          1.7574         estimate D2E/DX2                !
 ! D286  D(12,36,38,78)        155.3112         estimate D2E/DX2                !
 ! D287  D(34,36,38,42)       -152.4515         estimate D2E/DX2                !
 ! D288  D(34,36,38,78)          1.1023         estimate D2E/DX2                !
 ! D289  D(35,37,39,43)          4.0951         estimate D2E/DX2                !
 ! D290  D(35,37,39,79)       -147.8022         estimate D2E/DX2                !
 ! D291  D(77,37,39,43)        158.0206         estimate D2E/DX2                !
 ! D292  D(77,37,39,79)          6.1234         estimate D2E/DX2                !
 ! D293  D(35,37,77,75)          3.2735         estimate D2E/DX2                !
 ! D294  D(35,37,77,81)        143.8431         estimate D2E/DX2                !
 ! D295  D(39,37,77,75)       -150.8307         estimate D2E/DX2                !
 ! D296  D(39,37,77,81)        -10.2611         estimate D2E/DX2                !
 ! D297  D(36,38,42,46)         -4.0957         estimate D2E/DX2                !
 ! D298  D(36,38,42,80)        147.8014         estimate D2E/DX2                !
 ! D299  D(78,38,42,46)       -158.0207         estimate D2E/DX2                !
 ! D300  D(78,38,42,80)         -6.1237         estimate D2E/DX2                !
 ! D301  D(36,38,78,76)         -3.2733         estimate D2E/DX2                !
 ! D302  D(36,38,78,81)       -143.8419         estimate D2E/DX2                !
 ! D303  D(42,38,78,76)        150.83           estimate D2E/DX2                !
 ! D304  D(42,38,78,81)         10.2614         estimate D2E/DX2                !
 ! D305  D(37,39,43,2)        -147.7127         estimate D2E/DX2                !
 ! D306  D(37,39,43,13)         -2.0474         estimate D2E/DX2                !
 ! D307  D(79,39,43,2)           5.634          estimate D2E/DX2                !
 ! D308  D(79,39,43,13)        151.2993         estimate D2E/DX2                !
 ! D309  D(37,39,79,40)        140.8109         estimate D2E/DX2                !
 ! D310  D(37,39,79,82)          0.9744         estimate D2E/DX2                !
 ! D311  D(43,39,79,40)        -12.135          estimate D2E/DX2                !
 ! D312  D(43,39,79,82)       -151.9715         estimate D2E/DX2                !
 ! D313  D(44,40,41,45)          0.0033         estimate D2E/DX2                !
 ! D314  D(44,40,41,80)       -148.9294         estimate D2E/DX2                !
 ! D315  D(79,40,41,45)        148.9317         estimate D2E/DX2                !
 ! D316  D(79,40,41,80)         -0.001          estimate D2E/DX2                !
 ! D317  D(41,40,44,2)         150.4533         estimate D2E/DX2                !
 ! D318  D(41,40,44,47)         -2.8153         estimate D2E/DX2                !
 ! D319  D(79,40,44,2)           5.6379         estimate D2E/DX2                !
 ! D320  D(79,40,44,47)       -147.6307         estimate D2E/DX2                !
 ! D321  D(41,40,79,39)       -141.862          estimate D2E/DX2                !
 ! D322  D(41,40,79,82)          2.7692         estimate D2E/DX2                !
 ! D323  D(44,40,79,39)          6.7978         estimate D2E/DX2                !
 ! D324  D(44,40,79,82)        151.429          estimate D2E/DX2                !
 ! D325  D(40,41,45,4)        -150.4556         estimate D2E/DX2                !
[...]
 Alpha virt. eigenvalues --    1.23572   1.23674   1.23942   1.23972   1.24602
 Alpha virt. eigenvalues --    1.25016   1.25303   1.25540   1.25577   1.25737
 Alpha virt. eigenvalues --    1.25852   1.25980   1.26202   1.26887   1.27047
 Alpha virt. eigenvalues --    1.27067   1.27807   1.28165   1.28681   1.28926
 Alpha virt. eigenvalues --    1.29292   1.29668   1.29944   1.30267   1.30421
 Alpha virt. eigenvalues --    1.30873   1.30915   1.31510   1.31823   1.32317
 Alpha virt. eigenvalues --    1.32434   1.32638   1.32940   1.33466   1.33536
 Alpha virt. eigenvalues --    1.34553   1.34597   1.35319   1.35709   1.35843
 Alpha virt. eigenvalues --    1.36283   1.36408   1.36948   1.37273   1.37840
 Alpha virt. eigenvalues --    1.38591   1.39266   1.39403   1.39740   1.40022
 Alpha virt. eigenvalues --    1.40094   1.40404   1.41357   1.41713   1.42954
 Alpha virt. eigenvalues --    1.43415   1.44035   1.44405   1.44750   1.45558
 Alpha virt. eigenvalues --    1.46246   1.46396   1.46972   1.47330   1.47947
 Alpha virt. eigenvalues --    1.48379   1.48724   1.49191   1.50220   1.50935
 Alpha virt. eigenvalues --    1.51139   1.51844   1.52662   1.53701   1.53721
 Alpha virt. eigenvalues --    1.54625   1.54652   1.55028   1.55583   1.56104
 Alpha virt. eigenvalues --    1.56888   1.57239   1.57724   1.57935   1.58484
 Alpha virt. eigenvalues --    1.59192   1.59285   1.60172   1.60173   1.60412
 Alpha virt. eigenvalues --    1.60469   1.61383   1.62002   1.62079   1.62471
 Alpha virt. eigenvalues --    1.62833   1.63782   1.63809   1.64021   1.64288
 Alpha virt. eigenvalues --    1.64590   1.64654   1.65035   1.65158   1.65186
 Alpha virt. eigenvalues --    1.65445   1.66360   1.66435   1.67346   1.67375
 Alpha virt. eigenvalues --    1.67571   1.67907   1.68366   1.68400   1.68747
 Alpha virt. eigenvalues --    1.68837   1.69180   1.69292   1.69651   1.69799
 Alpha virt. eigenvalues --    1.69961   1.70185   1.70451   1.71097   1.71253
 Alpha virt. eigenvalues --    1.71302   1.71305   1.71699   1.71731   1.72131
 Alpha virt. eigenvalues --    1.72458   1.72587   1.72895   1.73082   1.73175
 Alpha virt. eigenvalues --    1.73307   1.73656   1.73946   1.73968   1.74184
 Alpha virt. eigenvalues --    1.74374   1.74558   1.74742   1.74870   1.75074
 Alpha virt. eigenvalues --    1.75573   1.75635   1.75713   1.76130   1.76564
 Alpha virt. eigenvalues --    1.76864   1.77023   1.77237   1.77410   1.77803
 Alpha virt. eigenvalues --    1.77863   1.78372   1.78963   1.78967   1.79399
 Alpha virt. eigenvalues --    1.79810   1.79828   1.80100   1.80177   1.80494
 Alpha virt. eigenvalues --    1.80802   1.80964   1.81212   1.81277   1.82110
 Alpha virt. eigenvalues --    1.82680   1.83205   1.83285   1.84168   1.84318
 Alpha virt. eigenvalues --    1.84940   1.85565   1.85927   1.86507   1.86605
 Alpha virt. eigenvalues --    1.86718   1.87464   1.88272   1.88651   1.89130
 Alpha virt. eigenvalues --    1.89135   1.89824   1.89968   1.90409   1.91196
 Alpha virt. eigenvalues --    1.91258   1.91619   1.91986   1.92617   1.92727
 Alpha virt. eigenvalues --    1.93206   1.93255   1.93739   1.94015   1.94766
 Alpha virt. eigenvalues --    1.95022   1.95112   1.95574   1.95594   1.96083
 Alpha virt. eigenvalues --    1.96408   1.97007   1.97011   1.97389   1.97829
 Alpha virt. eigenvalues --    1.97891   1.98479   1.98566   1.98806   1.98991
 Alpha virt. eigenvalues --    1.99064   1.99369   1.99676   2.00021   2.00106
 Alpha virt. eigenvalues --    2.00322   2.00839   2.01084   2.01387   2.01391
 Alpha virt. eigenvalues --    2.01726   2.01885   2.02520   2.02604   2.02920
 Alpha virt. eigenvalues --    2.03094   2.03145   2.03442   2.03638   2.03809
 Alpha virt. eigenvalues --    2.04339   2.04646   2.05273   2.05544   2.05610
 Alpha virt. eigenvalues --    2.05869   2.05979   2.06255   2.07644   2.07818
 Alpha virt. eigenvalues --    2.08091   2.08372   2.08397   2.09649   2.09933
 Alpha virt. eigenvalues --    2.09968   2.10832   2.10931   2.11594   2.12131
 Alpha virt. eigenvalues --    2.12409   2.12566   2.13226   2.13584   2.13711
 Alpha virt. eigenvalues --    2.14243   2.14350   2.15267   2.15287   2.16426
 Alpha virt. eigenvalues --    2.16461   2.16994   2.16999   2.17772   2.17829
 Alpha virt. eigenvalues --    2.18822   2.18913   2.19549   2.19744   2.20566
 Alpha virt. eigenvalues --    2.20718   2.21002   2.21723   2.22041   2.22453
 Alpha virt. eigenvalues --    2.22688   2.22849   2.23121   2.23779   2.24007
 Alpha virt. eigenvalues --    2.24256   2.24818   2.24959   2.25345   2.25572
 Alpha virt. eigenvalues --    2.25803   2.26370   2.26991   2.27003   2.28173
 Alpha virt. eigenvalues --    2.28310   2.28656   2.29054   2.29488   2.29853
 Alpha virt. eigenvalues --    2.30018   2.30286   2.30726   2.31145   2.31164
 Alpha virt. eigenvalues --    2.31715   2.32490   2.32750   2.33136   2.33525
 Alpha virt. eigenvalues --    2.33692   2.34523   2.35701   2.36807   2.37058
 Alpha virt. eigenvalues --    2.37447   2.37631   2.38362   2.38935   2.39214
 Alpha virt. eigenvalues --    2.40344   2.40938   2.41313   2.41790   2.42081
 Alpha virt. eigenvalues --    2.42610   2.43253   2.43884   2.44217   2.44922
 Alpha virt. eigenvalues --    2.45934   2.46167   2.46522   2.47000   2.47627
 Alpha virt. eigenvalues --    2.47687   2.48699   2.49737   2.49891   2.50584
 Alpha virt. eigenvalues --    2.51302   2.51525   2.52306   2.52657   2.53127
 Alpha virt. eigenvalues --    2.53525   2.53831   2.54045   2.54244   2.54583
 Alpha virt. eigenvalues --    2.54787   2.55096   2.55409   2.55883   2.56137
 Alpha virt. eigenvalues --    2.56638   2.56650   2.57000   2.57223   2.57693
 Alpha virt. eigenvalues --    2.58206   2.58384   2.58463   2.58632   2.58883
 Alpha virt. eigenvalues --    2.59091   2.59590   2.59895   2.60346   2.61168
 Alpha virt. eigenvalues --    2.61196   2.61524   2.62156   2.62613   2.62698
 Alpha virt. eigenvalues --    2.63055   2.63128   2.63328   2.63810   2.64223
 Alpha virt. eigenvalues --    2.64312   2.64723   2.65065   2.65825   2.66279
 Alpha virt. eigenvalues --    2.66950   2.67027   2.67072   2.67458   2.67500
 Alpha virt. eigenvalues --    2.67850   2.68049   2.68663   2.68785   2.69179
 Alpha virt. eigenvalues --    2.69818   2.70065   2.70730   2.70948   2.71119
 Alpha virt. eigenvalues --    2.71401   2.72091   2.72404   2.73215   2.73246
 Alpha virt. eigenvalues --    2.74127   2.74498   2.76134   2.76283   2.76407
 Alpha virt. eigenvalues --    2.76599   2.76811   2.77091   2.78032   2.78382
 Alpha virt. eigenvalues --    2.79010   2.79339   2.79747   2.79982   2.80494
 Alpha virt. eigenvalues --    2.80746   2.80847   2.81074   2.81630   2.81988
 Alpha virt. eigenvalues --    2.82733   2.83075   2.83329   2.83921   2.84070
 Alpha virt. eigenvalues --    2.84869   2.85058   2.85420   2.85644   2.85967
 Alpha virt. eigenvalues --    2.86255   2.87941   2.88697   2.88868   2.89156
 Alpha virt. eigenvalues --    2.89311   2.90195   2.90692   2.90717   2.91374
 Alpha virt. eigenvalues --    2.91530   2.92058   2.92564   2.92963   2.93255
 Alpha virt. eigenvalues --    2.93781   2.94715   2.95147   2.95409   2.96375
 Alpha virt. eigenvalues --    2.96692   2.97928   2.97995   2.99080   3.00401
 Alpha virt. eigenvalues --    3.00778   3.01428   3.02377   3.02602   3.03974
 Alpha virt. eigenvalues --    3.05317   3.05758   3.07743   3.08003   3.08984
 Alpha virt. eigenvalues --    3.11594   3.12956   3.13400   3.14305   3.15707
 Alpha virt. eigenvalues --    3.18374   3.18876   3.20496   3.22697   3.23846
 Alpha virt. eigenvalues --    3.26423   3.27242   3.29861   3.30361   3.31625
 Alpha virt. eigenvalues --    3.32321   3.33365   3.36132   3.36325   3.38685
 Alpha virt. eigenvalues --    3.40701   3.42604   3.43312   3.45799   3.46796
 Alpha virt. eigenvalues --    3.48828   3.49771   3.52785   3.56629   3.59892
 Alpha virt. eigenvalues --    3.62650   4.00014   4.00807   4.01157   4.01584
 Alpha virt. eigenvalues --    4.03789   4.04180   4.04491   4.04799   4.05446
 Alpha virt. eigenvalues --    4.05911   4.06170   4.07429   4.07601   4.07911
 Alpha virt. eigenvalues --    4.08379   4.09327   4.10793   4.10816   4.11777
 Alpha virt. eigenvalues --    4.12512   4.12785   4.13203   4.13314   4.14452
 Alpha virt. eigenvalues --    4.16464   4.16786   4.18244   4.19294   4.20406
 Alpha virt. eigenvalues --    4.20705   4.21000   4.21382   4.22125   4.22690
 Alpha virt. eigenvalues --    4.23870   4.24482   4.26994   4.27017   4.27424
 Alpha virt. eigenvalues --    4.28425   4.28661   4.29208   4.29323   4.30325
 Alpha virt. eigenvalues --    4.30791   4.33407   4.34607   4.34892   4.35132
 Alpha virt. eigenvalues --    4.38279   4.39413   4.40395   4.40487   4.40942
 Alpha virt. eigenvalues --    4.44983   4.45095   4.45764   4.47727   4.48938
 Alpha virt. eigenvalues --    4.50664   4.52653   4.53234   4.53982   4.55366
 Alpha virt. eigenvalues --    4.56707   4.57836   4.60730   4.62741   4.63177
 Alpha virt. eigenvalues --    4.63951   4.66273   4.66578   4.70409   4.72266
 Alpha virt. eigenvalues --    4.75844   4.79774   4.81730   4.83530   4.84903
 Alpha virt. eigenvalues --    4.88164   4.92090   4.95617   4.98120   5.00154
 Alpha virt. eigenvalues --    5.04152   5.05650   5.15284   5.16056   5.18848
 Alpha virt. eigenvalues --    5.28073
          Condensed to atoms (all electrons):
 Mulliken charges:
               1
     1  C   -0.360964
     2  C   -0.027597
     3  C   -0.360964
     4  C   -0.027596
     5  C    0.046958
     6  C   -0.023613
     7  C    0.046958
     8  C   -0.023613
     9  C    0.069654
    10  C    0.028957
    11  C    0.028956
    12  C    0.069655
    13  C   -0.045388
    14  C   -0.045386
    15  C    0.006164
    16  C    0.006164
    17  C    0.129597
    18  C    0.129597
    19  C    0.154503
    20  C    0.154503
    21  C   -0.381159
    22  C   -0.381160
    23  C    0.088743
    24  C    0.088742
    25  C    0.091301
    26  C    0.091301
    27  C    0.006891
    28  C    0.006891
    29  C    0.020932
    30  C    0.020932
    31  C   -0.020538
    32  C   -0.020537
    33  C   -0.020786
    34  C   -0.020785
    35  C    0.037684
    36  C    0.037684
    37  C    0.047084
    38  C    0.047084
    39  C    0.057030
    40  C   -0.029603
    41  C   -0.029603
    42  C    0.057030
    43  C   -0.022716
    44  C    0.063056
    45  C    0.063056
    46  C   -0.022716
    47  C    0.037643
    48  C    0.037642
    49  C    0.007012
    50  C    0.007013
    51  C    0.090075
    52  C    0.090076
    53  C    0.072072
    54  C    0.072072
    55  C   -0.376241
    56  C   -0.376241
    57  C    0.077605
    58  C    0.077608
    59  C    0.010719
    60  C    0.010719
    61  C    0.008515
    62  C    0.008516
    63  C    0.035476
    64  C    0.035474
    65  C    0.031982
    66  C    0.031983
    67  C    0.041383
    68  C    0.041384
    69  C   -0.020740
    70  C   -0.020740
    71  C   -0.002720
    72  C   -0.002722
    73  C   -0.003094
    74  C   -0.003094
    75  C   -0.002218
    76  C   -0.002217
    77  C   -0.020611
    78  C   -0.020611
    79  C   -0.024902
    80  C   -0.024902
    81  C   -0.001419
    82  C   -0.020600
    83  C    0.146014
    84  C    0.146011
    85  Cl   0.000498
    86  Cl   0.001602
    87  Cl   0.001602
    88  Cl   0.000498
    89  Cl  -0.015253
    90  Cl  -0.015252
 Sum of Mulliken charges =  -0.00000
 Mulliken charges with hydrogens summed into heavy atoms:
               1
     1  C   -0.360964
     2  C   -0.027597
     3  C   -0.360964
     4  C   -0.027596
     5  C    0.046958
     6  C   -0.023613
     7  C    0.046958
     8  C   -0.023613
     9  C    0.069654
    10  C    0.028957
    11  C    0.028956
    12  C    0.069655
    13  C   -0.045388
    14  C   -0.045386
    15  C    0.006164
    16  C    0.006164
    17  C    0.129597
    18  C    0.129597
    19  C    0.154503
    20  C    0.154503
    21  C   -0.381159
    22  C   -0.381160
    23  C    0.088743
    24  C    0.088742
    25  C    0.091301
    26  C    0.091301
    27  C    0.006891
    28  C    0.006891
    29  C    0.020932
    30  C    0.020932
    31  C   -0.020538
    32  C   -0.020537
    33  C   -0.020786
    34  C   -0.020785
    35  C    0.037684
    36  C    0.037684
    37  C    0.047084
    38  C    0.047084
    39  C    0.057030
    40  C   -0.029603
    41  C   -0.029603
    42  C    0.057030
    43  C   -0.022716
    44  C    0.063056
    45  C    0.063056
    46  C   -0.022716
    47  C    0.037643
    48  C    0.037642
    49  C    0.007012
    50  C    0.007013
    51  C    0.090075
    52  C    0.090076
    53  C    0.072072
    54  C    0.072072
    55  C   -0.376241
    56  C   -0.376241
    57  C    0.077605
    58  C    0.077608
    59  C    0.010719
    60  C    0.010719
    61  C    0.008515
    62  C    0.008516
    63  C    0.035476
    64  C    0.035474
    65  C    0.031982
    66  C    0.031983
    67  C    0.041383
    68  C    0.041384
    69  C   -0.020740
    70  C   -0.020740
    71  C   -0.002720
    72  C   -0.002722
    73  C   -0.003094
    74  C   -0.003094
    75  C   -0.002218
    76  C   -0.002217
    77  C   -0.020611
    78  C   -0.020611
    79  C   -0.024902
    80  C   -0.024902
    81  C   -0.001419
    82  C   -0.020600
    83  C    0.146014
    84  C    0.146011
    85  Cl   0.000498
    86  Cl   0.001602
    87  Cl   0.001602
    88  Cl   0.000498
    89  Cl  -0.015253
    90  Cl  -0.015252
 Electronic spatial extent (au):  <R**2>=          47296.0828
 Charge=             -0.0000 electrons
 Dipole moment (field-independent basis, Debye):
    X=             -6.0940    Y=             -0.0001    Z=              1.2490  Tot=              6.2207
 Quadrupole moment (field-independent basis, Debye-Ang):
   XX=           -548.9340   YY=           -564.4823   ZZ=           -525.1251
   XY=              0.0001   XZ=              1.9171   YZ=             -0.0000
 Traceless Quadrupole moment (field-independent basis, Debye-Ang):
   XX=             -2.7535   YY=            -18.3019   ZZ=             21.0554
   XY=              0.0001   XZ=              1.9171   YZ=             -0.0000
 Octapole moment (field-independent basis, Debye-Ang**2):
  XXX=            -26.2915  YYY=             -0.0019  ZZZ=            -25.7037  XYY=            -27.5753
  XXY=             -0.0004  XXZ=            -18.6503  XZZ=             34.7584  YZZ=             -0.0004
  YYZ=             54.1612  XYZ=              0.0002
 Hexadecapole moment (field-independent basis, Debye-Ang**3):
 XXXX=         -26611.9662 YYYY=         -26626.2411 ZZZZ=         -16043.0047 XXXY=              0.0011
 XXXZ=            -66.1777 YYYX=              0.0007 YYYZ=             -0.0002 ZZZX=             26.9725
 ZZZY=             -0.0007 XXYY=          -8793.2618 XXZZ=          -7097.1701 YYZZ=          -7026.5474
 XXYZ=              0.0002 YYXZ=             61.8197 ZZXY=              0.0005
 N-N= 1.875113544399D+04 E-N=-5.146580774246D+04  KE= 5.923798798937D+03
 No NMR shielding tensors so no spin-rotation constants.
 Leave Link  601 at Tue Jun 28 14:06:52 2022, MaxMem=  1342177280 cpu:              24.0 elap:               1.2
 (Enter /home/mkliu/g16/l9999.exe)
 1\1\GINC-NODE02\FOpt\RB3LYP\6-31G(d,p)\C84Cl6\MKLIU\28-Jun-2022\0\\#P 
 opt b3lyp/6-31G(d, p) empiricaldispersion=GD3\\force\\0,1\C,8.22009175
 44,18.5981806938,10.5703241904\C,12.2699703135,20.1653116585,8.9517261
 894\C,8.2203657736,27.1533493615,10.5721148859\C,12.2701437976,25.5866
 348342,8.9528611196\C,7.9502624557,18.8708072171,9.0870880197\C,11.843
 6316511,19.5890589016,10.1906654393\C,7.9505192743,26.8813599752,9.088
 7646217\C,11.8438422003,26.1623966894,10.1920411916\C,8.9381730589,19.
 0557434646,8.1027429419\C,12.0994951516,20.2347946468,11.3859594358\C,
 12.0996640725,25.5161443828,11.3870647224\C,8.9384180512,26.6967717717
 ,8.1043424497\C,10.289167056,19.0121550606,8.5631832637\C,10.289414612
 1,26.7400807263,8.5648008092\C,10.5982691094,18.9252632452,9.994867613
 5\C,10.5985224085,26.8263540312,9.9965213022\C,9.6321999074,18.9445267
 299,10.996579896\C,9.6324521261,26.8067333099,10.9982252993\C,9.907569
 7189,19.60946747,12.2406151514\C,9.9077792611,26.1412547218,12.2419823
 535\C,8.7823390918,20.0391555993,13.1606913811\C,8.7825208801,25.71125
 33274,13.1618782725\C,7.4782475043,20.1850305886,12.3894382867\C,7.478
 4204223,25.5657842437,12.3905638945\C,7.2141149545,19.5210651962,11.23
 30133299\C,7.2143301848,26.2302510804,11.2344174398\C,6.3506077042,20.
 1071270071,10.2705122219\C,6.3507863818,25.6446465592,10.2716710215\C,
 6.7260745152,19.5656869491,8.9871629853\C,6.7262871988,26.1865999744,8
 .9885485747\C,6.3819675042,20.2355493198,7.8352052152\C,6.382137425,25
 .5172415064,7.8363108636\C,7.2991012637,20.277692688,6.7272796356\C,7.
 2992684051,25.4755031031,6.7283678361\C,8.6335185222,19.8281412644,6.8
 933163389\C,8.6337142336,25.9248994473,6.894593024\C,9.6964614132,20.5
 794696123,6.2191338145\C,9.6966088918,25.1737855624,6.2200959723\C,11.
 0406364558,20.5793987254,6.7961003449\C,12.7342459773,22.1710416311,7.
 7224099995\C,12.7342923283,23.5813904227,7.7227046636\C,11.0407840662,
 25.173529003,6.7970618762\C,11.3025552756,19.7624057352,7.942025248\C,
 12.8935598943,21.4260839955,8.9283285338\C,12.8936526353,24.3258325983
 ,8.928935336\C,11.3027546824,25.9900253538,7.943328922\C,13.1320136819
 ,22.1508501448,10.1790592981\C,13.1320590372,23.6005271468,10.17936231
 86\C,12.7952824918,21.4982180636,11.392020626\C,12.7953681278,24.25267
 27429,11.3925961949\C,12.4098439877,22.1944079151,12.5721894657\C,12.4
 098814482,23.5560129159,12.5724711266\C,11.1463556817,20.2076222443,12
 .4369877093\C,11.1465269919,25.5429386516,12.4381048296\C,11.444253781
 1,21.3619971294,13.4008528345\C,11.4443502187,24.3881396627,13.4014849
 592\C,8.988522751,21.4703417226,13.6639876942\C,8.9886128546,24.279843
 8251,13.6645755614\C,7.7839029918,22.1867774659,13.4709016606\C,7.7839
 496823,23.563565083,13.4711870227\C,6.9043088013,21.4696880417,12.5871
 727026\C,6.904399532,24.2810807083,12.5877602754\C,6.1382842845,22.144
 4831081,11.5998473809\C,6.1383335175,23.6067475149,11.6001521917\C,5.8
 321409713,21.4249662411,10.3848957544\C,5.8322352686,24.3267925982,10.
 3855024922\C,5.4798442365,22.1493989525,9.1597701967\C,5.4798915502,23
 .6028958277,9.1600740166\C,5.6530943736,21.4761055976,7.9148109508\C,5
 .6531836048,24.2766995131,7.9153968195\C,5.9405109486,22.185903069,6.7
 027438032\C,5.9405512293,23.5673920996,6.7030308059\C,6.9713271202,21.
 4576601526,5.9754410175\C,6.9714177304,24.2958722853,5.9760348802\C,7.
 9699546319,22.150472008,5.317077464\C,7.9700007391,23.6032720917,5.317
 3815917\C,9.3327640314,21.6971370838,5.4207395221\C,9.3328393048,24.05
 64761738,5.4212338328\C,11.8720348689,21.7074575525,6.6470430455\C,11.
 8721106394,24.0454800447,6.6475316983\C,10.1677830065,22.8767931916,5.
 3578762584\C,11.40526671,22.8766269233,5.9631820083\C,10.1919886152,22
 .1536581968,13.7262649263\C,10.1920347144,23.5964232661,13.7265672249\
 Cl,8.6080624889,18.8603059085,14.5751427411\Cl,12.2377777172,20.744264
 9175,14.95335284\Cl,12.2379200712,25.00516816,14.9542425103\Cl,8.60831
 89055,26.8895215009,14.5768236619\Cl,7.8822535459,16.8112941573,10.973
 1739839\Cl,7.8826448976,28.940087066,10.9757140174\\Version=ES64L-G16R
 evA.03\State=1-A\HF=-5962.2205524\RMSD=6.907e-09\RMSF=6.901e-05\Dipole
 =-0.2354165,0.0005631,-2.4360705\Quadrupole=14.9244987,-13.6069945,-1.
 3175041,-0.0001186,-3.7967485,-0.0025384\PG=C01 [X(C84Cl6)]\\@


 A COMPUTER IS LIKE A HORSE, IT WILL SENSE WEAKNESS.
     -- GREG WETTSTEIN
 Job cpu time:       1 days  4 hours  0 minutes 42.2 seconds.
 Elapsed time:       0 days  1 hours 10 minutes  7.9 seconds.
 File lengths (MBytes):  RWF=   1161 Int=      0 D2E=      0 Chk=    146 Scr=      1
 Normal termination of Gaussian 16 at Tue Jun 28 14:06:54 2022.
