 Entering Gaussian System, Link 0=g16
 Input=6_addons_C84_14_Cl22_rank_4.gjf
 Output=6_addons_C84_14_Cl22_rank_4.log
 Initial command:
 /home/mkliu/g16/l1.exe "/data/scratch/Gau-137519.inp" -scrdir="/data/scratch/"
 Entering Link 1 = /home/mkliu/g16/l1.exe PID=    137520.
  
 Copyright (c) 1988,1990,1992,1993,1995,1998,2003,2009,2016,
            Gaussian, Inc.  All Rights Reserved.
  
 This is part of the Gaussian(R) 16 program.  It is based on
 the Gaussian(R) 09 system (copyright 2009, Gaussian, Inc.),
 the Gaussian(R) 03 system (copyright 2003, Gaussian, Inc.),
 the Gaussian(R) 98 system (copyright 1998, Gaussian, Inc.),
 the Gaussian(R) 94 system (copyright 1995, Gaussian, Inc.),
 the Gaussian 92(TM) system (copyright 1992, Gaussian, Inc.),
 the Gaussian 90(TM) system (copyright 1990, Gaussian, Inc.),
 the Gaussian 88(TM) system (copyright 1988, Gaussian, Inc.),
 the Gaussian 86(TM) system (copyright 1986, Carnegie Mellon
 University), and the Gaussian 82(TM) system (copyright 1983,
 Carnegie Mellon University). Gaussian is a federally registered
 trademark of Gaussian, Inc.
  
 This software contains proprietary and confidential information,
 including trade secrets, belonging to Gaussian, Inc.
  
 This software is provided under written license and may be
 used, copied, transmitted, or stored only in accord with that
 written license.
  
 The following legend is applicable only to US Government
 contracts under FAR:
  
                    RESTRICTED RIGHTS LEGEND
  
 Use, reproduction and disclosure by the US Government is
 subject to restrictions as set forth in subparagraphs (a)
 and (c) of the Commercial Computer Software - Restricted
 Rights clause in FAR 52.227-19.
  
 Gaussian, Inc.
 340 Quinnipiac St., Bldg. 40, Wallingford CT 06492
  
  
 ---------------------------------------------------------------
 Warning -- This program may not be used in any manner that
 competes with the business of Gaussian, Inc. or will provide
 assistance to any competitor of Gaussian, Inc.  The licensee
 of this program is prohibited from giving any competitor of
 Gaussian, Inc. access to this program.  By using this program,
 the user acknowledges that Gaussian, Inc. is engaged in the
 business of creating and licensing software in the field of
 computational chemistry and represents and warrants to the
 licensee that it is not a competitor of Gaussian, Inc. and that
 it will not use this program in any manner prohibited above.
 ---------------------------------------------------------------
  

 Cite this work as:
 Gaussian 16, Revision A.03,
 M. J. Frisch, G. W. Trucks, H. B. Schlegel, G. E. Scuseria, 
 M. A. Robb, J. R. Cheeseman, G. Scalmani, V. Barone, 
 G. A. Petersson, H. Nakatsuji, X. Li, M. Caricato, A. V. Marenich, 
 J. Bloino, B. G. Janesko, R. Gomperts, B. Mennucci, H. P. Hratchian, 
 J. V. Ortiz, A. F. Izmaylov, J. L. Sonnenberg, D. Williams-Young, 
 F. Ding, F. Lipparini, F. Egidi, J. Goings, B. Peng, A. Petrone, 
 T. Henderson, D. Ranasinghe, V. G. Zakrzewski, J. Gao, N. Rega, 
 G. Zheng, W. Liang, M. Hada, M. Ehara, K. Toyota, R. Fukuda, 
 J. Hasegawa, M. Ishida, T. Nakajima, Y. Honda, O. Kitao, H. Nakai, 
 T. Vreven, K. Throssell, J. A. Montgomery, Jr., J. E. Peralta, 
 F. Ogliaro, M. J. Bearpark, J. J. Heyd, E. N. Brothers, K. N. Kudin, 
 V. N. Staroverov, T. A. Keith, R. Kobayashi, J. Normand, 
 K. Raghavachari, A. P. Rendell, J. C. Burant, S. S. Iyengar, 
 J. Tomasi, M. Cossi, J. M. Millam, M. Klene, C. Adamo, R. Cammi, 
 J. W. Ochterski, R. L. Martin, K. Morokuma, O. Farkas, 
 J. B. Foresman, and D. J. Fox, Gaussian, Inc., Wallingford CT, 2016.
 
 ******************************************
 Gaussian 16:  ES64L-G16RevA.03 25-Dec-2016
                29-Jun-2022 
 ******************************************
 %mem=10GB
 %chk=6_addons_C84_14_Cl22_rank_4.chk
 %nprocshared=24
 Will use up to   24 processors via shared memory.
 ------------------------------------------------
 #P opt b3lyp/6-31G(d, p) empiricaldispersion=GD3
 ------------------------------------------------
 1/18=20,19=15,26=3,38=1/1,3;
 2/9=110,12=2,17=6,18=5,40=1/2;
 3/5=1,6=6,7=101,11=2,25=1,30=1,71=1,74=-5,124=31/1,2,3;
 4//1;
 5/5=2,38=5/2;
 6/7=2,8=2,9=2,10=2,28=1/1;
 7//1,2,3,16;
 1/18=20,19=15,26=3/3(2);
 2/9=110/2;
 99//99;
 2/9=110/2;
 3/5=1,6=6,7=101,11=2,25=1,30=1,71=1,74=-5,124=31/1,2,3;
 4/5=5,16=3,69=1/1;
 5/5=2,38=5/2;
 7//1,2,3,16;
 1/18=20,19=15,26=3/3(-5);
 2/9=110/2;
 6/7=2,8=2,9=2,10=2,19=2,28=1/1;
 99/9=1/99;
 Leave Link    1 at Wed Jun 29 14:10:58 2022, MaxMem=  1342177280 cpu:               0.7 elap:               0.1
 (Enter /home/mkliu/g16/l101.exe)
 -----
 force
 -----
 Symbolic Z-matrix:
 Charge =  0 Multiplicity = 1
 C                     8.26262   18.88927   10.53774 
 C                     12.46075   20.01159   8.92652 
 C                     8.26145   26.86846   10.54117 
 C                     12.44723   25.74384   8.93659 
 C                     7.95056   18.94062   9.15677 
 C                     11.86578   19.57548   10.23264 
 C                     7.94912   26.82659   9.15784 
 C                     11.85907   26.1867   10.24076 
 C                     8.93922   19.15054   8.16994 
 C                     12.12934   20.21365   11.40077 
 C                     12.12515   25.54269   11.40713 
 C                     8.93236   26.64255   8.16105 
 C                     10.26612   19.11346   8.63833 
 C                     10.26998   26.67118   8.63369 
 C                     10.59285   18.97374   10.02401 
 C                     10.59016   26.78984   10.02914 
 C                     9.59467   18.96743   11.01464 
 C                     9.5925    26.78952   11.01946 
 C                     9.86458   19.6501   12.25386 
 C                     9.86258   26.10456   12.25813 
 C                     8.79307   20.24985   12.95509 
 C                     8.79189   25.50417   12.95883 
 C                     7.46005   20.2384   12.39671 
 C                     7.46074   25.51755   12.40093 
 C                     7.20293   19.56612   11.23392 
 C                     7.2034    26.19181   11.23823 
 C                     6.28424   20.12871   10.2898 
 C                     6.28252   25.63307   10.29629 
 C                     6.6824    19.59737   9.0279 
 C                     6.6789    26.16915   9.03297 
 C                     6.38171   20.26943   7.87492 
 C                     6.36678   25.50237   7.88488 
 C                     7.29709   20.30959   6.77684 
 C                     7.29812   25.45329   6.79003 
 C                     8.65069   19.90152   6.97583 
 C                     8.63428   25.90179   6.96501 
 C                     9.69839   20.62506   6.34496 
 C                     9.6842    25.16017   6.31726 
 C                     10.99923   20.60961   6.88096 
 C                     12.66715   22.17169   7.80758 
 C                     12.62822   23.5698   7.82312 
 C                     11.01191   25.17209   6.87136 
 C                     11.28829   19.82232   7.98498 
 C                     12.83191   21.46933   8.98252 
 C                     12.80932   24.28499   8.99893 
 C                     11.2947   25.97934   7.98504 
 C                     13.03947   22.17627   10.18323 
 C                     13.03552   23.58122   10.18916 
 C                     13.04781   21.40221   11.49068 
 C                     13.0474   24.35562   11.49706 
 C                     12.38123   22.20115   12.57361 
 C                     12.38202   23.55456   12.57818 
 C                     11.1245   20.26966   12.4148 
 C                     11.12251   25.48502   12.42002 
 C                     11.27498   21.48724   13.12944 
 C                     11.27415   24.26573   13.13385 
 C                     8.94221   21.4642   13.65657 
 C                     8.94113   24.28706   13.65815 
 C                     7.70387   22.19371   13.51407 
 C                     7.70413   23.55908   13.51656 
 C                     6.82275   21.49285   12.63311 
 C                     6.82371   24.26183   12.63417 
 C                     6.06882   22.15735   11.63498 
 C                     6.07039   23.59995   11.63662 
 C                     5.77973   21.43982   10.4141 
 C                     5.7793    24.32234   10.41649 
 C                     5.46135   22.15895   9.19509 
 C                     5.45656   23.60637   9.19835 
 C                     5.65434   21.50341   7.96038 
 C                     5.64023   24.2687   7.96579 
 C                     5.95549   22.20118   6.74936 
 C                     5.9429    23.57403   6.75217 
 C                     6.97919   21.47858   6.02911 
 C                     6.97372   24.29309   6.04934 
 C                     7.96499   22.16731   5.35346 
 C                     7.98334   23.57731   5.41098 
 C                     9.36741   21.63355   5.25644 
 C                     9.33892   24.03042   5.53265 
 C                     12.03969   21.64494   6.53598 
 C                     11.82783   24.02989   6.70983 
 C                     10.17492   22.89833   5.41201 
 C                     11.40898   22.89645   5.99878 
 C                     10.17576   22.15552   13.71015 
 C                     10.17542   23.59581   13.71165 
 Cl                    14.74936   20.94952   11.88373 
 Cl                    14.74828   24.81107   11.88635 
 Cl                    13.88766   19.02222   8.43468 
 Cl                    13.26938   20.94589   5.41811 
 Cl                    13.90815   26.70774   8.46056 
 Cl                    9.67908   20.83656   3.65713 
 
 ITRead=  0  0  0  0  0  0  0  0  0  0  0  0  0  0  0  0  0  0  0  0
 ITRead=  0  0  0  0  0  0  0  0  0  0  0  0  0  0  0  0  0  0  0  0
 ITRead=  0  0  0  0  0  0  0  0  0  0  0  0  0  0  0  0  0  0  0  0
 ITRead=  0  0  0  0  0  0  0  0  0  0  0  0  0  0  0  0  0  0  0  0
 ITRead=  0  0  0  0  0  0  0  0  0  0
 MicOpt= -1 -1 -1 -1 -1 -1 -1 -1 -1 -1 -1 -1 -1 -1 -1 -1 -1 -1 -1 -1
 MicOpt= -1 -1 -1 -1 -1 -1 -1 -1 -1 -1 -1 -1 -1 -1 -1 -1 -1 -1 -1 -1
 MicOpt= -1 -1 -1 -1 -1 -1 -1 -1 -1 -1 -1 -1 -1 -1 -1 -1 -1 -1 -1 -1
 MicOpt= -1 -1 -1 -1 -1 -1 -1 -1 -1 -1 -1 -1 -1 -1 -1 -1 -1 -1 -1 -1
 MicOpt= -1 -1 -1 -1 -1 -1 -1 -1 -1 -1
 NAtoms=     90 NQM=       90 NQMF=       0 NMMI=      0 NMMIF=      0
                NMic=       0 NMicF=      0.
                    Isotopes and Nuclear Properties:
 (Nuclear quadrupole moments (NQMom) in fm**2, nuclear magnetic moments (NMagM)
  in nuclear magnetons)

  Atom         1           2           3           4           5           6           7           8           9          10
 IAtWgt=          12          12          12          12          12          12          12          12          12          12
 AtmWgt=  12.0000000  12.0000000  12.0000000  12.0000000  12.0000000  12.0000000  12.0000000  12.0000000  12.0000000  12.0000000
 NucSpn=           0           0           0           0           0           0           0           0           0           0
 AtZEff=  -0.0000000  -0.0000000  -0.0000000  -0.0000000  -0.0000000  -0.0000000  -0.0000000  -0.0000000  -0.0000000  -0.0000000
 NQMom=    0.0000000   0.0000000   0.0000000   0.0000000   0.0000000   0.0000000   0.0000000   0.0000000   0.0000000   0.0000000
 NMagM=    0.0000000   0.0000000   0.0000000   0.0000000   0.0000000   0.0000000   0.0000000   0.0000000   0.0000000   0.0000000
 AtZNuc=   6.0000000   6.0000000   6.0000000   6.0000000   6.0000000   6.0000000   6.0000000   6.0000000   6.0000000   6.0000000

  Atom        11          12          13          14          15          16          17          18          19          20
 IAtWgt=          12          12          12          12          12          12          12          12          12          12
 AtmWgt=  12.0000000  12.0000000  12.0000000  12.0000000  12.0000000  12.0000000  12.0000000  12.0000000  12.0000000  12.0000000
 NucSpn=           0           0           0           0           0           0           0           0           0           0
 AtZEff=  -0.0000000  -0.0000000  -0.0000000  -0.0000000  -0.0000000  -0.0000000  -0.0000000  -0.0000000  -0.0000000  -0.0000000
 NQMom=    0.0000000   0.0000000   0.0000000   0.0000000   0.0000000   0.0000000   0.0000000   0.0000000   0.0000000   0.0000000
 NMagM=    0.0000000   0.0000000   0.0000000   0.0000000   0.0000000   0.0000000   0.0000000   0.0000000   0.0000000   0.0000000
 AtZNuc=   6.0000000   6.0000000   6.0000000   6.0000000   6.0000000   6.0000000   6.0000000   6.0000000   6.0000000   6.0000000

  Atom        21          22          23          24          25          26          27          28          29          30
 IAtWgt=          12          12          12          12          12          12          12          12          12          12
 AtmWgt=  12.0000000  12.0000000  12.0000000  12.0000000  12.0000000  12.0000000  12.0000000  12.0000000  12.0000000  12.0000000
 NucSpn=           0           0           0           0           0           0           0           0           0           0
 AtZEff=  -0.0000000  -0.0000000  -0.0000000  -0.0000000  -0.0000000  -0.0000000  -0.0000000  -0.0000000  -0.0000000  -0.0000000
 NQMom=    0.0000000   0.0000000   0.0000000   0.0000000   0.0000000   0.0000000   0.0000000   0.0000000   0.0000000   0.0000000
 NMagM=    0.0000000   0.0000000   0.0000000   0.0000000   0.0000000   0.0000000   0.0000000   0.0000000   0.0000000   0.0000000
 AtZNuc=   6.0000000   6.0000000   6.0000000   6.0000000   6.0000000   6.0000000   6.0000000   6.0000000   6.0000000   6.0000000

  Atom        31          32          33          34          35          36          37          38          39          40
 IAtWgt=          12          12          12          12          12          12          12          12          12          12
 AtmWgt=  12.0000000  12.0000000  12.0000000  12.0000000  12.0000000  12.0000000  12.0000000  12.0000000  12.0000000  12.0000000
 NucSpn=           0           0           0           0           0           0           0           0           0           0
 AtZEff=  -0.0000000  -0.0000000  -0.0000000  -0.0000000  -0.0000000  -0.0000000  -0.0000000  -0.0000000  -0.0000000  -0.0000000
 NQMom=    0.0000000   0.0000000   0.0000000   0.0000000   0.0000000   0.0000000   0.0000000   0.0000000   0.0000000   0.0000000
 NMagM=    0.0000000   0.0000000   0.0000000   0.0000000   0.0000000   0.0000000   0.0000000   0.0000000   0.0000000   0.0000000
 AtZNuc=   6.0000000   6.0000000   6.0000000   6.0000000   6.0000000   6.0000000   6.0000000   6.0000000   6.0000000   6.0000000

  Atom        41          42          43          44          45          46          47          48          49          50
 IAtWgt=          12          12          12          12          12          12          12          12          12          12
 AtmWgt=  12.0000000  12.0000000  12.0000000  12.0000000  12.0000000  12.0000000  12.0000000  12.0000000  12.0000000  12.0000000
 NucSpn=           0           0           0           0           0           0           0           0           0           0
 AtZEff=  -0.0000000  -0.0000000  -0.0000000  -0.0000000  -0.0000000  -0.0000000  -0.0000000  -0.0000000  -0.0000000  -0.0000000
 NQMom=    0.0000000   0.0000000   0.0000000   0.0000000   0.0000000   0.0000000   0.0000000   0.0000000   0.0000000   0.0000000
 NMagM=    0.0000000   0.0000000   0.0000000   0.0000000   0.0000000   0.0000000   0.0000000   0.0000000   0.0000000   0.0000000
 AtZNuc=   6.0000000   6.0000000   6.0000000   6.0000000   6.0000000   6.0000000   6.0000000   6.0000000   6.0000000   6.0000000

  Atom        51          52          53          54          55          56          57          58          59          60
 IAtWgt=          12          12          12          12          12          12          12          12          12          12
 AtmWgt=  12.0000000  12.0000000  12.0000000  12.0000000  12.0000000  12.0000000  12.0000000  12.0000000  12.0000000  12.0000000
 NucSpn=           0           0           0           0           0           0           0           0           0           0
 AtZEff=  -0.0000000  -0.0000000  -0.0000000  -0.0000000  -0.0000000  -0.0000000  -0.0000000  -0.0000000  -0.0000000  -0.0000000
 NQMom=    0.0000000   0.0000000   0.0000000   0.0000000   0.0000000   0.0000000   0.0000000   0.0000000   0.0000000   0.0000000
 NMagM=    0.0000000   0.0000000   0.0000000   0.0000000   0.0000000   0.0000000   0.0000000   0.0000000   0.0000000   0.0000000
 AtZNuc=   6.0000000   6.0000000   6.0000000   6.0000000   6.0000000   6.0000000   6.0000000   6.0000000   6.0000000   6.0000000

  Atom        61          62          63          64          65          66          67          68          69          70
 IAtWgt=          12          12          12          12          12          12          12          12          12          12
 AtmWgt=  12.0000000  12.0000000  12.0000000  12.0000000  12.0000000  12.0000000  12.0000000  12.0000000  12.0000000  12.0000000
 NucSpn=           0           0           0           0           0           0           0           0           0           0
 AtZEff=  -0.0000000  -0.0000000  -0.0000000  -0.0000000  -0.0000000  -0.0000000  -0.0000000  -0.0000000  -0.0000000  -0.0000000
 NQMom=    0.0000000   0.0000000   0.0000000   0.0000000   0.0000000   0.0000000   0.0000000   0.0000000   0.0000000   0.0000000
 NMagM=    0.0000000   0.0000000   0.0000000   0.0000000   0.0000000   0.0000000   0.0000000   0.0000000   0.0000000   0.0000000
 AtZNuc=   6.0000000   6.0000000   6.0000000   6.0000000   6.0000000   6.0000000   6.0000000   6.0000000   6.0000000   6.0000000

  Atom        71          72          73          74          75          76          77          78          79          80
 IAtWgt=          12          12          12          12          12          12          12          12          12          12
 AtmWgt=  12.0000000  12.0000000  12.0000000  12.0000000  12.0000000  12.0000000  12.0000000  12.0000000  12.0000000  12.0000000
 NucSpn=           0           0           0           0           0           0           0           0           0           0
 AtZEff=  -0.0000000  -0.0000000  -0.0000000  -0.0000000  -0.0000000  -0.0000000  -0.0000000  -0.0000000  -0.0000000  -0.0000000
 NQMom=    0.0000000   0.0000000   0.0000000   0.0000000   0.0000000   0.0000000   0.0000000   0.0000000   0.0000000   0.0000000
 NMagM=    0.0000000   0.0000000   0.0000000   0.0000000   0.0000000   0.0000000   0.0000000   0.0000000   0.0000000   0.0000000
 AtZNuc=   6.0000000   6.0000000   6.0000000   6.0000000   6.0000000   6.0000000   6.0000000   6.0000000   6.0000000   6.0000000

  Atom        81          82          83          84          85          86          87          88          89          90
 IAtWgt=          12          12          12          12          35          35          35          35          35          35
 AtmWgt=  12.0000000  12.0000000  12.0000000  12.0000000  34.9688527  34.9688527  34.9688527  34.9688527  34.9688527  34.9688527
 NucSpn=           0           0           0           0           3           3           3           3           3           3
 AtZEff=  -0.0000000  -0.0000000  -0.0000000  -0.0000000  -0.0000000  -0.0000000  -0.0000000  -0.0000000  -0.0000000  -0.0000000
 NQMom=    0.0000000   0.0000000   0.0000000   0.0000000  -8.1650000  -8.1650000  -8.1650000  -8.1650000  -8.1650000  -8.1650000
 NMagM=    0.0000000   0.0000000   0.0000000   0.0000000   0.8218740   0.8218740   0.8218740   0.8218740   0.8218740   0.8218740
 AtZNuc=   6.0000000   6.0000000   6.0000000   6.0000000  17.0000000  17.0000000  17.0000000  17.0000000  17.0000000  17.0000000
 Leave Link  101 at Wed Jun 29 14:10:58 2022, MaxMem=  1342177280 cpu:               6.5 elap:               0.3
 (Enter /home/mkliu/g16/l103.exe)

 GradGradGradGradGradGradGradGradGradGradGradGradGradGradGradGradGradGrad
 Berny optimization.
 Initialization pass.
                           ----------------------------
                           !    Initial Parameters    !
                           ! (Angstroms and Degrees)  !
 --------------------------                            --------------------------
 ! Name  Definition              Value          Derivative Info.                !
 --------------------------------------------------------------------------------
 ! R1    R(1,5)                  1.4167         estimate D2E/DX2                !
 ! R2    R(1,17)                 1.417          estimate D2E/DX2                !
 ! R3    R(1,25)                 1.4373         estimate D2E/DX2                !
 ! R4    R(2,6)                  1.5            estimate D2E/DX2                !
 ! R5    R(2,43)                 1.5156         estimate D2E/DX2                !
 ! R6    R(2,44)                 1.5053         estimate D2E/DX2                !
 ! R7    R(2,87)                 1.8047         estimate D2E/DX2                !
 ! R8    R(3,7)                  1.4188         estimate D2E/DX2                !
 ! R9    R(3,18)                 1.4166         estimate D2E/DX2                !
 ! R10   R(3,26)                 1.4364         estimate D2E/DX2                !
 ! R11   R(4,8)                  1.4976         estimate D2E/DX2                !
 ! R12   R(4,45)                 1.5044         estimate D2E/DX2                !
 ! R13   R(4,46)                 1.513          estimate D2E/DX2                !
 ! R14   R(4,89)                 1.8138         estimate D2E/DX2                !
 ! R15   R(5,9)                  1.4126         estimate D2E/DX2                !
 ! R16   R(5,29)                 1.4339         estimate D2E/DX2                !
 ! R17   R(6,10)                 1.3569         estimate D2E/DX2                !
 ! R18   R(6,15)                 1.4234         estimate D2E/DX2                !
 ! R19   R(7,12)                 1.4122         estimate D2E/DX2                !
 ! R20   R(7,30)                 1.4357         estimate D2E/DX2                !
 ! R21   R(8,11)                 1.3587         estimate D2E/DX2                !
 ! R22   R(8,16)                 1.4208         estimate D2E/DX2                !
 ! R23   R(9,13)                 1.4076         estimate D2E/DX2                !
 ! R24   R(9,35)                 1.4398         estimate D2E/DX2                !
 ! R25   R(10,49)                1.5048         estimate D2E/DX2                !
 ! R26   R(10,53)                1.4287         estimate D2E/DX2                !
 ! R27   R(11,50)                1.5059         estimate D2E/DX2                !
 ! R28   R(11,54)                1.4264         estimate D2E/DX2                !
 ! R29   R(12,14)                1.4189         estimate D2E/DX2                !
 ! R30   R(12,36)                1.4381         estimate D2E/DX2                !
 ! R31   R(13,15)                1.4305         estimate D2E/DX2                !
 ! R32   R(13,43)                1.4051         estimate D2E/DX2                !
 ! R33   R(14,16)                1.4366         estimate D2E/DX2                !
 ! R34   R(14,46)                1.3962         estimate D2E/DX2                !
 ! R35   R(15,17)                1.4063         estimate D2E/DX2                !
 ! R36   R(16,18)                1.4057         estimate D2E/DX2                !
 ! R37   R(17,19)                1.4403         estimate D2E/DX2                !
 ! R38   R(18,20)                1.441          estimate D2E/DX2                !
 ! R39   R(19,21)                1.4141         estimate D2E/DX2                !
 ! R40   R(19,53)                1.4132         estimate D2E/DX2                !
 ! R41   R(20,22)                1.4134         estimate D2E/DX2                !
 ! R42   R(20,54)                1.4133         estimate D2E/DX2                !
 ! R43   R(21,23)                1.4453         estimate D2E/DX2                !
 ! R44   R(21,57)                1.4103         estimate D2E/DX2                !
 ! R45   R(22,24)                1.4434         estimate D2E/DX2                !
 ! R46   R(22,58)                1.4116         estimate D2E/DX2                !
 ! R47   R(23,25)                1.3675         estimate D2E/DX2                !
 ! R48   R(23,61)                1.4268         estimate D2E/DX2                !
 ! R49   R(24,26)                1.3685         estimate D2E/DX2                !
 ! R50   R(24,62)                1.4272         estimate D2E/DX2                !
 ! R51   R(25,27)                1.4324         estimate D2E/DX2                !
 ! R52   R(26,28)                1.4309         estimate D2E/DX2                !
 ! R53   R(27,29)                1.4259         estimate D2E/DX2                !
 ! R54   R(27,65)                1.4103         estimate D2E/DX2                !
 ! R55   R(28,30)                1.4285         estimate D2E/DX2                !
 ! R56   R(28,66)                1.4091         estimate D2E/DX2                !
 ! R57   R(29,31)                1.368          estimate D2E/DX2                !
 ! R58   R(30,32)                1.3639         estimate D2E/DX2                !
 ! R59   R(31,33)                1.4301         estimate D2E/DX2                !
 ! R60   R(31,69)                1.4349         estimate D2E/DX2                !
 ! R61   R(32,34)                1.4382         estimate D2E/DX2                !
 ! R62   R(32,70)                1.434          estimate D2E/DX2                !
 ! R63   R(33,35)                1.4277         estimate D2E/DX2                !
 ! R64   R(33,73)                1.4236         estimate D2E/DX2                !
 ! R65   R(34,36)                1.4202         estimate D2E/DX2                !
 ! R66   R(34,74)                1.4142         estimate D2E/DX2                !
 ! R67   R(35,37)                1.421          estimate D2E/DX2                !
 ! R68   R(36,38)                1.4394         estimate D2E/DX2                !
 ! R69   R(37,39)                1.407          estimate D2E/DX2                !
 ! R70   R(37,77)                1.5204         estimate D2E/DX2                !
 ! R71   R(38,42)                1.4387         estimate D2E/DX2                !
 ! R72   R(38,78)                1.4182         estimate D2E/DX2                !
 ! R73   R(39,43)                1.3864         estimate D2E/DX2                !
 ! R74   R(39,79)                1.5078         estimate D2E/DX2                !
 ! R75   R(40,41)                1.3987         estimate D2E/DX2                !
 ! R76   R(40,44)                1.3788         estimate D2E/DX2                !
 ! R77   R(40,79)                1.5127         estimate D2E/DX2                !
 ! R78   R(41,45)                1.3881         estimate D2E/DX2                !
 ! R79   R(41,80)                1.4463         estimate D2E/DX2                !
 ! R80   R(42,46)                1.4042         estimate D2E/DX2                !
 ! R81   R(42,80)                1.413          estimate D2E/DX2                !
 ! R82   R(44,47)                1.4087         estimate D2E/DX2                !
 ! R83   R(45,48)                1.4011         estimate D2E/DX2                !
 ! R84   R(47,48)                1.405          estimate D2E/DX2                !
 ! R85   R(47,49)                1.5194         estimate D2E/DX2                !
 ! R86   R(48,50)                1.52           estimate D2E/DX2                !
 ! R87   R(49,51)                1.5018         estimate D2E/DX2                !
 ! R88   R(49,85)                1.8041         estimate D2E/DX2                !
 ! R89   R(50,52)                1.5011         estimate D2E/DX2                !
 ! R90   R(50,86)                1.8033         estimate D2E/DX2                !
 ! R91   R(51,52)                1.3534         estimate D2E/DX2                !
 ! R92   R(51,55)                1.4291         estimate D2E/DX2                !
 ! R93   R(52,56)                1.429          estimate D2E/DX2                !
 ! R94   R(53,55)                1.4198         estimate D2E/DX2                !
 ! R95   R(54,56)                1.421          estimate D2E/DX2                !
 ! R96   R(55,83)                1.4114         estimate D2E/DX2                !
 ! R97   R(56,84)                1.4106         estimate D2E/DX2                !
 ! R98   R(57,59)                1.4443         estimate D2E/DX2                !
 ! R99   R(57,83)                1.4151         estimate D2E/DX2                !
 ! R100  R(58,60)                1.4423         estimate D2E/DX2                !
 ! R101  R(58,84)                1.4157         estimate D2E/DX2                !
 ! R102  R(59,60)                1.3654         estimate D2E/DX2                !
 ! R103  R(59,61)                1.4296         estimate D2E/DX2                !
 ! R104  R(60,62)                1.4309         estimate D2E/DX2                !
 ! R105  R(61,63)                1.4164         estimate D2E/DX2                !
 ! R106  R(62,64)                1.4145         estimate D2E/DX2                !
 ! R107  R(63,64)                1.4426         estimate D2E/DX2                !
 ! R108  R(63,65)                1.4453         estimate D2E/DX2                !
 ! R109  R(64,66)                1.4475         estimate D2E/DX2                !
 ! R110  R(65,67)                1.4507         estimate D2E/DX2                !
 ! R111  R(66,68)                1.4494         estimate D2E/DX2                !
 ! R112  R(67,68)                1.4474         estimate D2E/DX2                !
 ! R113  R(67,69)                1.4112         estimate D2E/DX2                !
 ! R114  R(68,70)                1.4113         estimate D2E/DX2                !
 ! R115  R(69,71)                1.4297         estimate D2E/DX2                !
 ! R116  R(70,72)                1.4308         estimate D2E/DX2                !
 ! R117  R(71,72)                1.3729         estimate D2E/DX2                !
 ! R118  R(71,73)                1.4453         estimate D2E/DX2                !
 ! R119  R(72,74)                1.44           estimate D2E/DX2                !
 ! R120  R(73,75)                1.3794         estimate D2E/DX2                !
 ! R121  R(74,76)                1.3925         estimate D2E/DX2                !
 ! R122  R(75,76)                1.4113         estimate D2E/DX2                !
 ! R123  R(75,77)                1.5037         estimate D2E/DX2                !
 ! R124  R(76,78)                1.4345         estimate D2E/DX2                !
 ! R125  R(77,81)                1.5086         estimate D2E/DX2                !
 ! R126  R(77,90)                1.8139         estimate D2E/DX2                !
 ! R127  R(78,81)                1.4125         estimate D2E/DX2                !
 ! R128  R(79,82)                1.5009         estimate D2E/DX2                !
 ! R129  R(79,88)                1.8029         estimate D2E/DX2                !
 ! R130  R(80,82)                1.402          estimate D2E/DX2                !
 ! R131  R(81,82)                1.3665         estimate D2E/DX2                !
 ! R132  R(83,84)                1.4403         estimate D2E/DX2                !
 ! A1    A(5,1,17)             122.2171         estimate D2E/DX2                !
 ! A2    A(5,1,25)             107.0187         estimate D2E/DX2                !
 ! A3    A(17,1,25)            120.2711         estimate D2E/DX2                !
 ! A4    A(6,2,43)             101.4076         estimate D2E/DX2                !
 ! A5    A(6,2,44)             110.3008         estimate D2E/DX2                !
 ! A6    A(6,2,87)             113.0493         estimate D2E/DX2                !
 ! A7    A(43,2,44)            109.5605         estimate D2E/DX2                !
 ! A8    A(43,2,87)            111.9562         estimate D2E/DX2                !
 ! A9    A(44,2,87)            110.2482         estimate D2E/DX2                !
 ! A10   A(7,3,18)             122.3039         estimate D2E/DX2                !
 ! A11   A(7,3,26)             107.2838         estimate D2E/DX2                !
 ! A12   A(18,3,26)            120.134          estimate D2E/DX2                !
 ! A13   A(8,4,45)             110.1934         estimate D2E/DX2                !
 ! A14   A(8,4,46)             101.6819         estimate D2E/DX2                !
 ! A15   A(8,4,89)             112.8118         estimate D2E/DX2                !
 ! A16   A(45,4,46)            111.1212         estimate D2E/DX2                !
 ! A17   A(45,4,89)            109.4111         estimate D2E/DX2                !
 ! A18   A(46,4,89)            111.4547         estimate D2E/DX2                !
 ! A19   A(1,5,9)              122.1539         estimate D2E/DX2                !
 ! A20   A(1,5,29)             107.3982         estimate D2E/DX2                !
 ! A21   A(9,5,29)             119.2184         estimate D2E/DX2                !
 ! A22   A(2,6,10)             122.3982         estimate D2E/DX2                !
 ! A23   A(2,6,15)             110.4872         estimate D2E/DX2                !
 ! A24   A(10,6,15)            119.9148         estimate D2E/DX2                !
 ! A25   A(3,7,12)             122.6016         estimate D2E/DX2                !
 ! A26   A(3,7,30)             107.0426         estimate D2E/DX2                !
 ! A27   A(12,7,30)            119.6655         estimate D2E/DX2                !
 ! A28   A(4,8,11)             122.0387         estimate D2E/DX2                !
 ! A29   A(4,8,16)             110.2774         estimate D2E/DX2                !
 ! A30   A(11,8,16)            120.2638         estimate D2E/DX2                !
 ! A31   A(5,9,13)             115.0488         estimate D2E/DX2                !
 ! A32   A(5,9,35)             121.107          estimate D2E/DX2                !
 ! A33   A(13,9,35)            118.5936         estimate D2E/DX2                !
 ! A34   A(6,10,49)            122.7836         estimate D2E/DX2                !
 ! A35   A(6,10,53)            119.5272         estimate D2E/DX2                !
 ! A36   A(49,10,53)           110.8503         estimate D2E/DX2                !
 ! A37   A(8,11,50)            123.014          estimate D2E/DX2                !
 ! A38   A(8,11,54)            119.4141         estimate D2E/DX2                !
 ! A39   A(50,11,54)           110.8674         estimate D2E/DX2                !
 ! A40   A(7,12,14)            114.747          estimate D2E/DX2                !
 ! A41   A(7,12,36)            120.6548         estimate D2E/DX2                !
 ! A42   A(14,12,36)           118.8695         estimate D2E/DX2                !
 ! A43   A(9,13,15)            122.6964         estimate D2E/DX2                !
 ! A44   A(9,13,43)            121.182          estimate D2E/DX2                !
 ! A45   A(15,13,43)           109.484          estimate D2E/DX2                !
 ! A46   A(12,14,16)           122.3646         estimate D2E/DX2                !
 ! A47   A(12,14,46)           121.8108         estimate D2E/DX2                !
 ! A48   A(16,14,46)           109.1849         estimate D2E/DX2                !
 ! A49   A(6,15,13)            107.7547         estimate D2E/DX2                !
 ! A50   A(6,15,17)            122.2362         estimate D2E/DX2                !
 ! A51   A(13,15,17)           121.3764         estimate D2E/DX2                !
 ! A52   A(8,16,14)            107.9782         estimate D2E/DX2                !
 ! A53   A(8,16,18)            121.9253         estimate D2E/DX2                !
 ! A54   A(14,16,18)           121.7427         estimate D2E/DX2                !
 ! A55   A(1,17,15)            115.4929         estimate D2E/DX2                !
 ! A56   A(1,17,19)            119.4636         estimate D2E/DX2                !
 ! A57   A(15,17,19)           118.0938         estimate D2E/DX2                !
 ! A58   A(3,18,16)            115.4035         estimate D2E/DX2                !
 ! A59   A(3,18,20)            119.5275         estimate D2E/DX2                !
 ! A60   A(16,18,20)           118.2078         estimate D2E/DX2                !
 ! A61   A(17,19,21)           119.0568         estimate D2E/DX2                !
 ! A62   A(17,19,53)           118.2189         estimate D2E/DX2                !
 ! A63   A(21,19,53)           115.6679         estimate D2E/DX2                !
 ! A64   A(18,20,22)           119.0828         estimate D2E/DX2                !
 ! A65   A(18,20,54)           118.2893         estimate D2E/DX2                !
 ! A66   A(22,20,54)           115.6137         estimate D2E/DX2                !
 ! A67   A(19,21,23)           120.2616         estimate D2E/DX2                !
 ! A68   A(19,21,57)           122.1216         estimate D2E/DX2                !
 ! A69   A(23,21,57)           107.249          estimate D2E/DX2                !
 ! A70   A(20,22,24)           120.2018         estimate D2E/DX2                !
 ! A71   A(20,22,58)           122.1236         estimate D2E/DX2                !
 ! A72   A(24,22,58)           107.2758         estimate D2E/DX2                !
 ! A73   A(21,23,25)           120.385          estimate D2E/DX2                !
 ! A74   A(21,23,61)           109.9377         estimate D2E/DX2                !
 ! A75   A(25,23,61)           119.2834         estimate D2E/DX2                !
 ! A76   A(22,24,26)           120.4236         estimate D2E/DX2                !
 ! A77   A(22,24,62)           109.8957         estimate D2E/DX2                !
 ! A78   A(26,24,62)           119.2357         estimate D2E/DX2                !
 ! A79   A(1,25,23)            120.3143         estimate D2E/DX2                !
 ! A80   A(1,25,27)            109.7894         estimate D2E/DX2                !
 ! A81   A(23,25,27)           119.2046         estimate D2E/DX2                !
 ! A82   A(3,26,24)            120.3914         estimate D2E/DX2                !
 ! A83   A(3,26,28)            109.7884         estimate D2E/DX2                !
 ! A84   A(24,26,28)           119.2046         estimate D2E/DX2                !
 ! A85   A(25,27,29)           104.9427         estimate D2E/DX2                !
 ! A86   A(25,27,65)           122.443          estimate D2E/DX2                !
 ! A87   A(29,27,65)           121.6218         estimate D2E/DX2                !
 ! A88   A(26,28,30)           104.8957         estimate D2E/DX2                !
 ! A89   A(26,28,66)           122.4718         estimate D2E/DX2                !
 ! A90   A(30,28,66)           121.5744         estimate D2E/DX2                !
 ! A91   A(5,29,27)            109.7603         estimate D2E/DX2                !
 ! A92   A(5,29,31)            119.6793         estimate D2E/DX2                !
 ! A93   A(27,29,31)           120.0947         estimate D2E/DX2                !
 ! A94   A(7,30,28)            109.9031         estimate D2E/DX2                !
 ! A95   A(7,30,32)            119.9708         estimate D2E/DX2                !
 ! A96   A(28,30,32)           119.8347         estimate D2E/DX2                !
 ! A97   A(29,31,33)           121.3476         estimate D2E/DX2                !
 ! A98   A(29,31,69)           118.9266         estimate D2E/DX2                !
 ! A99   A(33,31,69)           110.2444         estimate D2E/DX2                !
 ! A100  A(30,32,34)           120.6169         estimate D2E/DX2                !
 ! A101  A(30,32,70)           119.2781         estimate D2E/DX2                !
 ! A102  A(34,32,70)           109.9799         estimate D2E/DX2                !
 ! A103  A(31,33,35)           119.4587         estimate D2E/DX2                !
 ! A104  A(31,33,73)           106.4634         estimate D2E/DX2                !
 ! A105  A(35,33,73)           121.3068         estimate D2E/DX2                !
 ! A106  A(32,34,36)           120.3091         estimate D2E/DX2                !
 ! A107  A(32,34,74)           106.1502         estimate D2E/DX2                !
 ! A108  A(36,34,74)           122.6438         estimate D2E/DX2                !
 ! A109  A(9,35,33)            117.043          estimate D2E/DX2                !
 ! A110  A(9,35,37)            119.0798         estimate D2E/DX2                !
 ! A111  A(33,35,37)           119.4472         estimate D2E/DX2                !
 ! A112  A(12,36,34)           117.3958         estimate D2E/DX2                !
 ! A113  A(12,36,38)           119.2401         estimate D2E/DX2                !
 ! A114  A(34,36,38)           117.9097         estimate D2E/DX2                !
 ! A115  A(35,37,39)           120.4608         estimate D2E/DX2                !
 ! A116  A(35,37,77)           119.6768         estimate D2E/DX2                !
 ! A117  A(39,37,77)           118.7702         estimate D2E/DX2                !
 ! A118  A(36,38,42)           119.7052         estimate D2E/DX2                !
 ! A119  A(36,38,78)           118.8048         estimate D2E/DX2                !
 ! A120  A(42,38,78)           116.3823         estimate D2E/DX2                !
 ! A121  A(37,39,43)           120.1549         estimate D2E/DX2                !
 ! A122  A(37,39,79)           122.9072         estimate D2E/DX2                !
 ! A123  A(43,39,79)           115.3546         estimate D2E/DX2                !
 ! A124  A(41,40,44)           120.2022         estimate D2E/DX2                !
 ! A125  A(41,40,79)           110.2349         estimate D2E/DX2                !
 ! A126  A(44,40,79)           126.0536         estimate D2E/DX2                !
 ! A127  A(40,41,45)           121.3844         estimate D2E/DX2                !
 ! A128  A(40,41,80)           108.9555         estimate D2E/DX2                !
 ! A129  A(45,41,80)           124.0788         estimate D2E/DX2                !
 ! A130  A(38,42,46)           119.7383         estimate D2E/DX2                !
 ! A131  A(38,42,80)           118.8269         estimate D2E/DX2                !
 ! A132  A(46,42,80)           116.0455         estimate D2E/DX2                !
 ! A133  A(2,43,13)            109.6894         estimate D2E/DX2                !
 ! A134  A(2,43,39)            125.808          estimate D2E/DX2                !
 ! A135  A(13,43,39)           120.3365         estimate D2E/DX2                !
 ! A136  A(2,44,40)            115.6046         estimate D2E/DX2                !
 ! A137  A(2,44,47)            123.6431         estimate D2E/DX2                !
 ! A138  A(40,44,47)           119.2287         estimate D2E/DX2                !
 ! A139  A(4,45,41)            115.6659         estimate D2E/DX2                !
 ! A140  A(4,45,48)            124.1349         estimate D2E/DX2                !
 ! A141  A(41,45,48)           118.8057         estimate D2E/DX2                !
 ! A142  A(4,46,14)            110.1218         estimate D2E/DX2                !
 ! A143  A(4,46,42)            124.2422         estimate D2E/DX2                !
 ! A144  A(14,46,42)           120.3642         estimate D2E/DX2                !
 ! A145  A(44,47,48)           120.3314         estimate D2E/DX2                !
 ! A146  A(44,47,49)           118.5923         estimate D2E/DX2                !
 ! A147  A(48,47,49)           120.3858         estimate D2E/DX2                !
 ! A148  A(45,48,47)           119.9444         estimate D2E/DX2                !
 ! A149  A(45,48,50)           118.4446         estimate D2E/DX2                !
 ! A150  A(47,48,50)           120.8684         estimate D2E/DX2                !
 ! A151  A(10,49,47)           110.342          estimate D2E/DX2                !
 ! A152  A(10,49,51)           101.0908         estimate D2E/DX2                !
 ! A153  A(10,49,85)           112.9855         estimate D2E/DX2                !
 ! A154  A(47,49,51)           110.3065         estimate D2E/DX2                !
 ! A155  A(47,49,85)           108.6921         estimate D2E/DX2                !
 ! A156  A(51,49,85)           113.2674         estimate D2E/DX2                !
 ! A157  A(11,50,48)           110.2083         estimate D2E/DX2                !
 ! A158  A(11,50,52)           101.0819         estimate D2E/DX2                !
 ! A159  A(11,50,86)           113.0436         estimate D2E/DX2                !
 ! A160  A(48,50,52)           110.1439         estimate D2E/DX2                !
 ! A161  A(48,50,86)           108.7715         estimate D2E/DX2                !
 ! A162  A(52,50,86)           113.4148         estimate D2E/DX2                !
 ! A163  A(49,51,52)           122.287          estimate D2E/DX2                !
 ! A164  A(49,51,55)           110.9949         estimate D2E/DX2                !
 ! A165  A(52,51,55)           119.9125         estimate D2E/DX2                !
 ! A166  A(50,52,51)           122.1056         estimate D2E/DX2                !
 ! A167  A(50,52,56)           110.9861         estimate D2E/DX2                !
 ! A168  A(51,52,56)           119.9036         estimate D2E/DX2                !
 ! A169  A(10,53,19)           121.9405         estimate D2E/DX2                !
 ! A170  A(10,53,55)           108.4408         estimate D2E/DX2                !
 ! A171  A(19,53,55)           121.855          estimate D2E/DX2                !
 ! A172  A(11,54,20)           121.8414         estimate D2E/DX2                !
 ! A173  A(11,54,56)           108.4456         estimate D2E/DX2                !
 ! A174  A(20,54,56)           121.9255         estimate D2E/DX2                !
 ! A175  A(51,55,53)           108.3408         estimate D2E/DX2                !
 ! A176  A(51,55,83)           121.7593         estimate D2E/DX2                !
 ! A177  A(53,55,83)           122.0453         estimate D2E/DX2                !
 ! A178  A(52,56,54)           108.3268         estimate D2E/DX2                !
 ! A179  A(52,56,84)           121.7901         estimate D2E/DX2                !
 ! A180  A(54,56,84)           122.0151         estimate D2E/DX2                !
 ! A181  A(21,57,59)           107.1675         estimate D2E/DX2                !
 ! A182  A(21,57,83)           122.119          estimate D2E/DX2                !
 ! A183  A(59,57,83)           120.2911         estimate D2E/DX2                !
 ! A184  A(22,58,60)           107.2106         estimate D2E/DX2                !
 ! A185  A(22,58,84)           122.1335         estimate D2E/DX2                !
 ! A186  A(60,58,84)           120.3334         estimate D2E/DX2                !
 ! A187  A(57,59,60)           120.3148         estimate D2E/DX2                !
 ! A188  A(57,59,61)           109.9766         estimate D2E/DX2                !
 ! A189  A(60,59,61)           119.4394         estimate D2E/DX2                !
 ! A190  A(58,60,59)           120.337          estimate D2E/DX2                !
 ! A191  A(58,60,62)           109.8984         estimate D2E/DX2                !
 ! A192  A(59,60,62)           119.3314         estimate D2E/DX2                !
 ! A193  A(23,61,59)           104.9423         estimate D2E/DX2                !
 ! A194  A(23,61,63)           122.2403         estimate D2E/DX2                !
 ! A195  A(59,61,63)           122.163          estimate D2E/DX2                !
 ! A196  A(24,62,60)           104.9654         estimate D2E/DX2                !
 ! A197  A(24,62,64)           122.2874         estimate D2E/DX2                !
 ! A198  A(60,62,64)           122.1932         estimate D2E/DX2                !
 ! A199  A(61,63,64)           117.8892         estimate D2E/DX2                !
 ! A200  A(61,63,65)           117.9574         estimate D2E/DX2                !
 ! A201  A(64,63,65)           119.843          estimate D2E/DX2                !
 ! A202  A(62,64,63)           117.9898         estimate D2E/DX2                !
 ! A203  A(62,64,66)           117.9073         estimate D2E/DX2                !
 ! A204  A(63,64,66)           119.8599         estimate D2E/DX2                !
 ! A205  A(27,65,63)           117.6734         estimate D2E/DX2                !
 ! A206  A(27,65,67)           117.7292         estimate D2E/DX2                !
 ! A207  A(63,65,67)           120.5042         estimate D2E/DX2                !
 ! A208  A(28,66,64)           117.6641         estimate D2E/DX2                !
 ! A209  A(28,66,68)           117.8609         estimate D2E/DX2                !
 ! A210  A(64,66,68)           120.4436         estimate D2E/DX2                !
 ! A211  A(65,67,68)           119.6399         estimate D2E/DX2                !
 ! A212  A(65,67,69)           118.3544         estimate D2E/DX2                !
 ! A213  A(68,67,69)           117.8359         estimate D2E/DX2                !
 ! A214  A(66,68,67)           119.6795         estimate D2E/DX2                !
 ! A215  A(66,68,70)           118.244          estimate D2E/DX2                !
 ! A216  A(67,68,70)           117.8347         estimate D2E/DX2                !
 ! A217  A(31,69,67)           121.3921         estimate D2E/DX2                !
 ! A218  A(31,69,71)           105.2171         estimate D2E/DX2                !
 ! A219  A(67,69,71)           122.9012         estimate D2E/DX2                !
 ! A220  A(32,70,68)           121.2633         estimate D2E/DX2                !
 ! A221  A(32,70,72)           105.2278         estimate D2E/DX2                !
 ! A222  A(68,70,72)           122.7176         estimate D2E/DX2                !
 ! A223  A(69,71,72)           118.9704         estimate D2E/DX2                !
 ! A224  A(69,71,73)           109.1044         estimate D2E/DX2                !
 ! A225  A(72,71,73)           120.495          estimate D2E/DX2                !
 ! A226  A(70,72,71)           119.2868         estimate D2E/DX2                !
 ! A227  A(70,72,74)           108.844          estimate D2E/DX2                !
 ! A228  A(71,72,74)           119.4566         estimate D2E/DX2                !
 ! A229  A(33,73,71)           107.8766         estimate D2E/DX2                !
 ! A230  A(33,73,75)           120.5094         estimate D2E/DX2                !
 ! A231  A(71,73,75)           120.0441         estimate D2E/DX2                !
 ! A232  A(34,74,72)           108.5566         estimate D2E/DX2                !
 ! A233  A(34,74,76)           119.701          estimate D2E/DX2                !
 ! A234  A(72,74,76)           119.0828         estimate D2E/DX2                !
 ! A235  A(73,75,76)           119.2207         estimate D2E/DX2                !
 ! A236  A(73,75,77)           121.3934         estimate D2E/DX2                !
 ! A237  A(76,75,77)           110.1906         estimate D2E/DX2                !
 ! A238  A(74,76,75)           121.5199         estimate D2E/DX2                !
 ! A239  A(74,76,78)           118.9406         estimate D2E/DX2                !
 ! A240  A(75,76,78)           109.3492         estimate D2E/DX2                !
 ! A241  A(37,77,75)           113.0981         estimate D2E/DX2                !
 ! A242  A(37,77,81)           111.454          estimate D2E/DX2                !
 ! A243  A(37,77,90)           107.6022         estimate D2E/DX2                !
 ! A244  A(75,77,81)           101.2433         estimate D2E/DX2                !
 ! A245  A(75,77,90)           111.9072         estimate D2E/DX2                !
 ! A246  A(81,77,90)           111.5501         estimate D2E/DX2                !
 ! A247  A(38,78,76)           121.9138         estimate D2E/DX2                !
 ! A248  A(38,78,81)           122.7961         estimate D2E/DX2                !
 ! A249  A(76,78,81)           107.3918         estimate D2E/DX2                !
 ! A250  A(39,79,40)           109.4522         estimate D2E/DX2                !
 ! A251  A(39,79,82)           111.3752         estimate D2E/DX2                !
 ! A252  A(39,79,88)           110.26           estimate D2E/DX2                !
 ! A253  A(40,79,82)           100.6508         estimate D2E/DX2                !
 ! A254  A(40,79,88)           111.9212         estimate D2E/DX2                !
 ! A255  A(82,79,88)           112.8302         estimate D2E/DX2                !
 ! A256  A(41,80,42)           119.2574         estimate D2E/DX2                !
 ! A257  A(41,80,82)           107.3699         estimate D2E/DX2                !
 ! A258  A(42,80,82)           122.6139         estimate D2E/DX2                !
 ! A259  A(77,81,78)           111.3427         estimate D2E/DX2                !
 ! A260  A(77,81,82)           121.7717         estimate D2E/DX2                !
 ! A261  A(78,81,82)           119.9302         estimate D2E/DX2                !
 ! A262  A(79,82,80)           111.5331         estimate D2E/DX2                !
 ! A263  A(79,82,81)           122.2995         estimate D2E/DX2                !
 ! A264  A(80,82,81)           119.1087         estimate D2E/DX2                !
 ! A265  A(55,83,57)           115.5952         estimate D2E/DX2                !
 ! A266  A(55,83,84)           118.3001         estimate D2E/DX2                !
 ! A267  A(57,83,84)           119.2337         estimate D2E/DX2                !
 ! A268  A(56,84,58)           115.5774         estimate D2E/DX2                !
 ! A269  A(56,84,83)           118.3137         estimate D2E/DX2                !
 ! A270  A(58,84,83)           119.2383         estimate D2E/DX2                !
 ! D1    D(17,1,5,9)            -3.7378         estimate D2E/DX2                !
 ! D2    D(17,1,5,29)         -146.9816         estimate D2E/DX2                !
 ! D3    D(25,1,5,9)           140.9483         estimate D2E/DX2                !
 ! D4    D(25,1,5,29)           -2.2955         estimate D2E/DX2                !
 ! D5    D(5,1,17,15)           -5.6818         estimate D2E/DX2                !
 ! D6    D(5,1,17,19)          144.6123         estimate D2E/DX2                !
 ! D7    D(25,1,17,15)        -145.8894         estimate D2E/DX2                !
 ! D8    D(25,1,17,19)           4.4047         estimate D2E/DX2                !
 ! D9    D(5,1,25,23)         -148.6149         estimate D2E/DX2                !
 ! D10   D(5,1,25,27)           -4.415          estimate D2E/DX2                !
 ! D11   D(17,1,25,23)          -3.1051         estimate D2E/DX2                !
 ! D12   D(17,1,25,27)         141.0948         estimate D2E/DX2                !
 ! D13   D(43,2,6,10)         -140.4104         estimate D2E/DX2                !
 ! D14   D(43,2,6,15)            9.7734         estimate D2E/DX2                !
 ! D15   D(44,2,6,10)          -24.3823         estimate D2E/DX2                !
 ! D16   D(44,2,6,15)          125.8015         estimate D2E/DX2                !
 ! D17   D(87,2,6,10)           99.5645         estimate D2E/DX2                !
 ! D18   D(87,2,6,15)         -110.2517         estimate D2E/DX2                !
 ! D19   D(6,2,43,13)          -10.7464         estimate D2E/DX2                !
 ! D20   D(6,2,43,39)          146.1257         estimate D2E/DX2                !
 ! D21   D(44,2,43,13)        -127.3176         estimate D2E/DX2                !
 ! D22   D(44,2,43,39)          29.5545         estimate D2E/DX2                !
 ! D23   D(87,2,43,13)         110.0502         estimate D2E/DX2                !
 ! D24   D(87,2,43,39)         -93.0777         estimate D2E/DX2                !
 ! D25   D(6,2,44,40)         -144.9954         estimate D2E/DX2                !
 ! D26   D(6,2,44,47)           20.7765         estimate D2E/DX2                !
 ! D27   D(43,2,44,40)         -34.1872         estimate D2E/DX2                !
 ! D28   D(43,2,44,47)         131.5848         estimate D2E/DX2                !
 ! D29   D(87,2,44,40)          89.4547         estimate D2E/DX2                !
 ! D30   D(87,2,44,47)        -104.7733         estimate D2E/DX2                !
 ! D31   D(18,3,7,12)            2.9549         estimate D2E/DX2                !
 ! D32   D(18,3,7,30)          147.104          estimate D2E/DX2                !
 ! D33   D(26,3,7,12)         -142.0075         estimate D2E/DX2                !
 ! D34   D(26,3,7,30)            2.1416         estimate D2E/DX2                !
 ! D35   D(7,3,18,16)            5.5628         estimate D2E/DX2                !
 ! D36   D(7,3,18,20)         -144.9381         estimate D2E/DX2                !
 ! D37   D(26,3,18,16)         146.2278         estimate D2E/DX2                !
 ! D38   D(26,3,18,20)          -4.2731         estimate D2E/DX2                !
 ! D39   D(7,3,26,24)          148.8602         estimate D2E/DX2                !
 ! D40   D(7,3,26,28)            4.5514         estimate D2E/DX2                !
 ! D41   D(18,3,26,24)           2.991          estimate D2E/DX2                !
 ! D42   D(18,3,26,28)        -141.3177         estimate D2E/DX2                !
 ! D43   D(45,4,8,11)           24.2328         estimate D2E/DX2                !
 ! D44   D(45,4,8,16)         -125.6531         estimate D2E/DX2                !
 ! D45   D(46,4,8,11)          142.1444         estimate D2E/DX2                !
 ! D46   D(46,4,8,16)           -7.7414         estimate D2E/DX2                !
 ! D47   D(89,4,8,11)          -98.3729         estimate D2E/DX2                !
 ! D48   D(89,4,8,16)          111.7412         estimate D2E/DX2                !
 ! D49   D(8,4,45,41)          144.5656         estimate D2E/DX2                !
 ! D50   D(8,4,45,48)          -21.7535         estimate D2E/DX2                !
 ! D51   D(46,4,45,41)          32.643          estimate D2E/DX2                !
 ! D52   D(46,4,45,48)        -133.6761         estimate D2E/DX2                !
 ! D53   D(89,4,45,41)         -90.8516         estimate D2E/DX2                !
 ! D54   D(89,4,45,48)         102.8293         estimate D2E/DX2                !
 ! D55   D(8,4,46,14)            8.6852         estimate D2E/DX2                !
 ! D56   D(8,4,46,42)         -145.5546         estimate D2E/DX2                !
 ! D57   D(45,4,46,14)         125.9271         estimate D2E/DX2                !
 ! D58   D(45,4,46,42)         -28.3127         estimate D2E/DX2                !
 ! D59   D(89,4,46,14)        -111.755          estimate D2E/DX2                !
 ! D60   D(89,4,46,42)          94.0052         estimate D2E/DX2                !
 ! D61   D(1,5,9,13)             8.6511         estimate D2E/DX2                !
 ! D62   D(1,5,9,35)          -145.376          estimate D2E/DX2                !
 ! D63   D(29,5,9,13)          147.7859         estimate D2E/DX2                !
 ! D64   D(29,5,9,35)           -6.2411         estimate D2E/DX2                !
 ! D65   D(1,5,29,27)            8.2711         estimate D2E/DX2                !
 ! D66   D(1,5,29,31)          153.1554         estimate D2E/DX2                !
 ! D67   D(9,5,29,27)         -136.2442         estimate D2E/DX2                !
 ! D68   D(9,5,29,31)            8.6401         estimate D2E/DX2                !
 ! D69   D(2,6,10,49)           -0.5818         estimate D2E/DX2                !
 ! D70   D(2,6,10,53)          147.7763         estimate D2E/DX2                !
 ! D71   D(15,6,10,49)        -148.0774         estimate D2E/DX2                !
 ! D72   D(15,6,10,53)           0.2807         estimate D2E/DX2                !
 ! D73   D(2,6,15,13)           -5.5391         estimate D2E/DX2                !
 ! D74   D(2,6,15,17)         -153.5602         estimate D2E/DX2                !
 ! D75   D(10,6,15,13)         145.4906         estimate D2E/DX2                !
 ! D76   D(10,6,15,17)          -2.5305         estimate D2E/DX2                !
 ! D77   D(3,7,12,14)           -7.5543         estimate D2E/DX2                !
 ! D78   D(3,7,12,36)          145.4698         estimate D2E/DX2                !
 ! D79   D(30,7,12,14)        -147.4318         estimate D2E/DX2                !
 ! D80   D(30,7,12,36)           5.5923         estimate D2E/DX2                !
 ! D81   D(3,7,30,28)           -8.1412         estimate D2E/DX2                !
 ! D82   D(3,7,30,32)         -153.1824         estimate D2E/DX2                !
 ! D83   D(12,7,30,28)         137.2603         estimate D2E/DX2                !
 ! D84   D(12,7,30,32)          -7.7809         estimate D2E/DX2                !
 ! D85   D(4,8,11,50)            1.2674         estimate D2E/DX2                !
 ! D86   D(4,8,11,54)         -147.3804         estimate D2E/DX2                !
 ! D87   D(16,8,11,50)         148.2502         estimate D2E/DX2                !
 ! D88   D(16,8,11,54)          -0.3976         estimate D2E/DX2                !
 ! D89   D(4,8,16,14)            4.2862         estimate D2E/DX2                !
 ! D90   D(4,8,16,18)          152.9213         estimate D2E/DX2                !
 ! D91   D(11,8,16,14)        -146.2143         estimate D2E/DX2                !
 ! D92   D(11,8,16,18)           2.4207         estimate D2E/DX2                !
 ! D93   D(5,9,13,15)           -4.4677         estimate D2E/DX2                !
 ! D94   D(5,9,13,43)         -152.8702         estimate D2E/DX2                !
 ! D95   D(35,9,13,15)         150.2513         estimate D2E/DX2                !
 ! D96   D(35,9,13,43)           1.8489         estimate D2E/DX2                !
 ! D97   D(5,9,35,33)           -5.8497         estimate D2E/DX2                !
 ! D98   D(5,9,35,37)          150.4235         estimate D2E/DX2                !
 ! D99   D(13,9,35,33)        -158.9861         estimate D2E/DX2                !
 ! D100  D(13,9,35,37)          -2.7129         estimate D2E/DX2                !
 ! D101  D(6,10,49,47)          28.8485         estimate D2E/DX2                !
 ! D102  D(6,10,49,51)         145.5822         estimate D2E/DX2                !
 ! D103  D(6,10,49,85)         -93.0583         estimate D2E/DX2                !
 ! D104  D(53,10,49,47)       -121.9121         estimate D2E/DX2                !
 ! D105  D(53,10,49,51)         -5.1784         estimate D2E/DX2                !
 ! D106  D(53,10,49,85)        116.1811         estimate D2E/DX2                !
 ! D107  D(6,10,53,19)           1.539          estimate D2E/DX2                !
 ! D108  D(6,10,53,55)        -148.1703         estimate D2E/DX2                !
 ! D109  D(49,10,53,19)        153.3777         estimate D2E/DX2                !
 ! D110  D(49,10,53,55)          3.6683         estimate D2E/DX2                !
 ! D111  D(8,11,50,48)         -29.2001         estimate D2E/DX2                !
 ! D112  D(8,11,50,52)        -145.6898         estimate D2E/DX2                !
 ! D113  D(8,11,50,86)          92.7521         estimate D2E/DX2                !
 ! D114  D(54,11,50,48)        121.7846         estimate D2E/DX2                !
 ! D115  D(54,11,50,52)          5.2949         estimate D2E/DX2                !
 ! D116  D(54,11,50,86)       -116.2632         estimate D2E/DX2                !
 ! D117  D(8,11,54,20)          -1.3391         estimate D2E/DX2                !
 ! D118  D(8,11,54,56)         148.3551         estimate D2E/DX2                !
 ! D119  D(50,11,54,20)       -153.5048         estimate D2E/DX2                !
 ! D120  D(50,11,54,56)         -3.8106         estimate D2E/DX2                !
 ! D121  D(7,12,14,16)           3.9142         estimate D2E/DX2                !
 ! D122  D(7,12,14,46)         152.227          estimate D2E/DX2                !
 ! D123  D(36,12,14,16)       -149.6239         estimate D2E/DX2                !
 ! D124  D(36,12,14,46)         -1.311          estimate D2E/DX2                !
 ! D125  D(7,12,36,34)           4.3951         estimate D2E/DX2                !
 ! D126  D(7,12,36,38)        -149.0252         estimate D2E/DX2                !
 ! D127  D(14,12,36,34)        156.3334         estimate D2E/DX2                !
 ! D128  D(14,12,36,38)          2.9132         estimate D2E/DX2                !
 ! D129  D(9,13,15,6)         -153.2884         estimate D2E/DX2                !
 ! D130  D(9,13,15,17)          -4.9365         estimate D2E/DX2                !
 ! D131  D(43,13,15,6)          -1.679          estimate D2E/DX2                !
 ! D132  D(43,13,15,17)        146.6729         estimate D2E/DX2                !
 ! D133  D(9,13,43,2)          160.2702         estimate D2E/DX2                !
 ! D134  D(9,13,43,39)           1.929          estimate D2E/DX2                !
 ! D135  D(15,13,43,2)           8.156          estimate D2E/DX2                !
 ! D136  D(15,13,43,39)       -150.1853         estimate D2E/DX2                !
 ! D137  D(12,14,16,8)         153.2952         estimate D2E/DX2                !
 ! D138  D(12,14,16,18)          4.5912         estimate D2E/DX2                !
 ! D139  D(46,14,16,8)           1.5003         estimate D2E/DX2                !
 ! D140  D(46,14,16,18)       -147.2037         estimate D2E/DX2                !
 ! D141  D(12,14,46,4)        -158.6333         estimate D2E/DX2                !
 ! D142  D(12,14,46,42)         -3.2402         estimate D2E/DX2                !
 ! D143  D(16,14,46,4)          -6.6529         estimate D2E/DX2                !
 ! D144  D(16,14,46,42)        148.7402         estimate D2E/DX2                !
 ! D145  D(6,15,17,1)          153.5805         estimate D2E/DX2                !
 ! D146  D(6,15,17,19)           2.8608         estimate D2E/DX2                !
 ! D147  D(13,15,17,1)           9.7925         estimate D2E/DX2                !
 ! D148  D(13,15,17,19)       -140.9272         estimate D2E/DX2                !
 ! D149  D(8,16,18,3)         -153.5234         estimate D2E/DX2                !
 ! D150  D(8,16,18,20)          -2.6142         estimate D2E/DX2                !
 ! D151  D(14,16,18,3)          -9.1255         estimate D2E/DX2                !
 ! D152  D(14,16,18,20)        141.7837         estimate D2E/DX2                !
 ! D153  D(1,17,19,21)          -1.1703         estimate D2E/DX2                !
 ! D154  D(1,17,19,53)        -150.544          estimate D2E/DX2                !
 ! D155  D(15,17,19,21)        148.3627         estimate D2E/DX2                !
 ! D156  D(15,17,19,53)         -1.011          estimate D2E/DX2                !
 ! D157  D(3,18,20,22)           1.1066         estimate D2E/DX2                !
 ! D158  D(3,18,20,54)         150.5482         estimate D2E/DX2                !
 ! D159  D(16,18,20,22)       -148.5792         estimate D2E/DX2                !
 ! D160  D(16,18,20,54)          0.8624         estimate D2E/DX2                !
 ! D161  D(17,19,21,23)         -3.3248         estimate D2E/DX2                !
 ! D162  D(17,19,21,57)       -143.8283         estimate D2E/DX2                !
 ! D163  D(53,19,21,23)        146.8051         estimate D2E/DX2                !
 ! D164  D(53,19,21,57)          6.3016         estimate D2E/DX2                !
 ! D165  D(17,19,53,10)         -1.146          estimate D2E/DX2                !
 ! D166  D(17,19,53,55)        144.5674         estimate D2E/DX2                !
 ! D167  D(21,19,53,10)       -151.5373         estimate D2E/DX2                !
 ! D168  D(21,19,53,55)         -5.8239         estimate D2E/DX2                !
 ! D169  D(18,20,22,24)          3.3115         estimate D2E/DX2                !
 ! D170  D(18,20,22,58)        143.7721         estimate D2E/DX2                !
 ! D171  D(54,20,22,24)       -146.9209         estimate D2E/DX2                !
 ! D172  D(54,20,22,58)         -6.4603         estimate D2E/DX2                !
 ! D173  D(18,20,54,11)          1.0842         estimate D2E/DX2                !
 ! D174  D(18,20,54,56)       -144.5826         estimate D2E/DX2                !
 ! D175  D(22,20,54,11)        151.5637         estimate D2E/DX2                !
 ! D176  D(22,20,54,56)          5.8968         estimate D2E/DX2                !
 ! D177  D(19,21,23,25)          4.7055         estimate D2E/DX2                !
 ! D178  D(19,21,23,61)       -139.9663         estimate D2E/DX2                !
 ! D179  D(57,21,23,25)        150.3702         estimate D2E/DX2                !
 ! D180  D(57,21,23,61)          5.6984         estimate D2E/DX2                !
 ! D181  D(19,21,57,59)        144.4133         estimate D2E/DX2                !
 ! D182  D(19,21,57,83)         -0.3972         estimate D2E/DX2                !
 ! D183  D(23,21,57,59)         -0.4709         estimate D2E/DX2                !
 ! D184  D(23,21,57,83)       -145.2813         estimate D2E/DX2                !
 ! D185  D(20,22,24,26)         -4.6741         estimate D2E/DX2                !
 ! D186  D(20,22,24,62)        139.901          estimate D2E/DX2                !
 ! D187  D(58,22,24,26)       -150.2983         estimate D2E/DX2                !
 ! D188  D(58,22,24,62)         -5.7233         estimate D2E/DX2                !
 ! D189  D(20,22,58,60)       -144.4368         estimate D2E/DX2                !
 ! D190  D(20,22,58,84)          0.5391         estimate D2E/DX2                !
 ! D191  D(24,22,58,60)          0.3803         estimate D2E/DX2                !
 ! D192  D(24,22,58,84)        145.3561         estimate D2E/DX2                !
 ! D193  D(21,23,25,1)          -1.4517         estimate D2E/DX2                !
 ! D194  D(21,23,25,27)       -142.3596         estimate D2E/DX2                !
 ! D195  D(61,23,25,1)         139.9949         estimate D2E/DX2                !
 ! D196  D(61,23,25,27)         -0.913          estimate D2E/DX2                !
 ! D197  D(21,23,61,59)         -8.4725         estimate D2E/DX2                !
 ! D198  D(21,23,61,63)        136.5835         estimate D2E/DX2                !
 ! D199  D(25,23,61,59)       -153.5885         estimate D2E/DX2                !
 ! D200  D(25,23,61,63)         -8.5324         estimate D2E/DX2                !
 ! D201  D(22,24,26,3)           1.484          estimate D2E/DX2                !
 ! D202  D(22,24,26,28)        142.5141         estimate D2E/DX2                !
 ! D203  D(62,24,26,3)        -139.863          estimate D2E/DX2                !
 ! D204  D(62,24,26,28)          1.1671         estimate D2E/DX2                !
 ! D205  D(22,24,62,60)          8.6017         estimate D2E/DX2                !
 ! D206  D(22,24,62,64)       -136.6081         estimate D2E/DX2                !
 ! D207  D(26,24,62,60)        153.657          estimate D2E/DX2                !
 ! D208  D(26,24,62,64)          8.4472         estimate D2E/DX2                !
 ! D209  D(1,25,27,29)           9.2431         estimate D2E/DX2                !
 ! D210  D(1,25,27,65)        -135.1142         estimate D2E/DX2                !
 ! D211  D(23,25,27,29)        153.8969         estimate D2E/DX2                !
 ! D212  D(23,25,27,65)          9.5396         estimate D2E/DX2                !
 ! D213  D(3,26,28,30)          -9.2904         estimate D2E/DX2                !
 ! D214  D(3,26,28,66)         134.952          estimate D2E/DX2                !
 ! D215  D(24,26,28,30)       -154.083          estimate D2E/DX2                !
 ! D216  D(24,26,28,66)         -9.8406         estimate D2E/DX2                !
 ! D217  D(25,27,29,5)         -10.694          estimate D2E/DX2                !
 ! D218  D(25,27,29,31)       -155.41           estimate D2E/DX2                !
 ! D219  D(65,27,29,5)         134.0292         estimate D2E/DX2                !
 ! D220  D(65,27,29,31)        -10.6868         estimate D2E/DX2                !
 ! D221  D(25,27,65,63)         -8.4915         estimate D2E/DX2                !
 ! D222  D(25,27,65,67)        148.9065         estimate D2E/DX2                !
 ! D223  D(29,27,65,63)       -147.1006         estimate D2E/DX2                !
 ! D224  D(29,27,65,67)         10.2975         estimate D2E/DX2                !
 ! D225  D(26,28,30,7)          10.6697         estimate D2E/DX2                !
 ! D226  D(26,28,30,32)        155.7656         estimate D2E/DX2                !
 ! D227  D(66,28,30,7)        -133.9739         estimate D2E/DX2                !
 ! D228  D(66,28,30,32)         11.122          estimate D2E/DX2                !
 ! D229  D(26,28,66,64)          8.66           estimate D2E/DX2                !
 ! D230  D(26,28,66,68)       -148.8869         estimate D2E/DX2                !
 ! D231  D(30,28,66,64)        147.1426         estimate D2E/DX2                !
 ! D232  D(30,28,66,68)        -10.4043         estimate D2E/DX2                !
 ! D233  D(5,29,31,33)           1.321          estimate D2E/DX2                !
 ! D234  D(5,29,31,69)        -141.7672         estimate D2E/DX2                !
 ! D235  D(27,29,31,33)        142.5872         estimate D2E/DX2                !
 ! D236  D(27,29,31,69)         -0.501          estimate D2E/DX2                !
 ! D237  D(7,30,32,34)          -0.2059         estimate D2E/DX2                !
 ! D238  D(7,30,32,70)         141.6994         estimate D2E/DX2                !
 ! D239  D(28,30,32,34)       -141.811          estimate D2E/DX2                !
 ! D240  D(28,30,32,70)          0.0942         estimate D2E/DX2                !
 ! D241  D(29,31,33,35)        -13.8056         estimate D2E/DX2                !
 ! D242  D(29,31,33,73)       -155.917          estimate D2E/DX2                !
 ! D243  D(69,31,33,35)        132.1201         estimate D2E/DX2                !
 ! D244  D(69,31,33,73)         -9.9912         estimate D2E/DX2                !
 ! D245  D(29,31,69,67)         11.8885         estimate D2E/DX2                !
 ! D246  D(29,31,69,71)        157.5222         estimate D2E/DX2                !
 ! D247  D(33,31,69,67)       -134.9715         estimate D2E/DX2                !
 ! D248  D(33,31,69,71)         10.6623         estimate D2E/DX2                !
 ! D249  D(30,32,34,36)         10.5413         estimate D2E/DX2                !
 ! D250  D(30,32,34,74)        155.603          estimate D2E/DX2                !
 ! D251  D(70,32,34,36)       -134.5259         estimate D2E/DX2                !
 ! D252  D(70,32,34,74)         10.5358         estimate D2E/DX2                !
 ! D253  D(30,32,70,68)        -11.8241         estimate D2E/DX2                !
 ! D254  D(30,32,70,72)       -156.9685         estimate D2E/DX2                !
 ! D255  D(34,32,70,68)        133.7766         estimate D2E/DX2                !
 ! D256  D(34,32,70,72)        -11.3679         estimate D2E/DX2                !
 ! D257  D(31,33,35,9)          15.6514         estimate D2E/DX2                !
 ! D258  D(31,33,35,37)       -140.5311         estimate D2E/DX2                !
 ! D259  D(73,33,35,9)         152.0754         estimate D2E/DX2                !
 ! D260  D(73,33,35,37)         -4.1072         estimate D2E/DX2                !
 ! D261  D(31,33,73,71)          5.2004         estimate D2E/DX2                !
 ! D262  D(31,33,73,75)        148.3943         estimate D2E/DX2                !
 ! D263  D(35,33,73,71)       -136.0547         estimate D2E/DX2                !
 ! D264  D(35,33,73,75)          7.1392         estimate D2E/DX2                !
 ! D265  D(32,34,36,12)        -12.3748         estimate D2E/DX2                !
 ! D266  D(32,34,36,38)        141.4052         estimate D2E/DX2                !
 ! D267  D(74,34,36,12)       -151.5851         estimate D2E/DX2                !
 ! D268  D(74,34,36,38)          2.1949         estimate D2E/DX2                !
 ! D269  D(32,34,74,72)         -5.382          estimate D2E/DX2                !
 ! D270  D(32,34,74,76)       -146.8043         estimate D2E/DX2                !
 ! D271  D(36,34,74,72)        138.6621         estimate D2E/DX2                !
 ! D272  D(36,34,74,76)         -2.7603         estimate D2E/DX2                !
 ! D273  D(9,35,37,39)          -0.1023         estimate D2E/DX2                !
 ! D274  D(9,35,37,77)        -168.0084         estimate D2E/DX2                !
 ! D275  D(33,35,37,39)        155.5954         estimate D2E/DX2                !
 ! D276  D(33,35,37,77)        -12.3107         estimate D2E/DX2                !
 ! D277  D(12,36,38,42)         -0.1134         estimate D2E/DX2                !
 ! D278  D(12,36,38,78)        153.7219         estimate D2E/DX2                !
 ! D279  D(34,36,38,42)       -153.3985         estimate D2E/DX2                !
 ! D280  D(34,36,38,78)          0.4367         estimate D2E/DX2                !
 ! D281  D(35,37,39,43)          3.8995         estimate D2E/DX2                !
 ! D282  D(35,37,39,79)       -161.0792         estimate D2E/DX2                !
 ! D283  D(77,37,39,43)        171.9138         estimate D2E/DX2                !
 ! D284  D(77,37,39,79)          6.9351         estimate D2E/DX2                !
 ! D285  D(35,37,77,75)         24.0533         estimate D2E/DX2                !
 ! D286  D(35,37,77,81)        137.3414         estimate D2E/DX2                !
 ! D287  D(35,37,77,90)       -100.0617         estimate D2E/DX2                !
 ! D288  D(39,37,77,75)       -144.057          estimate D2E/DX2                !
 ! D289  D(39,37,77,81)        -30.7688         estimate D2E/DX2                !
 ! D290  D(39,37,77,90)         91.828          estimate D2E/DX2                !
 ! D291  D(36,38,42,46)         -4.3763         estimate D2E/DX2                !
 ! D292  D(36,38,42,80)        148.7014         estimate D2E/DX2                !
 ! D293  D(78,38,42,46)       -158.8253         estimate D2E/DX2                !
 ! D294  D(78,38,42,80)         -5.7476         estimate D2E/DX2                !
 ! D295  D(36,38,78,76)         -2.5236         estimate D2E/DX2                !
 ! D296  D(36,38,78,81)       -147.6279         estimate D2E/DX2                !
 ! D297  D(42,38,78,76)        152.1652         estimate D2E/DX2                !
 ! D298  D(42,38,78,81)          7.0609         estimate D2E/DX2                !
 ! D299  D(37,39,43,2)        -159.4488         estimate D2E/DX2                !
 ! D300  D(37,39,43,13)         -4.8206         estimate D2E/DX2                !
 ! D301  D(79,39,43,2)           6.6182         estimate D2E/DX2                !
 ! D302  D(79,39,43,13)        161.2464         estimate D2E/DX2                !
 ! D303  D(37,39,79,40)        130.965          estimate D2E/DX2                !
 ! D304  D(37,39,79,82)         20.5559         estimate D2E/DX2                !
 ! D305  D(37,39,79,88)       -105.5027         estimate D2E/DX2                !
 ! D306  D(43,39,79,40)        -34.6763         estimate D2E/DX2                !
 ! D307  D(43,39,79,82)       -145.0855         estimate D2E/DX2                !
 ! D308  D(43,39,79,88)         88.856          estimate D2E/DX2                !
 ! D309  D(44,40,41,45)          2.7667         estimate D2E/DX2                !
 ! D310  D(44,40,41,80)       -151.8579         estimate D2E/DX2                !
 ! D311  D(79,40,41,45)        162.8745         estimate D2E/DX2                !
 ! D312  D(79,40,41,80)          8.2499         estimate D2E/DX2                !
 ! D313  D(41,40,44,2)         162.7002         estimate D2E/DX2                !
 ! D314  D(41,40,44,47)         -3.7396         estimate D2E/DX2                !
 ! D315  D(79,40,44,2)           5.959          estimate D2E/DX2                !
 ! D316  D(79,40,44,47)       -160.4808         estimate D2E/DX2                !
 ! D317  D(41,40,79,39)       -128.3885         estimate D2E/DX2                !
 ! D318  D(41,40,79,82)        -11.0186         estimate D2E/DX2                !
 ! D319  D(41,40,79,88)        109.0644         estimate D2E/DX2                !
 ! D320  D(44,40,79,39)         30.2821         estimate D2E/DX2                !
 ! D321  D(44,40,79,82)        147.652          estimate D2E/DX2                !
 ! D322  D(44,40,79,88)        -92.2651         estimate D2E/DX2                !
 ! D323  D(40,41,45,4)        -167.0729         estimate D2E/DX2                !
 ! D324  D(40,41,45,48)          0.0176         estimate D2E/DX2                !
[...]
 Alpha virt. eigenvalues --    1.23391   1.23495   1.23937   1.24267   1.24601
 Alpha virt. eigenvalues --    1.24832   1.25005   1.25145   1.25439   1.25954
 Alpha virt. eigenvalues --    1.26130   1.26644   1.26899   1.27025   1.27417
 Alpha virt. eigenvalues --    1.27635   1.28022   1.28194   1.28675   1.29299
 Alpha virt. eigenvalues --    1.29385   1.29807   1.30280   1.30313   1.30426
 Alpha virt. eigenvalues --    1.30971   1.31311   1.31482   1.31589   1.31916
 Alpha virt. eigenvalues --    1.32205   1.32529   1.32855   1.33063   1.34019
 Alpha virt. eigenvalues --    1.34403   1.35194   1.35314   1.35491   1.35648
 Alpha virt. eigenvalues --    1.36106   1.36445   1.36679   1.37086   1.37342
 Alpha virt. eigenvalues --    1.38279   1.39199   1.39866   1.40286   1.40731
 Alpha virt. eigenvalues --    1.40988   1.41659   1.41696   1.42501   1.43328
 Alpha virt. eigenvalues --    1.44433   1.44758   1.44840   1.45231   1.45416
 Alpha virt. eigenvalues --    1.46470   1.46938   1.47122   1.47853   1.48126
 Alpha virt. eigenvalues --    1.48519   1.49526   1.50066   1.50492   1.50769
 Alpha virt. eigenvalues --    1.51497   1.51744   1.52136   1.52552   1.53316
 Alpha virt. eigenvalues --    1.53756   1.54120   1.54245   1.54479   1.54997
 Alpha virt. eigenvalues --    1.55196   1.56058   1.56466   1.56711   1.57159
 Alpha virt. eigenvalues --    1.57961   1.58707   1.60112   1.60497   1.61191
 Alpha virt. eigenvalues --    1.61644   1.61976   1.62317   1.62366   1.63489
 Alpha virt. eigenvalues --    1.63736   1.64052   1.64111   1.64354   1.64603
 Alpha virt. eigenvalues --    1.64981   1.65199   1.65486   1.65647   1.65769
 Alpha virt. eigenvalues --    1.66526   1.66613   1.66730   1.66825   1.67268
 Alpha virt. eigenvalues --    1.67410   1.67501   1.67789   1.68165   1.68362
 Alpha virt. eigenvalues --    1.68649   1.69231   1.69369   1.69453   1.69826
 Alpha virt. eigenvalues --    1.70049   1.70293   1.70384   1.70792   1.71044
 Alpha virt. eigenvalues --    1.71326   1.71382   1.71747   1.71998   1.72181
 Alpha virt. eigenvalues --    1.72465   1.72911   1.73009   1.73154   1.73455
 Alpha virt. eigenvalues --    1.73667   1.73997   1.74120   1.74646   1.74801
 Alpha virt. eigenvalues --    1.74926   1.75019   1.75549   1.75694   1.75802
 Alpha virt. eigenvalues --    1.76086   1.76219   1.76431   1.76645   1.76860
 Alpha virt. eigenvalues --    1.77024   1.77452   1.77473   1.77690   1.77885
 Alpha virt. eigenvalues --    1.78159   1.78399   1.78654   1.78751   1.79050
 Alpha virt. eigenvalues --    1.79271   1.79653   1.79940   1.80233   1.80472
 Alpha virt. eigenvalues --    1.81089   1.81357   1.81499   1.81829   1.82294
 Alpha virt. eigenvalues --    1.82550   1.82712   1.83544   1.84164   1.84329
 Alpha virt. eigenvalues --    1.85107   1.85534   1.85903   1.86884   1.87081
 Alpha virt. eigenvalues --    1.87131   1.87957   1.88300   1.88577   1.89034
 Alpha virt. eigenvalues --    1.89346   1.89647   1.89778   1.90367   1.90832
 Alpha virt. eigenvalues --    1.91392   1.91611   1.91805   1.92734   1.93116
 Alpha virt. eigenvalues --    1.93215   1.93686   1.93890   1.94246   1.94409
 Alpha virt. eigenvalues --    1.94672   1.94899   1.95531   1.95719   1.96051
 Alpha virt. eigenvalues --    1.96616   1.96734   1.97139   1.97310   1.97676
 Alpha virt. eigenvalues --    1.98169   1.98257   1.98824   1.98995   1.99147
 Alpha virt. eigenvalues --    1.99337   1.99559   1.99800   2.00042   2.00328
 Alpha virt. eigenvalues --    2.00536   2.00744   2.00981   2.01198   2.01579
 Alpha virt. eigenvalues --    2.02057   2.02184   2.02404   2.02500   2.02865
 Alpha virt. eigenvalues --    2.02906   2.03368   2.03572   2.03767   2.04282
 Alpha virt. eigenvalues --    2.04504   2.04643   2.04759   2.04939   2.05531
 Alpha virt. eigenvalues --    2.05723   2.06205   2.06537   2.06810   2.07420
 Alpha virt. eigenvalues --    2.07808   2.08205   2.08906   2.09072   2.09538
 Alpha virt. eigenvalues --    2.10513   2.10606   2.11084   2.11419   2.11719
 Alpha virt. eigenvalues --    2.12199   2.12424   2.12858   2.13370   2.13528
 Alpha virt. eigenvalues --    2.13808   2.14321   2.14702   2.15198   2.15528
 Alpha virt. eigenvalues --    2.16017   2.17512   2.17878   2.18127   2.18700
 Alpha virt. eigenvalues --    2.18858   2.18934   2.19508   2.19998   2.20414
 Alpha virt. eigenvalues --    2.20785   2.21016   2.21397   2.21703   2.22043
 Alpha virt. eigenvalues --    2.22576   2.23029   2.23540   2.23698   2.23855
 Alpha virt. eigenvalues --    2.24127   2.24672   2.24888   2.25212   2.25958
 Alpha virt. eigenvalues --    2.26361   2.26942   2.27428   2.27733   2.27936
 Alpha virt. eigenvalues --    2.28336   2.28521   2.28709   2.28906   2.29338
 Alpha virt. eigenvalues --    2.30172   2.30648   2.31005   2.31206   2.31977
 Alpha virt. eigenvalues --    2.32414   2.32488   2.33004   2.33731   2.33933
 Alpha virt. eigenvalues --    2.34725   2.35852   2.36391   2.36891   2.37551
 Alpha virt. eigenvalues --    2.37964   2.38600   2.39551   2.39803   2.40362
 Alpha virt. eigenvalues --    2.40813   2.41594   2.41662   2.41968   2.42207
 Alpha virt. eigenvalues --    2.42529   2.42841   2.43663   2.44349   2.44722
 Alpha virt. eigenvalues --    2.45265   2.46216   2.46935   2.46967   2.47308
 Alpha virt. eigenvalues --    2.47681   2.48160   2.49052   2.49368   2.49665
 Alpha virt. eigenvalues --    2.50981   2.51446   2.52100   2.52516   2.52802
 Alpha virt. eigenvalues --    2.52944   2.53331   2.53579   2.54442   2.54571
 Alpha virt. eigenvalues --    2.54861   2.55003   2.55761   2.55992   2.56503
 Alpha virt. eigenvalues --    2.56731   2.57135   2.57269   2.57381   2.57690
 Alpha virt. eigenvalues --    2.57748   2.57936   2.58542   2.59075   2.59355
 Alpha virt. eigenvalues --    2.59602   2.59899   2.60024   2.60368   2.60820
 Alpha virt. eigenvalues --    2.61047   2.61798   2.62057   2.62212   2.62638
 Alpha virt. eigenvalues --    2.63465   2.63539   2.63949   2.64101   2.64322
 Alpha virt. eigenvalues --    2.65025   2.65142   2.65361   2.65485   2.65884
 Alpha virt. eigenvalues --    2.66144   2.66657   2.66795   2.67524   2.67732
 Alpha virt. eigenvalues --    2.68193   2.68435   2.68697   2.69422   2.69645
 Alpha virt. eigenvalues --    2.69953   2.70363   2.70559   2.70930   2.71458
 Alpha virt. eigenvalues --    2.71774   2.72517   2.72826   2.73063   2.73409
 Alpha virt. eigenvalues --    2.74129   2.74504   2.74810   2.75164   2.75618
 Alpha virt. eigenvalues --    2.75975   2.76616   2.77053   2.77649   2.77936
 Alpha virt. eigenvalues --    2.78610   2.78967   2.79187   2.79887   2.80238
 Alpha virt. eigenvalues --    2.80458   2.81500   2.81603   2.82169   2.82453
 Alpha virt. eigenvalues --    2.82930   2.83033   2.83353   2.83680   2.83912
 Alpha virt. eigenvalues --    2.85036   2.86265   2.86435   2.86815   2.87473
 Alpha virt. eigenvalues --    2.87527   2.88122   2.88650   2.89038   2.89437
 Alpha virt. eigenvalues --    2.89629   2.90259   2.90783   2.90945   2.91345
 Alpha virt. eigenvalues --    2.91912   2.92397   2.92863   2.92976   2.93525
 Alpha virt. eigenvalues --    2.94046   2.94413   2.94691   2.95328   2.95902
 Alpha virt. eigenvalues --    2.96229   2.96541   2.97508   2.98008   2.99565
 Alpha virt. eigenvalues --    3.00254   3.00745   3.02888   3.03280   3.03952
 Alpha virt. eigenvalues --    3.04562   3.04971   3.07628   3.09448   3.10069
 Alpha virt. eigenvalues --    3.12309   3.13737   3.15657   3.16431   3.18032
 Alpha virt. eigenvalues --    3.18558   3.20161   3.20531   3.22274   3.23054
 Alpha virt. eigenvalues --    3.24139   3.26573   3.27774   3.29204   3.31202
 Alpha virt. eigenvalues --    3.33153   3.35041   3.36020   3.37288   3.38397
 Alpha virt. eigenvalues --    3.40841   3.42945   3.44490   3.45936   3.48683
 Alpha virt. eigenvalues --    3.50032   3.51482   3.52909   3.54177   3.60187
 Alpha virt. eigenvalues --    3.65130   3.99630   4.01317   4.02121   4.02527
 Alpha virt. eigenvalues --    4.03216   4.03723   4.04703   4.04834   4.05208
 Alpha virt. eigenvalues --    4.05739   4.06428   4.06882   4.08140   4.08261
 Alpha virt. eigenvalues --    4.08495   4.09041   4.09893   4.10642   4.10949
 Alpha virt. eigenvalues --    4.11419   4.12027   4.13527   4.14817   4.16559
 Alpha virt. eigenvalues --    4.16968   4.17179   4.17687   4.18545   4.20124
 Alpha virt. eigenvalues --    4.20548   4.20880   4.21992   4.22243   4.23609
 Alpha virt. eigenvalues --    4.24702   4.26027   4.26452   4.26999   4.27357
 Alpha virt. eigenvalues --    4.27662   4.28377   4.28892   4.29632   4.30644
 Alpha virt. eigenvalues --    4.31519   4.32824   4.34319   4.34824   4.36905
 Alpha virt. eigenvalues --    4.37703   4.38908   4.40423   4.41799   4.42261
 Alpha virt. eigenvalues --    4.44369   4.44959   4.47912   4.48209   4.48754
 Alpha virt. eigenvalues --    4.49127   4.50960   4.53744   4.54372   4.57467
 Alpha virt. eigenvalues --    4.58578   4.58871   4.59472   4.60048   4.63679
 Alpha virt. eigenvalues --    4.64955   4.67388   4.67818   4.68576   4.75278
 Alpha virt. eigenvalues --    4.78318   4.79407   4.80910   4.82780   4.86662
 Alpha virt. eigenvalues --    4.87940   4.91739   4.94239   4.98171   5.02061
 Alpha virt. eigenvalues --    5.04377   5.06533   5.12679   5.16547   5.23638
 Alpha virt. eigenvalues --    5.28434
          Condensed to atoms (all electrons):
 Mulliken charges:
               1
     1  C   -0.018122
     2  C   -0.382270
     3  C   -0.015166
     4  C   -0.367830
     5  C   -0.020982
     6  C    0.087688
     7  C   -0.018251
     8  C    0.090388
     9  C    0.049063
    10  C    0.089613
    11  C    0.091203
    12  C    0.045094
    13  C    0.005344
    14  C    0.016567
    15  C    0.006381
    16  C    0.002689
    17  C    0.046993
    18  C    0.050106
    19  C    0.049638
    20  C    0.046747
    21  C   -0.019375
    22  C   -0.019109
    23  C   -0.011716
    24  C   -0.010950
    25  C   -0.012514
    26  C   -0.011771
    27  C   -0.021431
    28  C   -0.022590
    29  C   -0.021215
    30  C   -0.017208
    31  C   -0.003657
    32  C   -0.010236
    33  C   -0.043782
    34  C   -0.013494
    35  C    0.063172
    36  C    0.043355
    37  C    0.092103
    38  C    0.032098
    39  C    0.151178
    40  C    0.080863
    41  C    0.042005
    42  C    0.063670
    43  C    0.075582
    44  C    0.154926
    45  C    0.124831
    46  C    0.047870
    47  C    0.117054
    48  C    0.127911
    49  C   -0.376256
    50  C   -0.377561
    51  C    0.088660
    52  C    0.087271
    53  C    0.005493
    54  C    0.007276
    55  C    0.008265
    56  C    0.006672
    57  C   -0.019538
    58  C   -0.018668
    59  C   -0.010426
    60  C   -0.012681
    61  C   -0.022332
    62  C   -0.022218
    63  C    0.036565
    64  C    0.041416
    65  C    0.041690
    66  C    0.043045
    67  C    0.038566
    68  C    0.040189
    69  C   -0.017490
    70  C   -0.019455
    71  C   -0.004653
    72  C   -0.010613
    73  C    0.014477
    74  C   -0.015669
    75  C    0.071157
    76  C    0.029719
    77  C   -0.361435
    78  C    0.004887
    79  C   -0.382353
    80  C   -0.010812
    81  C    0.094201
    82  C    0.093308
    83  C    0.046464
    84  C    0.050143
    85  Cl   0.004440
    86  Cl   0.007343
    87  Cl   0.002749
    88  Cl   0.011594
    89  Cl  -0.014206
    90  Cl  -0.011682
 Sum of Mulliken charges =  -0.00000
 Mulliken charges with hydrogens summed into heavy atoms:
               1
     1  C   -0.018122
     2  C   -0.382270
     3  C   -0.015166
     4  C   -0.367830
     5  C   -0.020982
     6  C    0.087688
     7  C   -0.018251
     8  C    0.090388
     9  C    0.049063
    10  C    0.089613
    11  C    0.091203
    12  C    0.045094
    13  C    0.005344
    14  C    0.016567
    15  C    0.006381
    16  C    0.002689
    17  C    0.046993
    18  C    0.050106
    19  C    0.049638
    20  C    0.046747
    21  C   -0.019375
    22  C   -0.019109
    23  C   -0.011716
    24  C   -0.010950
    25  C   -0.012514
    26  C   -0.011771
    27  C   -0.021431
    28  C   -0.022590
    29  C   -0.021215
    30  C   -0.017208
    31  C   -0.003657
    32  C   -0.010236
    33  C   -0.043782
    34  C   -0.013494
    35  C    0.063172
    36  C    0.043355
    37  C    0.092103
    38  C    0.032098
    39  C    0.151178
    40  C    0.080863
    41  C    0.042005
    42  C    0.063670
    43  C    0.075582
    44  C    0.154926
    45  C    0.124831
    46  C    0.047870
    47  C    0.117054
    48  C    0.127911
    49  C   -0.376256
    50  C   -0.377561
    51  C    0.088660
    52  C    0.087271
    53  C    0.005493
    54  C    0.007276
    55  C    0.008265
    56  C    0.006672
    57  C   -0.019538
    58  C   -0.018668
    59  C   -0.010426
    60  C   -0.012681
    61  C   -0.022332
    62  C   -0.022218
    63  C    0.036565
    64  C    0.041416
    65  C    0.041690
    66  C    0.043045
    67  C    0.038566
    68  C    0.040189
    69  C   -0.017490
    70  C   -0.019455
    71  C   -0.004653
    72  C   -0.010613
    73  C    0.014477
    74  C   -0.015669
    75  C    0.071157
    76  C    0.029719
    77  C   -0.361435
    78  C    0.004887
    79  C   -0.382353
    80  C   -0.010812
    81  C    0.094201
    82  C    0.093308
    83  C    0.046464
    84  C    0.050143
    85  Cl   0.004440
    86  Cl   0.007343
    87  Cl   0.002749
    88  Cl   0.011594
    89  Cl  -0.014206
    90  Cl  -0.011682
 Electronic spatial extent (au):  <R**2>=          46353.0501
 Charge=              0.0000 electrons
 Dipole moment (field-independent basis, Debye):
    X=             -3.7524    Y=             -5.7980    Z=             -0.4464  Tot=              6.9207
 Quadrupole moment (field-independent basis, Debye-Ang):
   XX=           -552.3474   YY=           -548.8043   ZZ=           -530.5938
   XY=             -3.5381   XZ=             -5.1775   YZ=             -1.0512
 Traceless Quadrupole moment (field-independent basis, Debye-Ang):
   XX=             -8.4323   YY=             -4.8891   ZZ=             13.3214
   XY=             -3.5381   XZ=             -5.1775   YZ=             -1.0512
 Octapole moment (field-independent basis, Debye-Ang**2):
  XXX=             -9.0244  YYY=            -14.8439  ZZZ=             -0.2940  XYY=             49.9754
  XXY=            -12.1560  XXZ=             -4.5855  XZZ=             -8.4106  YZZ=             21.4714
  YYZ=             15.8647  XYZ=             14.6142
 Hexadecapole moment (field-independent basis, Debye-Ang**3):
 XXXX=         -25187.0659 YYYY=         -23397.7087 ZZZZ=         -19131.6720 XXXY=             73.3640
 XXXZ=              2.1164 YYYX=             98.7157 YYYZ=            -44.7768 ZZZX=            -99.7800
 ZZZY=            -41.9343 XXYY=          -8059.1584 XXZZ=          -7412.4420 YYZZ=          -7017.4344
 XXYZ=             26.6324 YYXZ=             72.9338 ZZXY=            -44.5959
 N-N= 1.882486317248D+04 E-N=-5.161357934540D+04  KE= 5.923793232800D+03
 No NMR shielding tensors so no spin-rotation constants.
 Leave Link  601 at Wed Jun 29 15:49:14 2022, MaxMem=  1342177280 cpu:              24.1 elap:               1.2
 (Enter /home/mkliu/g16/l9999.exe)
 1\1\GINC-NODE03\FOpt\RB3LYP\6-31G(d,p)\C84Cl6\MKLIU\29-Jun-2022\0\\#P 
 opt b3lyp/6-31G(d, p) empiricaldispersion=GD3\\force\\0,1\C,8.24824045
 8,18.868002657,10.5433015767\C,12.4784123832,19.9976482695,8.927300420
 9\C,8.2531893136,26.883099386,10.5417486703\C,12.4679587569,25.7573235
 581,8.935998902\C,7.9342050485,18.9189377393,9.1587392001\C,11.8793539
 087,19.5578528448,10.2428895176\C,7.9352377598,26.8489460207,9.1545586
 816\C,11.881870191,26.2122000378,10.2503496653\C,8.9353113157,19.12905
 44744,8.1657067318\C,12.1463567184,20.1932257644,11.4137588613\C,12.14
 28132877,25.5634224791,11.4192164957\C,8.930044972,26.6597704392,8.152
 850557\C,10.2721801628,19.0903010871,8.6310483365\C,10.2800702215,26.6
 886208344,8.6245453308\C,10.5996531058,18.95466083,10.0296621454\C,10.
 6044180391,26.8084132555,10.0356422331\C,9.594810054,18.9482830047,11.
 0198067207\C,9.5980244946,26.8083787861,11.0237808345\C,9.8673048024,1
 9.6379537125,12.2730520553\C,9.8681328892,26.1183041971,12.2775704832\
 C,8.7853442126,20.2380221776,12.9802262774\C,8.7858833057,25.519616215
 3,12.9837583389\C,7.4396800491,20.2249779931,12.412998961\C,7.44644320
 24,25.5304509872,12.4129318257\C,7.1838100584,19.5505212376,11.2472746
 001\C,7.1869709696,26.207305475,11.2488374081\C,6.2572836554,20.105995
 1273,10.2943079101\C,6.2576299979,25.6563176817,10.2994841057\C,6.6549
 762479,19.5767574208,9.0225106151\C,6.656480865,26.1866720374,9.025501
 238\C,6.3548917399,20.2489716504,7.8684244494\C,6.341288261,25.5186663
 267,7.8772459133\C,7.2711427734,20.2934186706,6.7552742917\C,7.2759227
 883,25.4606091755,6.7705707905\C,8.6403466577,19.8845880121,6.96085290
 52\C,8.6279939118,25.9173227193,6.9467558964\C,9.6985095265,20.6103733
 015,6.3247299335\C,9.6881665249,25.1715376939,6.2935238108\C,11.010143
 2819,20.5925115076,6.8640484944\C,12.7094880743,22.1728423255,7.789651
 0539\C,12.670421366,23.5730567896,7.8053292218\C,11.0288464821,25.1863
 023165,6.8487520631\C,11.2983182832,19.7991545513,7.9749251006\C,12.87
 57839402,21.4609877272,8.9695177997\C,12.8523897942,24.2936051547,8.98
 54909978\C,11.3028244307,25.9939773107,7.9782640211\C,13.0853374488,22
 .1698892348,10.1808557399\C,13.0800287343,23.5858407229,10.1855303186\
 C,13.0707067602,21.3941518226,11.5019323614\C,13.07107628,24.363166095
 1,11.5078425759\C,12.402757111,22.2010760268,12.5962073501\C,12.407648
 5528,23.5566016603,12.6033632031\C,11.1379385235,20.2544806177,12.4355
 123397\C,11.1387450952,25.5026584063,12.4409840339\C,11.2906286975,21.
 479658468,13.1542340953\C,11.2915440775,24.2735641944,13.1570455562\C,
 8.9356718387,21.4537784157,13.6865717092\C,8.9358565867,24.2970490074,
 13.6818958839\C,7.6889005216,22.1930748651,13.5390043916\C,7.688065904
 1,23.5601478402,13.5427703544\C,6.7985107278,21.4798483124,12.66297621
 94\C,6.8027860725,24.2729973447,12.6609684266\C,6.0362179598,22.150402
 8428,11.6551744936\C,6.0403491574,23.6058894174,11.6556302215\C,5.7429
 292076,21.4249704954,10.4234890446\C,5.7454298693,24.3373906959,10.422
 6747314\C,5.4200132954,22.151518727,9.1913803685\C,5.4156003941,23.613
 4335568,9.1934697533\C,5.6201933704,21.4908142476,7.9482300604\C,5.606
 4245972,24.2794381664,7.9509530674\C,5.9257304346,22.198266627,6.73531
 82226\C,5.9115955852,23.5741343973,6.7352920868\C,6.9575558172,21.4641
 794564,6.0087224753\C,6.9517214543,24.3007662852,6.0270870495\C,7.9482
 2962,22.1631587349,5.3324949198\C,7.9699861426,23.5737729706,5.3944297
 651\C,9.3625373133,21.6287717979,5.2307273147\C,9.3373984076,24.033118
 2847,5.5010862695\C,12.0516125062,21.6425474444,6.5142587042\C,11.8448
 531759,24.0359807588,6.6911157972\C,10.1840643311,22.9084065982,5.3780
 932264\C,11.4214982974,22.9068771675,5.9704473697\C,10.1814663169,22.1
 482685917,13.7346566266\C,10.1824054318,23.6035840656,13.7358066391\Cl
 ,14.7932940846,20.9021791058,11.954835385\Cl,14.7942347949,24.86123729
 22,11.9416734075\Cl,13.9280831498,18.9456035065,8.4600770425\Cl,13.301
 3513457,20.9582523924,5.3415624138\Cl,13.939851039,26.7843975347,8.436
 1804019\Cl,9.6673867968,20.8497998919,3.566742083\\Version=ES64L-G16Re
 vA.03\State=1-A\HF=-5962.2022754\RMSD=5.666e-09\RMSF=2.167e-05\Dipole=
 -2.4171585,0.7656125,0.9924113\Quadrupole=-8.6266577,7.1878725,1.43878
 51,-0.4164492,0.1250043,-5.7779983\PG=C01 [X(C84Cl6)]\\@


 WAR ES EIN GOTT DER DIESE ZEICHEN SCHRIEB?
          - LUDWIG BOLTZMANN, QUOTING GOETHE, ABOUT MAXWELL'S EQUATIONS.
 Job cpu time:       1 days 15 hours  7 minutes 27.6 seconds.
 Elapsed time:       0 days  1 hours 37 minutes 56.9 seconds.
 File lengths (MBytes):  RWF=   1161 Int=      0 D2E=      0 Chk=    146 Scr=      1
 Normal termination of Gaussian 16 at Wed Jun 29 15:49:16 2022.
