 Entering Gaussian System, Link 0=g16
 Input=8_addons_C84_14_Cl22_rank_7.gjf
 Output=8_addons_C84_14_Cl22_rank_7.log
 Initial command:
 /home/mkliu/g16/l1.exe "/data/scratch/Gau-35177.inp" -scrdir="/data/scratch/"
 Entering Link 1 = /home/mkliu/g16/l1.exe PID=     35178.
  
 Copyright (c) 1988,1990,1992,1993,1995,1998,2003,2009,2016,
            Gaussian, Inc.  All Rights Reserved.
  
 This is part of the Gaussian(R) 16 program.  It is based on
 the Gaussian(R) 09 system (copyright 2009, Gaussian, Inc.),
 the Gaussian(R) 03 system (copyright 2003, Gaussian, Inc.),
 the Gaussian(R) 98 system (copyright 1998, Gaussian, Inc.),
 the Gaussian(R) 94 system (copyright 1995, Gaussian, Inc.),
 the Gaussian 92(TM) system (copyright 1992, Gaussian, Inc.),
 the Gaussian 90(TM) system (copyright 1990, Gaussian, Inc.),
 the Gaussian 88(TM) system (copyright 1988, Gaussian, Inc.),
 the Gaussian 86(TM) system (copyright 1986, Carnegie Mellon
 University), and the Gaussian 82(TM) system (copyright 1983,
 Carnegie Mellon University). Gaussian is a federally registered
 trademark of Gaussian, Inc.
  
 This software contains proprietary and confidential information,
 including trade secrets, belonging to Gaussian, Inc.
  
 This software is provided under written license and may be
 used, copied, transmitted, or stored only in accord with that
 written license.
  
 The following legend is applicable only to US Government
 contracts under FAR:
  
                    RESTRICTED RIGHTS LEGEND
  
 Use, reproduction and disclosure by the US Government is
 subject to restrictions as set forth in subparagraphs (a)
 and (c) of the Commercial Computer Software - Restricted
 Rights clause in FAR 52.227-19.
  
 Gaussian, Inc.
 340 Quinnipiac St., Bldg. 40, Wallingford CT 06492
  
  
 ---------------------------------------------------------------
 Warning -- This program may not be used in any manner that
 competes with the business of Gaussian, Inc. or will provide
 assistance to any competitor of Gaussian, Inc.  The licensee
 of this program is prohibited from giving any competitor of
 Gaussian, Inc. access to this program.  By using this program,
 the user acknowledges that Gaussian, Inc. is engaged in the
 business of creating and licensing software in the field of
 computational chemistry and represents and warrants to the
 licensee that it is not a competitor of Gaussian, Inc. and that
 it will not use this program in any manner prohibited above.
 ---------------------------------------------------------------
  

 Cite this work as:
 Gaussian 16, Revision A.03,
 M. J. Frisch, G. W. Trucks, H. B. Schlegel, G. E. Scuseria, 
 M. A. Robb, J. R. Cheeseman, G. Scalmani, V. Barone, 
 G. A. Petersson, H. Nakatsuji, X. Li, M. Caricato, A. V. Marenich, 
 J. Bloino, B. G. Janesko, R. Gomperts, B. Mennucci, H. P. Hratchian, 
 J. V. Ortiz, A. F. Izmaylov, J. L. Sonnenberg, D. Williams-Young, 
 F. Ding, F. Lipparini, F. Egidi, J. Goings, B. Peng, A. Petrone, 
 T. Henderson, D. Ranasinghe, V. G. Zakrzewski, J. Gao, N. Rega, 
 G. Zheng, W. Liang, M. Hada, M. Ehara, K. Toyota, R. Fukuda, 
 J. Hasegawa, M. Ishida, T. Nakajima, Y. Honda, O. Kitao, H. Nakai, 
 T. Vreven, K. Throssell, J. A. Montgomery, Jr., J. E. Peralta, 
 F. Ogliaro, M. J. Bearpark, J. J. Heyd, E. N. Brothers, K. N. Kudin, 
 V. N. Staroverov, T. A. Keith, R. Kobayashi, J. Normand, 
 K. Raghavachari, A. P. Rendell, J. C. Burant, S. S. Iyengar, 
 J. Tomasi, M. Cossi, J. M. Millam, M. Klene, C. Adamo, R. Cammi, 
 J. W. Ochterski, R. L. Martin, K. Morokuma, O. Farkas, 
 J. B. Foresman, and D. J. Fox, Gaussian, Inc., Wallingford CT, 2016.
 
 ******************************************
 Gaussian 16:  ES64L-G16RevA.03 25-Dec-2016
                27-Jun-2022 
 ******************************************
 %mem=10GB
 %chk=8_addons_C84_14_Cl22_rank_7.chk
 %nprocshared=24
 Will use up to   24 processors via shared memory.
 ------------------------------------------------
 #P opt b3lyp/6-31G(d, p) empiricaldispersion=GD3
 ------------------------------------------------
 1/18=20,19=15,26=3,38=1/1,3;
 2/9=110,12=2,17=6,18=5,40=1/2;
 3/5=1,6=6,7=101,11=2,25=1,30=1,71=1,74=-5,124=31/1,2,3;
 4//1;
 5/5=2,38=5/2;
 6/7=2,8=2,9=2,10=2,28=1/1;
 7//1,2,3,16;
 1/18=20,19=15,26=3/3(2);
 2/9=110/2;
 99//99;
 2/9=110/2;
 3/5=1,6=6,7=101,11=2,25=1,30=1,71=1,74=-5,124=31/1,2,3;
 4/5=5,16=3,69=1/1;
 5/5=2,38=5/2;
 7//1,2,3,16;
 1/18=20,19=15,26=3/3(-5);
 2/9=110/2;
 6/7=2,8=2,9=2,10=2,19=2,28=1/1;
 99/9=1/99;
 Leave Link    1 at Mon Jun 27 23:02:19 2022, MaxMem=  1342177280 cpu:               0.7 elap:               0.1
 (Enter /home/mkliu/g16/l101.exe)
 -----
 force
 -----
 Symbolic Z-matrix:
 Charge =  0 Multiplicity = 1
 C                     8.28652   18.91566   10.53682 
 C                     12.30087   20.17773   8.96474 
 C                     8.2946    26.82515   10.52593 
 C                     12.31462   25.57474   8.96113 
 C                     7.97666   18.96724   9.14891 
 C                     11.87465   19.5923   10.21043 
 C                     7.97096   26.78211   9.14243 
 C                     11.88064   26.13662   10.17295 
 C                     8.97647   19.12529   8.16024 
 C                     12.15174   20.21138   11.39269 
 C                     12.15856   25.4906   11.37369 
 C                     8.96613   26.6232   8.14796 
 C                     10.30267   19.05746   8.62934 
 C                     10.29258   26.68773   8.60802 
 C                     10.61419   18.93706   10.00483 
 C                     10.61729   26.79507   9.97984 
 C                     9.61821   18.95826   11.0031 
 C                     9.62634   26.77366   10.985 
 C                     9.88943   19.64907   12.23199 
 C                     9.90179   26.09083   12.2261 
 C                     8.8113    20.26264   12.90576 
 C                     8.8182    25.4857   12.90197 
 C                     7.48111   20.19664   12.40708 
 C                     7.48701   25.55214   12.39865 
 C                     7.22439   19.53024   11.25416 
 C                     7.22752   26.21761   11.24943 
 C                     6.12032   19.95656   10.33193 
 C                     6.11947   25.79385   10.33083 
 C                     6.69413   19.55819   9.00591 
 C                     6.68809   26.193    9.00301 
 C                     6.39319   20.22463   7.86992 
 C                     6.38265   25.52748   7.86622 
 C                     7.35607   20.3282   6.82538 
 C                     7.34254   25.42182   6.81993 
 C                     8.68084   19.87191   6.96712 
 C                     8.67291   25.8726   6.96302 
 C                     9.73844   20.59821   6.29021 
 C                     9.7314    25.14723   6.29069 
 C                     11.06106   20.60201   6.8544 
 C                     12.72896   22.20037   7.76991 
 C                     12.7936   23.58893   7.74524 
 C                     11.05613   25.17222   6.84815 
 C                     11.34445   19.81572   7.99346 
 C                     12.91268   21.45951   8.96996 
 C                     12.944    24.30963   8.93333 
 C                     11.32716   25.93493   7.95397 
 C                     13.17086   22.1621   10.16783 
 C                     13.16697   23.57976   10.1742 
 C                     13.07687   21.39611   11.47631 
 C                     12.8641   24.27021   11.38131 
 C                     12.40907   22.18607   12.56394 
 C                     12.39538   23.54716   12.5396 
 C                     11.15658   20.25955   12.40708 
 C                     11.16347   25.48691   12.41965 
 C                     11.31034   21.47873   13.12079 
 C                     11.3093   24.27618   13.13897 
 C                     8.96407   21.48975   13.60839 
 C                     8.96358   24.26508   13.61418 
 C                     7.73174   22.19815   13.54173 
 C                     7.73425   23.55369   13.53895 
 C                     6.69079   21.41167   12.79941 
 C                     6.69405   24.34051   12.79603 
 C                     6.25652   22.17424   11.54886 
 C                     6.25684   23.57648   11.54788 
 C                     5.96859   21.47579   10.36885 
 C                     5.96756   24.27444   10.36761 
 C                     5.66334   22.17423   9.18982 
 C                     5.66187   23.57565   9.18916 
 C                     5.45839   21.40247   7.88541 
 C                     5.45171   24.34617   7.88438 
 C                     5.96965   22.19549   6.71852 
 C                     5.96575   23.55398   6.71722 
 C                     7.03091   21.49222   6.07144 
 C                     7.02171   24.26152   6.06814 
 C                     8.03599   22.16325   5.40007 
 C                     8.03454   23.59414   5.39276 
 C                     9.38423   21.70672   5.4977 
 C                     9.37649   24.05564   5.47393 
 C                     11.88013   21.73893   6.70263 
 C                     12.08635   24.11913   6.51506 
 C                     10.21536   22.87581   5.41282 
 C                     11.45802   22.87019   5.98014 
 C                     10.20305   22.15939   13.6865 
 C                     10.20566   23.59496   13.69441 
 Cl                    4.53498   19.19995   10.70932 
 Cl                    3.71914   20.96365   7.74842 
 Cl                    3.71065   24.77752   7.75121 
 Cl                    4.53496   26.55007   10.71319 
 Cl                    5.22764   21.0435   13.7799 
 Cl                    5.23587   24.71464   13.78028 
 Cl                    14.75105   20.87371   11.97387 
 Cl                    13.26786   24.8353   5.33656 
 
 ITRead=  0  0  0  0  0  0  0  0  0  0  0  0  0  0  0  0  0  0  0  0
 ITRead=  0  0  0  0  0  0  0  0  0  0  0  0  0  0  0  0  0  0  0  0
 ITRead=  0  0  0  0  0  0  0  0  0  0  0  0  0  0  0  0  0  0  0  0
 ITRead=  0  0  0  0  0  0  0  0  0  0  0  0  0  0  0  0  0  0  0  0
 ITRead=  0  0  0  0  0  0  0  0  0  0  0  0
 MicOpt= -1 -1 -1 -1 -1 -1 -1 -1 -1 -1 -1 -1 -1 -1 -1 -1 -1 -1 -1 -1
 MicOpt= -1 -1 -1 -1 -1 -1 -1 -1 -1 -1 -1 -1 -1 -1 -1 -1 -1 -1 -1 -1
 MicOpt= -1 -1 -1 -1 -1 -1 -1 -1 -1 -1 -1 -1 -1 -1 -1 -1 -1 -1 -1 -1
 MicOpt= -1 -1 -1 -1 -1 -1 -1 -1 -1 -1 -1 -1 -1 -1 -1 -1 -1 -1 -1 -1
 MicOpt= -1 -1 -1 -1 -1 -1 -1 -1 -1 -1 -1 -1
 NAtoms=     92 NQM=       92 NQMF=       0 NMMI=      0 NMMIF=      0
                NMic=       0 NMicF=      0.
                    Isotopes and Nuclear Properties:
 (Nuclear quadrupole moments (NQMom) in fm**2, nuclear magnetic moments (NMagM)
  in nuclear magnetons)

  Atom         1           2           3           4           5           6           7           8           9          10
 IAtWgt=          12          12          12          12          12          12          12          12          12          12
 AtmWgt=  12.0000000  12.0000000  12.0000000  12.0000000  12.0000000  12.0000000  12.0000000  12.0000000  12.0000000  12.0000000
 NucSpn=           0           0           0           0           0           0           0           0           0           0
 AtZEff=  -0.0000000  -0.0000000  -0.0000000  -0.0000000  -0.0000000  -0.0000000  -0.0000000  -0.0000000  -0.0000000  -0.0000000
 NQMom=    0.0000000   0.0000000   0.0000000   0.0000000   0.0000000   0.0000000   0.0000000   0.0000000   0.0000000   0.0000000
 NMagM=    0.0000000   0.0000000   0.0000000   0.0000000   0.0000000   0.0000000   0.0000000   0.0000000   0.0000000   0.0000000
 AtZNuc=   6.0000000   6.0000000   6.0000000   6.0000000   6.0000000   6.0000000   6.0000000   6.0000000   6.0000000   6.0000000

  Atom        11          12          13          14          15          16          17          18          19          20
 IAtWgt=          12          12          12          12          12          12          12          12          12          12
 AtmWgt=  12.0000000  12.0000000  12.0000000  12.0000000  12.0000000  12.0000000  12.0000000  12.0000000  12.0000000  12.0000000
 NucSpn=           0           0           0           0           0           0           0           0           0           0
 AtZEff=  -0.0000000  -0.0000000  -0.0000000  -0.0000000  -0.0000000  -0.0000000  -0.0000000  -0.0000000  -0.0000000  -0.0000000
 NQMom=    0.0000000   0.0000000   0.0000000   0.0000000   0.0000000   0.0000000   0.0000000   0.0000000   0.0000000   0.0000000
 NMagM=    0.0000000   0.0000000   0.0000000   0.0000000   0.0000000   0.0000000   0.0000000   0.0000000   0.0000000   0.0000000
 AtZNuc=   6.0000000   6.0000000   6.0000000   6.0000000   6.0000000   6.0000000   6.0000000   6.0000000   6.0000000   6.0000000

  Atom        21          22          23          24          25          26          27          28          29          30
 IAtWgt=          12          12          12          12          12          12          12          12          12          12
 AtmWgt=  12.0000000  12.0000000  12.0000000  12.0000000  12.0000000  12.0000000  12.0000000  12.0000000  12.0000000  12.0000000
 NucSpn=           0           0           0           0           0           0           0           0           0           0
 AtZEff=  -0.0000000  -0.0000000  -0.0000000  -0.0000000  -0.0000000  -0.0000000  -0.0000000  -0.0000000  -0.0000000  -0.0000000
 NQMom=    0.0000000   0.0000000   0.0000000   0.0000000   0.0000000   0.0000000   0.0000000   0.0000000   0.0000000   0.0000000
 NMagM=    0.0000000   0.0000000   0.0000000   0.0000000   0.0000000   0.0000000   0.0000000   0.0000000   0.0000000   0.0000000
 AtZNuc=   6.0000000   6.0000000   6.0000000   6.0000000   6.0000000   6.0000000   6.0000000   6.0000000   6.0000000   6.0000000

  Atom        31          32          33          34          35          36          37          38          39          40
 IAtWgt=          12          12          12          12          12          12          12          12          12          12
 AtmWgt=  12.0000000  12.0000000  12.0000000  12.0000000  12.0000000  12.0000000  12.0000000  12.0000000  12.0000000  12.0000000
 NucSpn=           0           0           0           0           0           0           0           0           0           0
 AtZEff=  -0.0000000  -0.0000000  -0.0000000  -0.0000000  -0.0000000  -0.0000000  -0.0000000  -0.0000000  -0.0000000  -0.0000000
 NQMom=    0.0000000   0.0000000   0.0000000   0.0000000   0.0000000   0.0000000   0.0000000   0.0000000   0.0000000   0.0000000
 NMagM=    0.0000000   0.0000000   0.0000000   0.0000000   0.0000000   0.0000000   0.0000000   0.0000000   0.0000000   0.0000000
 AtZNuc=   6.0000000   6.0000000   6.0000000   6.0000000   6.0000000   6.0000000   6.0000000   6.0000000   6.0000000   6.0000000

  Atom        41          42          43          44          45          46          47          48          49          50
 IAtWgt=          12          12          12          12          12          12          12          12          12          12
 AtmWgt=  12.0000000  12.0000000  12.0000000  12.0000000  12.0000000  12.0000000  12.0000000  12.0000000  12.0000000  12.0000000
 NucSpn=           0           0           0           0           0           0           0           0           0           0
 AtZEff=  -0.0000000  -0.0000000  -0.0000000  -0.0000000  -0.0000000  -0.0000000  -0.0000000  -0.0000000  -0.0000000  -0.0000000
 NQMom=    0.0000000   0.0000000   0.0000000   0.0000000   0.0000000   0.0000000   0.0000000   0.0000000   0.0000000   0.0000000
 NMagM=    0.0000000   0.0000000   0.0000000   0.0000000   0.0000000   0.0000000   0.0000000   0.0000000   0.0000000   0.0000000
 AtZNuc=   6.0000000   6.0000000   6.0000000   6.0000000   6.0000000   6.0000000   6.0000000   6.0000000   6.0000000   6.0000000

  Atom        51          52          53          54          55          56          57          58          59          60
 IAtWgt=          12          12          12          12          12          12          12          12          12          12
 AtmWgt=  12.0000000  12.0000000  12.0000000  12.0000000  12.0000000  12.0000000  12.0000000  12.0000000  12.0000000  12.0000000
 NucSpn=           0           0           0           0           0           0           0           0           0           0
 AtZEff=  -0.0000000  -0.0000000  -0.0000000  -0.0000000  -0.0000000  -0.0000000  -0.0000000  -0.0000000  -0.0000000  -0.0000000
 NQMom=    0.0000000   0.0000000   0.0000000   0.0000000   0.0000000   0.0000000   0.0000000   0.0000000   0.0000000   0.0000000
 NMagM=    0.0000000   0.0000000   0.0000000   0.0000000   0.0000000   0.0000000   0.0000000   0.0000000   0.0000000   0.0000000
 AtZNuc=   6.0000000   6.0000000   6.0000000   6.0000000   6.0000000   6.0000000   6.0000000   6.0000000   6.0000000   6.0000000

  Atom        61          62          63          64          65          66          67          68          69          70
 IAtWgt=          12          12          12          12          12          12          12          12          12          12
 AtmWgt=  12.0000000  12.0000000  12.0000000  12.0000000  12.0000000  12.0000000  12.0000000  12.0000000  12.0000000  12.0000000
 NucSpn=           0           0           0           0           0           0           0           0           0           0
 AtZEff=  -0.0000000  -0.0000000  -0.0000000  -0.0000000  -0.0000000  -0.0000000  -0.0000000  -0.0000000  -0.0000000  -0.0000000
 NQMom=    0.0000000   0.0000000   0.0000000   0.0000000   0.0000000   0.0000000   0.0000000   0.0000000   0.0000000   0.0000000
 NMagM=    0.0000000   0.0000000   0.0000000   0.0000000   0.0000000   0.0000000   0.0000000   0.0000000   0.0000000   0.0000000
 AtZNuc=   6.0000000   6.0000000   6.0000000   6.0000000   6.0000000   6.0000000   6.0000000   6.0000000   6.0000000   6.0000000

  Atom        71          72          73          74          75          76          77          78          79          80
 IAtWgt=          12          12          12          12          12          12          12          12          12          12
 AtmWgt=  12.0000000  12.0000000  12.0000000  12.0000000  12.0000000  12.0000000  12.0000000  12.0000000  12.0000000  12.0000000
 NucSpn=           0           0           0           0           0           0           0           0           0           0
 AtZEff=  -0.0000000  -0.0000000  -0.0000000  -0.0000000  -0.0000000  -0.0000000  -0.0000000  -0.0000000  -0.0000000  -0.0000000
 NQMom=    0.0000000   0.0000000   0.0000000   0.0000000   0.0000000   0.0000000   0.0000000   0.0000000   0.0000000   0.0000000
 NMagM=    0.0000000   0.0000000   0.0000000   0.0000000   0.0000000   0.0000000   0.0000000   0.0000000   0.0000000   0.0000000
 AtZNuc=   6.0000000   6.0000000   6.0000000   6.0000000   6.0000000   6.0000000   6.0000000   6.0000000   6.0000000   6.0000000

  Atom        81          82          83          84          85          86          87          88          89          90
 IAtWgt=          12          12          12          12          35          35          35          35          35          35
 AtmWgt=  12.0000000  12.0000000  12.0000000  12.0000000  34.9688527  34.9688527  34.9688527  34.9688527  34.9688527  34.9688527
 NucSpn=           0           0           0           0           3           3           3           3           3           3
 AtZEff=  -0.0000000  -0.0000000  -0.0000000  -0.0000000  -0.0000000  -0.0000000  -0.0000000  -0.0000000  -0.0000000  -0.0000000
 NQMom=    0.0000000   0.0000000   0.0000000   0.0000000  -8.1650000  -8.1650000  -8.1650000  -8.1650000  -8.1650000  -8.1650000
 NMagM=    0.0000000   0.0000000   0.0000000   0.0000000   0.8218740   0.8218740   0.8218740   0.8218740   0.8218740   0.8218740
 AtZNuc=   6.0000000   6.0000000   6.0000000   6.0000000  17.0000000  17.0000000  17.0000000  17.0000000  17.0000000  17.0000000

  Atom        91          92
 IAtWgt=          35          35
 AtmWgt=  34.9688527  34.9688527
 NucSpn=           3           3
 AtZEff=  -0.0000000  -0.0000000
 NQMom=   -8.1650000  -8.1650000
 NMagM=    0.8218740   0.8218740
 AtZNuc=  17.0000000  17.0000000
 Leave Link  101 at Mon Jun 27 23:02:19 2022, MaxMem=  1342177280 cpu:               6.6 elap:               0.3
 (Enter /home/mkliu/g16/l103.exe)

 GradGradGradGradGradGradGradGradGradGradGradGradGradGradGradGradGradGrad
 Berny optimization.
 Initialization pass.
                           ----------------------------
                           !    Initial Parameters    !
                           ! (Angstroms and Degrees)  !
 --------------------------                            --------------------------
 ! Name  Definition              Value          Derivative Info.                !
 --------------------------------------------------------------------------------
 ! R1    R(1,5)                  1.423          estimate D2E/DX2                !
 ! R2    R(1,17)                 1.4116         estimate D2E/DX2                !
 ! R3    R(1,25)                 1.4214         estimate D2E/DX2                !
 ! R4    R(2,6)                  1.4409         estimate D2E/DX2                !
 ! R5    R(2,43)                 1.4104         estimate D2E/DX2                !
 ! R6    R(2,44)                 1.4203         estimate D2E/DX2                !
 ! R7    R(3,7)                  1.4215         estimate D2E/DX2                !
 ! R8    R(3,18)                 1.4096         estimate D2E/DX2                !
 ! R9    R(3,26)                 1.4252         estimate D2E/DX2                !
 ! R10   R(4,8)                  1.4045         estimate D2E/DX2                !
 ! R11   R(4,45)                 1.4133         estimate D2E/DX2                !
 ! R12   R(4,46)                 1.4557         estimate D2E/DX2                !
 ! R13   R(5,9)                  1.4149         estimate D2E/DX2                !
 ! R14   R(5,29)                 1.4194         estimate D2E/DX2                !
 ! R15   R(6,10)                 1.363          estimate D2E/DX2                !
 ! R16   R(6,15)                 1.4354         estimate D2E/DX2                !
 ! R17   R(7,12)                 1.4158         estimate D2E/DX2                !
 ! R18   R(7,30)                 1.4185         estimate D2E/DX2                !
 ! R19   R(8,11)                 1.3915         estimate D2E/DX2                !
 ! R20   R(8,16)                 1.4377         estimate D2E/DX2                !
 ! R21   R(9,13)                 1.4084         estimate D2E/DX2                !
 ! R22   R(9,35)                 1.4382         estimate D2E/DX2                !
 ! R23   R(10,49)                1.5055         estimate D2E/DX2                !
 ! R24   R(10,53)                1.4218         estimate D2E/DX2                !
 ! R25   R(11,50)                1.4097         estimate D2E/DX2                !
 ! R26   R(11,54)                1.4437         estimate D2E/DX2                !
 ! R27   R(12,14)                1.4054         estimate D2E/DX2                !
 ! R28   R(12,36)                1.433          estimate D2E/DX2                !
 ! R29   R(13,15)                1.4155         estimate D2E/DX2                !
 ! R30   R(13,43)                1.4369         estimate D2E/DX2                !
 ! R31   R(14,16)                1.4138         estimate D2E/DX2                !
 ! R32   R(14,46)                1.437          estimate D2E/DX2                !
 ! R33   R(15,17)                1.4103         estimate D2E/DX2                !
 ! R34   R(16,18)                1.4117         estimate D2E/DX2                !
 ! R35   R(17,19)                1.4356         estimate D2E/DX2                !
 ! R36   R(18,20)                1.4431         estimate D2E/DX2                !
 ! R37   R(19,21)                1.4117         estimate D2E/DX2                !
 ! R38   R(19,53)                1.4174         estimate D2E/DX2                !
 ! R39   R(20,22)                1.4132         estimate D2E/DX2                !
 ! R40   R(20,54)                1.4121         estimate D2E/DX2                !
 ! R41   R(21,23)                1.4221         estimate D2E/DX2                !
 ! R42   R(21,57)                1.4223         estimate D2E/DX2                !
 ! R43   R(22,24)                1.4247         estimate D2E/DX2                !
 ! R44   R(22,58)                1.4207         estimate D2E/DX2                !
 ! R45   R(23,25)                1.3562         estimate D2E/DX2                !
 ! R46   R(23,61)                1.5016         estimate D2E/DX2                !
 ! R47   R(24,26)                1.3531         estimate D2E/DX2                !
 ! R48   R(24,62)                1.5016         estimate D2E/DX2                !
 ! R49   R(25,27)                1.5004         estimate D2E/DX2                !
 ! R50   R(26,28)                1.5004         estimate D2E/DX2                !
 ! R51   R(27,29)                1.4988         estimate D2E/DX2                !
 ! R52   R(27,65)                1.5272         estimate D2E/DX2                !
 ! R53   R(27,85)                1.7967         estimate D2E/DX2                !
 ! R54   R(28,30)                1.4986         estimate D2E/DX2                !
 ! R55   R(28,66)                1.5274         estimate D2E/DX2                !
 ! R56   R(28,88)                1.7969         estimate D2E/DX2                !
 ! R57   R(29,31)                1.351          estimate D2E/DX2                !
 ! R58   R(30,32)                1.3522         estimate D2E/DX2                !
 ! R59   R(31,33)                1.4244         estimate D2E/DX2                !
 ! R60   R(31,69)                1.5038         estimate D2E/DX2                !
 ! R61   R(32,34)                1.4238         estimate D2E/DX2                !
 ! R62   R(32,70)                1.5042         estimate D2E/DX2                !
 ! R63   R(33,35)                1.4083         estimate D2E/DX2                !
 ! R64   R(33,73)                1.4245         estimate D2E/DX2                !
 ! R65   R(34,36)                1.4119         estimate D2E/DX2                !
 ! R66   R(34,74)                1.4193         estimate D2E/DX2                !
 ! R67   R(35,37)                1.4506         estimate D2E/DX2                !
 ! R68   R(36,38)                1.4486         estimate D2E/DX2                !
 ! R69   R(37,39)                1.4379         estimate D2E/DX2                !
 ! R70   R(37,77)                1.408          estimate D2E/DX2                !
 ! R71   R(38,42)                1.4375         estimate D2E/DX2                !
 ! R72   R(38,78)                1.4088         estimate D2E/DX2                !
 ! R73   R(39,43)                1.4128         estimate D2E/DX2                !
 ! R74   R(39,79)                1.4094         estimate D2E/DX2                !
 ! R75   R(40,41)                1.3903         estimate D2E/DX2                !
 ! R76   R(40,44)                1.4222         estimate D2E/DX2                !
 ! R77   R(40,79)                1.4396         estimate D2E/DX2                !
 ! R78   R(41,45)                1.3977         estimate D2E/DX2                !
 ! R79   R(41,80)                1.5148         estimate D2E/DX2                !
 ! R80   R(42,46)                1.3704         estimate D2E/DX2                !
 ! R81   R(42,80)                1.5104         estimate D2E/DX2                !
 ! R82   R(44,47)                1.4125         estimate D2E/DX2                !
 ! R83   R(45,48)                1.4568         estimate D2E/DX2                !
 ! R84   R(47,48)                1.4177         estimate D2E/DX2                !
 ! R85   R(47,49)                1.5191         estimate D2E/DX2                !
 ! R86   R(48,50)                1.4232         estimate D2E/DX2                !
 ! R87   R(49,51)                1.501          estimate D2E/DX2                !
 ! R88   R(49,91)                1.823          estimate D2E/DX2                !
 ! R89   R(50,52)                1.4437         estimate D2E/DX2                !
 ! R90   R(51,52)                1.3614         estimate D2E/DX2                !
 ! R91   R(51,55)                1.4204         estimate D2E/DX2                !
 ! R92   R(52,56)                1.4389         estimate D2E/DX2                !
 ! R93   R(53,55)                1.4211         estimate D2E/DX2                !
 ! R94   R(54,56)                1.4158         estimate D2E/DX2                !
 ! R95   R(55,83)                1.4175         estimate D2E/DX2                !
 ! R96   R(56,84)                1.4109         estimate D2E/DX2                !
 ! R97   R(57,59)                1.423          estimate D2E/DX2                !
 ! R98   R(57,83)                1.4105         estimate D2E/DX2                !
 ! R99   R(58,60)                1.4223         estimate D2E/DX2                !
 ! R100  R(58,84)                1.4136         estimate D2E/DX2                !
 ! R101  R(59,60)                1.3555         estimate D2E/DX2                !
 ! R102  R(59,61)                1.501          estimate D2E/DX2                !
 ! R103  R(60,62)                1.501          estimate D2E/DX2                !
 ! R104  R(61,63)                1.5277         estimate D2E/DX2                !
 ! R105  R(61,89)                1.7994         estimate D2E/DX2                !
 ! R106  R(62,64)                1.5273         estimate D2E/DX2                !
 ! R107  R(62,90)                1.7986         estimate D2E/DX2                !
 ! R108  R(63,64)                1.4022         estimate D2E/DX2                !
 ! R109  R(63,65)                1.4011         estimate D2E/DX2                !
 ! R110  R(64,66)                1.4014         estimate D2E/DX2                !
 ! R111  R(65,67)                1.404          estimate D2E/DX2                !
 ! R112  R(66,68)                1.4038         estimate D2E/DX2                !
 ! R113  R(67,68)                1.4014         estimate D2E/DX2                !
 ! R114  R(67,69)                1.5294         estimate D2E/DX2                !
 ! R115  R(68,70)                1.5298         estimate D2E/DX2                !
 ! R116  R(69,71)                1.5006         estimate D2E/DX2                !
 ! R117  R(69,86)                1.799          estimate D2E/DX2                !
 ! R118  R(70,72)                1.5014         estimate D2E/DX2                !
 ! R119  R(70,87)                1.7986         estimate D2E/DX2                !
 ! R120  R(71,72)                1.3585         estimate D2E/DX2                !
 ! R121  R(71,73)                1.4281         estimate D2E/DX2                !
 ! R122  R(72,74)                1.4272         estimate D2E/DX2                !
 ! R123  R(73,75)                1.3825         estimate D2E/DX2                !
 ! R124  R(74,76)                1.3883         estimate D2E/DX2                !
 ! R125  R(75,76)                1.4309         estimate D2E/DX2                !
 ! R126  R(75,77)                1.4268         estimate D2E/DX2                !
 ! R127  R(76,78)                1.4214         estimate D2E/DX2                !
 ! R128  R(77,81)                1.4369         estimate D2E/DX2                !
 ! R129  R(78,81)                1.4489         estimate D2E/DX2                !
 ! R130  R(79,82)                1.4071         estimate D2E/DX2                !
 ! R131  R(80,82)                1.4969         estimate D2E/DX2                !
 ! R132  R(80,92)                1.816          estimate D2E/DX2                !
 ! R133  R(81,82)                1.3661         estimate D2E/DX2                !
 ! R134  R(83,84)                1.4356         estimate D2E/DX2                !
 ! A1    A(5,1,17)             121.7695         estimate D2E/DX2                !
 ! A2    A(5,1,25)             108.2904         estimate D2E/DX2                !
 ! A3    A(17,1,25)            121.6803         estimate D2E/DX2                !
 ! A4    A(6,2,43)             106.8874         estimate D2E/DX2                !
 ! A5    A(6,2,44)             119.4006         estimate D2E/DX2                !
 ! A6    A(43,2,44)            121.7544         estimate D2E/DX2                !
 ! A7    A(7,3,18)             122.0707         estimate D2E/DX2                !
 ! A8    A(7,3,26)             108.1016         estimate D2E/DX2                !
 ! A9    A(18,3,26)            121.767          estimate D2E/DX2                !
 ! A10   A(8,4,45)             120.844          estimate D2E/DX2                !
 ! A11   A(8,4,46)             106.7601         estimate D2E/DX2                !
 ! A12   A(45,4,46)            120.6603         estimate D2E/DX2                !
 ! A13   A(1,5,9)              122.1196         estimate D2E/DX2                !
 ! A14   A(1,5,29)             108.0665         estimate D2E/DX2                !
 ! A15   A(9,5,29)             121.4383         estimate D2E/DX2                !
 ! A16   A(2,6,10)             120.3454         estimate D2E/DX2                !
 ! A17   A(2,6,15)             108.7474         estimate D2E/DX2                !
 ! A18   A(10,6,15)            120.6703         estimate D2E/DX2                !
 ! A19   A(3,7,12)             121.8018         estimate D2E/DX2                !
 ! A20   A(3,7,30)             108.3088         estimate D2E/DX2                !
 ! A21   A(12,7,30)            121.3332         estimate D2E/DX2                !
 ! A22   A(4,8,11)             119.8067         estimate D2E/DX2                !
 ! A23   A(4,8,16)             109.8078         estimate D2E/DX2                !
 ! A24   A(11,8,16)            120.2672         estimate D2E/DX2                !
 ! A25   A(5,9,13)             115.2941         estimate D2E/DX2                !
 ! A26   A(5,9,35)             119.4998         estimate D2E/DX2                !
 ! A27   A(13,9,35)            119.6626         estimate D2E/DX2                !
 ! A28   A(6,10,49)            122.0417         estimate D2E/DX2                !
 ! A29   A(6,10,53)            119.4671         estimate D2E/DX2                !
 ! A30   A(49,10,53)           111.3347         estimate D2E/DX2                !
 ! A31   A(8,11,50)            120.4337         estimate D2E/DX2                !
 ! A32   A(8,11,54)            119.2548         estimate D2E/DX2                !
 ! A33   A(50,11,54)           109.8065         estimate D2E/DX2                !
 ! A34   A(7,12,14)            115.36           estimate D2E/DX2                !
 ! A35   A(7,12,36)            119.7209         estimate D2E/DX2                !
 ! A36   A(14,12,36)           119.199          estimate D2E/DX2                !
 ! A37   A(9,13,15)            122.3455         estimate D2E/DX2                !
 ! A38   A(9,13,43)            120.6586         estimate D2E/DX2                !
 ! A39   A(15,13,43)           108.3829         estimate D2E/DX2                !
 ! A40   A(12,14,16)           122.5385         estimate D2E/DX2                !
 ! A41   A(12,14,46)           120.4287         estimate D2E/DX2                !
 ! A42   A(16,14,46)           108.4246         estimate D2E/DX2                !
 ! A43   A(6,15,13)            107.0751         estimate D2E/DX2                !
 ! A44   A(6,15,17)            120.7903         estimate D2E/DX2                !
 ! A45   A(13,15,17)           122.0828         estimate D2E/DX2                !
 ! A46   A(8,16,14)            107.3007         estimate D2E/DX2                !
 ! A47   A(8,16,18)            120.9487         estimate D2E/DX2                !
 ! A48   A(14,16,18)           121.9054         estimate D2E/DX2                !
 ! A49   A(1,17,15)            115.5922         estimate D2E/DX2                !
 ! A50   A(1,17,19)            118.393          estimate D2E/DX2                !
 ! A51   A(15,17,19)           118.6676         estimate D2E/DX2                !
 ! A52   A(3,18,16)            115.5157         estimate D2E/DX2                !
 ! A53   A(3,18,20)            118.5368         estimate D2E/DX2                !
 ! A54   A(16,18,20)           119.0496         estimate D2E/DX2                !
 ! A55   A(17,19,21)           118.2569         estimate D2E/DX2                !
 ! A56   A(17,19,53)           118.8093         estimate D2E/DX2                !
 ! A57   A(21,19,53)           115.8878         estimate D2E/DX2                !
 ! A58   A(18,20,22)           117.8761         estimate D2E/DX2                !
 ! A59   A(18,20,54)           119.3929         estimate D2E/DX2                !
 ! A60   A(22,20,54)           115.8747         estimate D2E/DX2                !
 ! A61   A(19,21,23)           121.7908         estimate D2E/DX2                !
 ! A62   A(19,21,57)           121.9218         estimate D2E/DX2                !
 ! A63   A(23,21,57)           108.2845         estimate D2E/DX2                !
 ! A64   A(20,22,24)           121.8374         estimate D2E/DX2                !
 ! A65   A(20,22,58)           121.9509         estimate D2E/DX2                !
 ! A66   A(24,22,58)           108.2273         estimate D2E/DX2                !
 ! A67   A(21,23,25)           119.8652         estimate D2E/DX2                !
 ! A68   A(21,23,61)           111.2919         estimate D2E/DX2                !
 ! A69   A(25,23,61)           121.3387         estimate D2E/DX2                !
 ! A70   A(22,24,26)           120.1433         estimate D2E/DX2                !
 ! A71   A(22,24,62)           111.2416         estimate D2E/DX2                !
 ! A72   A(26,24,62)           121.3545         estimate D2E/DX2                !
 ! A73   A(1,25,23)            120.003          estimate D2E/DX2                !
 ! A74   A(1,25,27)            111.2545         estimate D2E/DX2                !
 ! A75   A(23,25,27)           121.48           estimate D2E/DX2                !
 ! A76   A(3,26,24)            119.8163         estimate D2E/DX2                !
 ! A77   A(3,26,28)            111.2555         estimate D2E/DX2                !
 ! A78   A(24,26,28)           121.5146         estimate D2E/DX2                !
 ! A79   A(25,27,29)           100.7521         estimate D2E/DX2                !
 ! A80   A(25,27,65)           109.9309         estimate D2E/DX2                !
 ! A81   A(25,27,85)           113.6109         estimate D2E/DX2                !
 ! A82   A(29,27,65)           108.895          estimate D2E/DX2                !
 ! A83   A(29,27,85)           114.313          estimate D2E/DX2                !
 ! A84   A(65,27,85)           109.0362         estimate D2E/DX2                !
 ! A85   A(26,28,30)           100.7794         estimate D2E/DX2                !
 ! A86   A(26,28,66)           109.8555         estimate D2E/DX2                !
 ! A87   A(26,28,88)           113.7088         estimate D2E/DX2                !
 ! A88   A(30,28,66)           108.9066         estimate D2E/DX2                !
 ! A89   A(30,28,88)           114.2709         estimate D2E/DX2                !
 ! A90   A(66,28,88)           109.0151         estimate D2E/DX2                !
 ! A91   A(5,29,27)            111.5601         estimate D2E/DX2                !
 ! A92   A(5,29,31)            119.4315         estimate D2E/DX2                !
 ! A93   A(27,29,31)           121.8394         estimate D2E/DX2                !
 ! A94   A(7,30,28)            111.5108         estimate D2E/DX2                !
 ! A95   A(7,30,32)            119.4265         estimate D2E/DX2                !
 ! A96   A(28,30,32)           121.8763         estimate D2E/DX2                !
 ! A97   A(29,31,33)           120.1261         estimate D2E/DX2                !
 ! A98   A(29,31,69)           121.0762         estimate D2E/DX2                !
 ! A99   A(33,31,69)           111.7661         estimate D2E/DX2                !
 ! A100  A(30,32,34)           120.1333         estimate D2E/DX2                !
 ! A101  A(30,32,70)           121.0767         estimate D2E/DX2                !
 ! A102  A(34,32,70)           111.5822         estimate D2E/DX2                !
 ! A103  A(31,33,35)           122.5836         estimate D2E/DX2                !
 ! A104  A(31,33,73)           107.0522         estimate D2E/DX2                !
 ! A105  A(35,33,73)           122.1919         estimate D2E/DX2                !
 ! A106  A(32,34,36)           122.4834         estimate D2E/DX2                !
 ! A107  A(32,34,74)           107.3088         estimate D2E/DX2                !
 ! A108  A(36,34,74)           121.8482         estimate D2E/DX2                !
 ! A109  A(9,35,33)            116.4272         estimate D2E/DX2                !
 ! A110  A(9,35,37)            119.8148         estimate D2E/DX2                !
 ! A111  A(33,35,37)           118.4664         estimate D2E/DX2                !
 ! A112  A(12,36,34)           116.3483         estimate D2E/DX2                !
 ! A113  A(12,36,38)           119.7714         estimate D2E/DX2                !
 ! A114  A(34,36,38)           118.7876         estimate D2E/DX2                !
 ! A115  A(35,37,39)           119.2638         estimate D2E/DX2                !
 ! A116  A(35,37,77)           118.2586         estimate D2E/DX2                !
 ! A117  A(39,37,77)           116.755          estimate D2E/DX2                !
 ! A118  A(36,38,42)           118.9913         estimate D2E/DX2                !
 ! A119  A(36,38,78)           118.2285         estimate D2E/DX2                !
 ! A120  A(42,38,78)           118.0654         estimate D2E/DX2                !
 ! A121  A(37,39,43)           119.9586         estimate D2E/DX2                !
 ! A122  A(37,39,79)           119.6306         estimate D2E/DX2                !
 ! A123  A(43,39,79)           114.7834         estimate D2E/DX2                !
 ! A124  A(41,40,44)           121.9534         estimate D2E/DX2                !
 ! A125  A(41,40,79)           109.535          estimate D2E/DX2                !
 ! A126  A(44,40,79)           122.3268         estimate D2E/DX2                !
 ! A127  A(40,41,45)           120.3257         estimate D2E/DX2                !
 ! A128  A(40,41,80)           110.0158         estimate D2E/DX2                !
 ! A129  A(45,41,80)           124.0608         estimate D2E/DX2                !
 ! A130  A(38,42,46)           120.3234         estimate D2E/DX2                !
 ! A131  A(38,42,80)           122.0695         estimate D2E/DX2                !
 ! A132  A(46,42,80)           115.537          estimate D2E/DX2                !
 ! A133  A(2,43,13)            108.8052         estimate D2E/DX2                !
 ! A134  A(2,43,39)            123.2576         estimate D2E/DX2                !
 ! A135  A(13,43,39)           120.3352         estimate D2E/DX2                !
 ! A136  A(2,44,40)            114.2898         estimate D2E/DX2                !
 ! A137  A(2,44,47)            122.0557         estimate D2E/DX2                !
 ! A138  A(40,44,47)           118.6901         estimate D2E/DX2                !
 ! A139  A(4,45,41)            115.4912         estimate D2E/DX2                !
 ! A140  A(4,45,48)            119.993          estimate D2E/DX2                !
 ! A141  A(41,45,48)           118.8274         estimate D2E/DX2                !
 ! A142  A(4,46,14)            107.6434         estimate D2E/DX2                !
 ! A143  A(4,46,42)            123.692          estimate D2E/DX2                !
 ! A144  A(14,46,42)           121.0947         estimate D2E/DX2                !
 ! A145  A(44,47,48)           120.0467         estimate D2E/DX2                !
 ! A146  A(44,47,49)           117.9262         estimate D2E/DX2                !
 ! A147  A(48,47,49)           120.013          estimate D2E/DX2                !
 ! A148  A(45,48,47)           119.842          estimate D2E/DX2                !
 ! A149  A(45,48,50)           116.5393         estimate D2E/DX2                !
 ! A150  A(47,48,50)           119.309          estimate D2E/DX2                !
 ! A151  A(10,49,47)           112.7678         estimate D2E/DX2                !
 ! A152  A(10,49,51)           100.4288         estimate D2E/DX2                !
 ! A153  A(10,49,91)           110.732          estimate D2E/DX2                !
 ! A154  A(47,49,51)           112.7237         estimate D2E/DX2                !
 ! A155  A(47,49,91)           108.8299         estimate D2E/DX2                !
 ! A156  A(51,49,91)           111.2005         estimate D2E/DX2                !
 ! A157  A(11,50,48)           121.4607         estimate D2E/DX2                !
 ! A158  A(11,50,52)           105.9881         estimate D2E/DX2                !
 ! A159  A(48,50,52)           120.4383         estimate D2E/DX2                !
 ! A160  A(49,51,52)           121.1783         estimate D2E/DX2                !
 ! A161  A(49,51,55)           111.4772         estimate D2E/DX2                !
 ! A162  A(52,51,55)           119.8088         estimate D2E/DX2                !
 ! A163  A(50,52,51)           120.7859         estimate D2E/DX2                !
 ! A164  A(50,52,56)           108.9976         estimate D2E/DX2                !
 ! A165  A(51,52,56)           120.4446         estimate D2E/DX2                !
 ! A166  A(10,53,19)           121.5334         estimate D2E/DX2                !
 ! A167  A(10,53,55)           108.1589         estimate D2E/DX2                !
 ! A168  A(19,53,55)           121.8897         estimate D2E/DX2                !
 ! A169  A(11,54,20)           121.0275         estimate D2E/DX2                !
 ! A170  A(11,54,56)           107.4145         estimate D2E/DX2                !
 ! A171  A(20,54,56)           121.8296         estimate D2E/DX2                !
 ! A172  A(51,55,53)           108.3023         estimate D2E/DX2                !
 ! A173  A(51,55,83)           121.4371         estimate D2E/DX2                !
 ! A174  A(53,55,83)           121.8615         estimate D2E/DX2                !
 ! A175  A(52,56,54)           107.4206         estimate D2E/DX2                !
 ! A176  A(52,56,84)           120.6508         estimate D2E/DX2                !
 ! A177  A(54,56,84)           122.1629         estimate D2E/DX2                !
 ! A178  A(21,57,59)           108.2616         estimate D2E/DX2                !
 ! A179  A(21,57,83)           122.0938         estimate D2E/DX2                !
 ! A180  A(59,57,83)           121.7995         estimate D2E/DX2                !
 ! A181  A(22,58,60)           108.347          estimate D2E/DX2                !
 ! A182  A(22,58,84)           121.7136         estimate D2E/DX2                !
 ! A183  A(60,58,84)           121.6911         estimate D2E/DX2                !
 ! A184  A(57,59,60)           119.7565         estimate D2E/DX2                !
 ! A185  A(57,59,61)           111.278          estimate D2E/DX2                !
 ! A186  A(60,59,61)           121.6158         estimate D2E/DX2                !
 ! A187  A(58,60,59)           120.1092         estimate D2E/DX2                !
 ! A188  A(58,60,62)           111.2822         estimate D2E/DX2                !
 ! A189  A(59,60,62)           121.5959         estimate D2E/DX2                !
 ! A190  A(23,61,59)           100.8466         estimate D2E/DX2                !
 ! A191  A(23,61,63)           109.854          estimate D2E/DX2                !
 ! A192  A(23,61,89)           113.8773         estimate D2E/DX2                !
 ! A193  A(59,61,63)           109.9015         estimate D2E/DX2                !
 ! A194  A(59,61,89)           113.6808         estimate D2E/DX2                !
 ! A195  A(63,61,89)           108.483          estimate D2E/DX2                !
 ! A196  A(24,62,60)           100.8359         estimate D2E/DX2                !
 ! A197  A(24,62,64)           109.7883         estimate D2E/DX2                !
 ! A198  A(24,62,90)           113.898          estimate D2E/DX2                !
 ! A199  A(60,62,64)           109.9151         estimate D2E/DX2                !
 ! A200  A(60,62,90)           113.5792         estimate D2E/DX2                !
 ! A201  A(64,62,90)           108.6129         estimate D2E/DX2                !
 ! A202  A(61,63,64)           119.9772         estimate D2E/DX2                !
 ! A203  A(61,63,65)           119.9323         estimate D2E/DX2                !
 ! A204  A(64,63,65)           119.8644         estimate D2E/DX2                !
 ! A205  A(62,64,63)           119.982          estimate D2E/DX2                !
 ! A206  A(62,64,66)           119.8816         estimate D2E/DX2                !
 ! A207  A(63,64,66)           119.9072         estimate D2E/DX2                !
 ! A208  A(27,65,63)           119.7243         estimate D2E/DX2                !
 ! A209  A(27,65,67)           119.7467         estimate D2E/DX2                !
 ! A210  A(63,65,67)           120.2616         estimate D2E/DX2                !
 ! A211  A(28,66,64)           119.6824         estimate D2E/DX2                !
 ! A212  A(28,66,68)           119.7776         estimate D2E/DX2                !
 ! A213  A(64,66,68)           120.2692         estimate D2E/DX2                !
 ! A214  A(65,67,68)           119.8744         estimate D2E/DX2                !
 ! A215  A(65,67,69)           119.6266         estimate D2E/DX2                !
 ! A216  A(68,67,69)           120.2695         estimate D2E/DX2                !
 ! A217  A(66,68,67)           119.8137         estimate D2E/DX2                !
 ! A218  A(66,68,70)           119.6828         estimate D2E/DX2                !
 ! A219  A(67,68,70)           120.2795         estimate D2E/DX2                !
 ! A220  A(31,69,67)           108.7063         estimate D2E/DX2                !
 ! A221  A(31,69,71)           101.1925         estimate D2E/DX2                !
 ! A222  A(31,69,86)           114.1514         estimate D2E/DX2                !
 ! A223  A(67,69,71)           110.5413         estimate D2E/DX2                !
 ! A224  A(67,69,86)           108.5174         estimate D2E/DX2                !
 ! A225  A(71,69,86)           113.5207         estimate D2E/DX2                !
 ! A226  A(32,70,68)           108.7139         estimate D2E/DX2                !
 ! A227  A(32,70,72)           101.1344         estimate D2E/DX2                !
 ! A228  A(32,70,87)           114.1962         estimate D2E/DX2                !
 ! A229  A(68,70,72)           110.5024         estimate D2E/DX2                !
 ! A230  A(68,70,87)           108.4765         estimate D2E/DX2                !
 ! A231  A(72,70,87)           113.6036         estimate D2E/DX2                !
 ! A232  A(69,71,72)           121.8849         estimate D2E/DX2                !
 ! A233  A(69,71,73)           110.1984         estimate D2E/DX2                !
 ! A234  A(72,71,73)           119.6129         estimate D2E/DX2                !
 ! A235  A(70,72,71)           121.8633         estimate D2E/DX2                !
 ! A236  A(70,72,74)           110.1994         estimate D2E/DX2                !
 ! A237  A(71,72,74)           119.6072         estimate D2E/DX2                !
 ! A238  A(33,73,71)           109.4032         estimate D2E/DX2                !
 ! A239  A(33,73,75)           119.1907         estimate D2E/DX2                !
 ! A240  A(71,73,75)           121.4177         estimate D2E/DX2                !
 ! A241  A(34,74,72)           109.3675         estimate D2E/DX2                !
 ! A242  A(34,74,76)           119.063          estimate D2E/DX2                !
 ! A243  A(72,74,76)           121.5137         estimate D2E/DX2                !
 ! A244  A(73,75,76)           119.1518         estimate D2E/DX2                !
 ! A245  A(73,75,77)           119.8986         estimate D2E/DX2                !
 ! A246  A(76,75,77)           108.7397         estimate D2E/DX2                !
 ! A247  A(74,76,75)           118.6178         estimate D2E/DX2                !
 ! A248  A(74,76,78)           120.3252         estimate D2E/DX2                !
 ! A249  A(75,76,78)           108.8702         estimate D2E/DX2                !
 ! A250  A(37,77,75)           121.8815         estimate D2E/DX2                !
 ! A251  A(37,77,81)           121.8911         estimate D2E/DX2                !
 ! A252  A(75,77,81)           106.3916         estimate D2E/DX2                !
 ! A253  A(38,78,76)           121.5021         estimate D2E/DX2                !
 ! A254  A(38,78,81)           120.6333         estimate D2E/DX2                !
 ! A255  A(76,78,81)           106.2484         estimate D2E/DX2                !
 ! A256  A(39,79,40)           121.4238         estimate D2E/DX2                !
 ! A257  A(39,79,82)           121.9708         estimate D2E/DX2                !
 ! A258  A(40,79,82)           107.4484         estimate D2E/DX2                !
 ! A259  A(41,80,42)           112.5443         estimate D2E/DX2                !
 ! A260  A(41,80,82)           101.1949         estimate D2E/DX2                !
 ! A261  A(41,80,92)           111.1799         estimate D2E/DX2                !
 ! A262  A(42,80,82)           111.9763         estimate D2E/DX2                !
 ! A263  A(42,80,92)           108.1756         estimate D2E/DX2                !
 ! A264  A(82,80,92)           111.7301         estimate D2E/DX2                !
 ! A265  A(77,81,78)           108.9737         estimate D2E/DX2                !
 ! A266  A(77,81,82)           119.8866         estimate D2E/DX2                !
 ! A267  A(78,81,82)           120.83           estimate D2E/DX2                !
 ! A268  A(79,82,80)           111.1851         estimate D2E/DX2                !
 ! A269  A(79,82,81)           119.3035         estimate D2E/DX2                !
 ! A270  A(80,82,81)           121.7899         estimate D2E/DX2                !
 ! A271  A(55,83,57)           115.8542         estimate D2E/DX2                !
 ! A272  A(55,83,84)           118.7469         estimate D2E/DX2                !
 ! A273  A(57,83,84)           118.4657         estimate D2E/DX2                !
 ! A274  A(56,84,58)           115.8545         estimate D2E/DX2                !
 ! A275  A(56,84,83)           118.821          estimate D2E/DX2                !
 ! A276  A(58,84,83)           118.1732         estimate D2E/DX2                !
 ! D1    D(17,1,5,9)            -2.9452         estimate D2E/DX2                !
 ! D2    D(17,1,5,29)         -151.4366         estimate D2E/DX2                !
 ! D3    D(25,1,5,9)           145.8472         estimate D2E/DX2                !
 ! D4    D(25,1,5,29)           -2.6441         estimate D2E/DX2                !
 ! D5    D(5,1,17,15)           -5.302          estimate D2E/DX2                !
 ! D6    D(5,1,17,19)          144.4145         estimate D2E/DX2                !
 ! D7    D(25,1,17,15)        -149.9847         estimate D2E/DX2                !
 ! D8    D(25,1,17,19)          -0.2682         estimate D2E/DX2                !
 ! D9    D(5,1,25,23)         -147.7802         estimate D2E/DX2                !
 ! D10   D(5,1,25,27)            2.8665         estimate D2E/DX2                !
 ! D11   D(17,1,25,23)           1.0456         estimate D2E/DX2                !
 ! D12   D(17,1,25,27)         151.6923         estimate D2E/DX2                !
 ! D13   D(43,2,6,10)         -148.6241         estimate D2E/DX2                !
 ! D14   D(43,2,6,15)           -3.2495         estimate D2E/DX2                !
 ! D15   D(44,2,6,10)           -5.2675         estimate D2E/DX2                !
 ! D16   D(44,2,6,15)          140.1072         estimate D2E/DX2                !
 ! D17   D(6,2,43,13)            2.2274         estimate D2E/DX2                !
 ! D18   D(6,2,43,39)          151.6978         estimate D2E/DX2                !
 ! D19   D(44,2,43,13)        -140.0746         estimate D2E/DX2                !
 ! D20   D(44,2,43,39)           9.3958         estimate D2E/DX2                !
 ! D21   D(6,2,44,40)         -151.9748         estimate D2E/DX2                !
 ! D22   D(6,2,44,47)            2.7225         estimate D2E/DX2                !
 ! D23   D(43,2,44,40)         -14.1678         estimate D2E/DX2                !
 ! D24   D(43,2,44,47)         140.5295         estimate D2E/DX2                !
 ! D25   D(18,3,7,12)            2.9466         estimate D2E/DX2                !
 ! D26   D(18,3,7,30)          151.1225         estimate D2E/DX2                !
 ! D27   D(26,3,7,12)         -146.196          estimate D2E/DX2                !
 ! D28   D(26,3,7,30)            1.9799         estimate D2E/DX2                !
 ! D29   D(7,3,18,16)            5.327          estimate D2E/DX2                !
 ! D30   D(7,3,18,20)         -145.3657         estimate D2E/DX2                !
 ! D31   D(26,3,18,16)         150.338          estimate D2E/DX2                !
 ! D32   D(26,3,18,20)          -0.3547         estimate D2E/DX2                !
 ! D33   D(7,3,26,24)          148.2008         estimate D2E/DX2                !
 ! D34   D(7,3,26,28)           -2.1843         estimate D2E/DX2                !
 ! D35   D(18,3,26,24)          -1.0545         estimate D2E/DX2                !
 ! D36   D(18,3,26,28)        -151.4396         estimate D2E/DX2                !
 ! D37   D(45,4,8,11)            4.7786         estimate D2E/DX2                !
 ! D38   D(45,4,8,16)         -140.6823         estimate D2E/DX2                !
 ! D39   D(46,4,8,11)          147.9221         estimate D2E/DX2                !
 ! D40   D(46,4,8,16)            2.4613         estimate D2E/DX2                !
 ! D41   D(8,4,45,41)          152.2428         estimate D2E/DX2                !
 ! D42   D(8,4,45,48)           -0.878          estimate D2E/DX2                !
 ! D43   D(46,4,45,41)          14.1302         estimate D2E/DX2                !
 ! D44   D(46,4,45,48)        -138.9907         estimate D2E/DX2                !
 ! D45   D(8,4,46,14)           -1.4506         estimate D2E/DX2                !
 ! D46   D(8,4,46,42)         -151.1515         estimate D2E/DX2                !
 ! D47   D(45,4,46,14)         141.7748         estimate D2E/DX2                !
 ! D48   D(45,4,46,42)          -7.9262         estimate D2E/DX2                !
 ! D49   D(1,5,9,13)             7.7022         estimate D2E/DX2                !
 ! D50   D(1,5,9,35)          -145.9696         estimate D2E/DX2                !
 ! D51   D(29,5,9,13)          152.0863         estimate D2E/DX2                !
 ! D52   D(29,5,9,35)           -1.5855         estimate D2E/DX2                !
 ! D53   D(1,5,29,27)            1.4984         estimate D2E/DX2                !
 ! D54   D(1,5,29,31)          152.4494         estimate D2E/DX2                !
 ! D55   D(9,5,29,27)         -147.2504         estimate D2E/DX2                !
 ! D56   D(9,5,29,31)            3.7006         estimate D2E/DX2                !
 ! D57   D(2,6,10,49)           -9.4824         estimate D2E/DX2                !
 ! D58   D(2,6,10,53)          138.3616         estimate D2E/DX2                !
 ! D59   D(15,6,10,49)        -150.7585         estimate D2E/DX2                !
 ! D60   D(15,6,10,53)          -2.9145         estimate D2E/DX2                !
 ! D61   D(2,6,15,13)            3.0172         estimate D2E/DX2                !
 ! D62   D(2,6,15,17)         -143.0653         estimate D2E/DX2                !
 ! D63   D(10,6,15,13)         148.2594         estimate D2E/DX2                !
 ! D64   D(10,6,15,17)           2.1769         estimate D2E/DX2                !
 ! D65   D(3,7,12,14)           -7.9671         estimate D2E/DX2                !
 ! D66   D(3,7,12,36)          145.1877         estimate D2E/DX2                !
 ! D67   D(30,7,12,14)        -152.0866         estimate D2E/DX2                !
 ! D68   D(30,7,12,36)           1.0682         estimate D2E/DX2                !
 ! D69   D(3,7,30,28)           -1.085          estimate D2E/DX2                !
 ! D70   D(3,7,30,32)         -152.0142         estimate D2E/DX2                !
 ! D71   D(12,7,30,28)         147.2689         estimate D2E/DX2                !
 ! D72   D(12,7,30,32)          -3.6603         estimate D2E/DX2                !
 ! D73   D(4,8,11,50)           -0.4904         estimate D2E/DX2                !
 ! D74   D(4,8,11,54)         -141.7069         estimate D2E/DX2                !
 ! D75   D(16,8,11,50)         141.3674         estimate D2E/DX2                !
 ! D76   D(16,8,11,54)           0.151          estimate D2E/DX2                !
 ! D77   D(4,8,16,14)           -2.5514         estimate D2E/DX2                !
 ! D78   D(4,8,16,18)          143.7775         estimate D2E/DX2                !
 ! D79   D(11,8,16,14)        -147.8283         estimate D2E/DX2                !
 ! D80   D(11,8,16,18)          -1.4995         estimate D2E/DX2                !
 ! D81   D(5,9,13,15)           -4.3936         estimate D2E/DX2                !
 ! D82   D(5,9,13,43)         -148.4251         estimate D2E/DX2                !
 ! D83   D(35,9,13,15)         149.2325         estimate D2E/DX2                !
 ! D84   D(35,9,13,43)           5.2009         estimate D2E/DX2                !
 ! D85   D(5,9,35,33)           -4.1813         estimate D2E/DX2                !
 ! D86   D(5,9,35,37)          149.7498         estimate D2E/DX2                !
 ! D87   D(13,9,35,33)        -156.6997         estimate D2E/DX2                !
 ! D88   D(13,9,35,37)          -2.7685         estimate D2E/DX2                !
 ! D89   D(6,10,49,47)          24.5713         estimate D2E/DX2                !
 ! D90   D(6,10,49,51)         144.7842         estimate D2E/DX2                !
 ! D91   D(6,10,49,91)         -97.6459         estimate D2E/DX2                !
 ! D92   D(53,10,49,47)       -125.5961         estimate D2E/DX2                !
 ! D93   D(53,10,49,51)         -5.3832         estimate D2E/DX2                !
 ! D94   D(53,10,49,91)        112.1867         estimate D2E/DX2                !
 ! D95   D(6,10,53,19)           1.5762         estimate D2E/DX2                !
 ! D96   D(6,10,53,55)        -147.0238         estimate D2E/DX2                !
 ! D97   D(49,10,53,19)        152.607          estimate D2E/DX2                !
 ! D98   D(49,10,53,55)          4.007          estimate D2E/DX2                !
 ! D99   D(8,11,50,48)          -7.8919         estimate D2E/DX2                !
 ! D100  D(8,11,50,52)        -150.3703         estimate D2E/DX2                !
 ! D101  D(54,11,50,48)        136.5978         estimate D2E/DX2                !
 ! D102  D(54,11,50,52)         -5.8807         estimate D2E/DX2                !
 ! D103  D(8,11,54,20)           2.0105         estimate D2E/DX2                !
 ! D104  D(8,11,54,56)         148.4901         estimate D2E/DX2                !
 ! D105  D(50,11,54,20)       -142.9575         estimate D2E/DX2                !
 ! D106  D(50,11,54,56)          3.5221         estimate D2E/DX2                !
 ! D107  D(7,12,14,16)           4.9152         estimate D2E/DX2                !
 ! D108  D(7,12,14,46)         148.9668         estimate D2E/DX2                !
 ! D109  D(36,12,14,16)       -148.3883         estimate D2E/DX2                !
 ! D110  D(36,12,14,46)         -4.3367         estimate D2E/DX2                !
 ! D111  D(7,12,36,34)           4.9681         estimate D2E/DX2                !
 ! D112  D(7,12,36,38)        -149.5108         estimate D2E/DX2                !
 ! D113  D(14,12,36,34)        157.0982         estimate D2E/DX2                !
 ! D114  D(14,12,36,38)          2.6193         estimate D2E/DX2                !
 ! D115  D(9,13,15,6)         -149.4554         estimate D2E/DX2                !
 ! D116  D(9,13,15,17)          -3.9097         estimate D2E/DX2                !
 ! D117  D(43,13,15,6)          -1.6239         estimate D2E/DX2                !
 ! D118  D(43,13,15,17)        143.9218         estimate D2E/DX2                !
 ! D119  D(9,13,43,2)          148.0865         estimate D2E/DX2                !
 ! D120  D(9,13,43,39)          -2.4303         estimate D2E/DX2                !
 ! D121  D(15,13,43,2)          -0.3872         estimate D2E/DX2                !
 ! D122  D(15,13,43,39)       -150.904          estimate D2E/DX2                !
 ! D123  D(12,14,16,8)         149.3355         estimate D2E/DX2                !
 ! D124  D(12,14,16,18)          3.399          estimate D2E/DX2                !
 ! D125  D(46,14,16,8)           1.5808         estimate D2E/DX2                !
 ! D126  D(46,14,16,18)       -144.3557         estimate D2E/DX2                !
 ! D127  D(12,14,46,4)        -148.6577         estimate D2E/DX2                !
 ! D128  D(12,14,46,42)          1.9882         estimate D2E/DX2                !
 ! D129  D(16,14,46,4)          -0.1004         estimate D2E/DX2                !
 ! D130  D(16,14,46,42)        150.5455         estimate D2E/DX2                !
 ! D131  D(6,15,17,1)          149.6198         estimate D2E/DX2                !
 ! D132  D(6,15,17,19)          -0.0094         estimate D2E/DX2                !
 ! D133  D(13,15,17,1)           8.6365         estimate D2E/DX2                !
 ! D134  D(13,15,17,19)       -140.9928         estimate D2E/DX2                !
 ! D135  D(8,16,18,3)         -149.8351         estimate D2E/DX2                !
 ! D136  D(8,16,18,20)           0.6989         estimate D2E/DX2                !
 ! D137  D(14,16,18,3)          -8.4107         estimate D2E/DX2                !
 ! D138  D(14,16,18,20)        142.1233         estimate D2E/DX2                !
 ! D139  D(1,17,19,21)          -0.6108         estimate D2E/DX2                !
 ! D140  D(1,17,19,53)        -150.0723         estimate D2E/DX2                !
 ! D141  D(15,17,19,21)        148.1679         estimate D2E/DX2                !
 ! D142  D(15,17,19,53)         -1.2935         estimate D2E/DX2                !
 ! D143  D(3,18,20,22)           1.2383         estimate D2E/DX2                !
 ! D144  D(3,18,20,54)         151.074          estimate D2E/DX2                !
 ! D145  D(16,18,20,22)       -148.409          estimate D2E/DX2                !
 ! D146  D(16,18,20,54)          1.4267         estimate D2E/DX2                !
 ! D147  D(17,19,21,23)          0.7684         estimate D2E/DX2                !
 ! D148  D(17,19,21,57)       -144.4165         estimate D2E/DX2                !
 ! D149  D(53,19,21,23)        151.1059         estimate D2E/DX2                !
 ! D150  D(53,19,21,57)          5.921          estimate D2E/DX2                !
 ! D151  D(17,19,53,10)          0.5578         estimate D2E/DX2                !
 ! D152  D(17,19,53,55)        144.8914         estimate D2E/DX2                !
 ! D153  D(21,19,53,10)       -149.608          estimate D2E/DX2                !
 ! D154  D(21,19,53,55)         -5.2745         estimate D2E/DX2                !
 ! D155  D(18,20,22,24)         -0.8101         estimate D2E/DX2                !
 ! D156  D(18,20,22,58)        144.393          estimate D2E/DX2                !
 ! D157  D(54,20,22,24)       -151.6942         estimate D2E/DX2                !
 ! D158  D(54,20,22,58)         -6.4911         estimate D2E/DX2                !
 ! D159  D(18,20,54,11)         -2.7965         estimate D2E/DX2                !
 ! D160  D(18,20,54,56)       -144.4668         estimate D2E/DX2                !
 ! D161  D(22,20,54,11)        147.6219         estimate D2E/DX2                !
 ! D162  D(22,20,54,56)          5.9516         estimate D2E/DX2                !
 ! D163  D(19,21,23,25)         -0.009          estimate D2E/DX2                !
 ! D164  D(19,21,23,61)       -150.1742         estimate D2E/DX2                !
 ! D165  D(57,21,23,25)        149.3035         estimate D2E/DX2                !
 ! D166  D(57,21,23,61)         -0.8617         estimate D2E/DX2                !
 ! D167  D(19,21,57,59)        148.8385         estimate D2E/DX2                !
 ! D168  D(19,21,57,83)         -0.696          estimate D2E/DX2                !
 ! D169  D(23,21,57,59)         -0.4256         estimate D2E/DX2                !
 ! D170  D(23,21,57,83)       -149.9601         estimate D2E/DX2                !
 ! D171  D(20,22,24,26)         -0.5883         estimate D2E/DX2                !
 ! D172  D(20,22,24,62)        150.0189         estimate D2E/DX2                !
 ! D173  D(58,22,24,26)       -149.9382         estimate D2E/DX2                !
 ! D174  D(58,22,24,62)          0.6689         estimate D2E/DX2                !
 ! D175  D(20,22,58,60)       -148.2739         estimate D2E/DX2                !
 ! D176  D(20,22,58,84)          0.5463         estimate D2E/DX2                !
 ! D177  D(24,22,58,60)          1.0341         estimate D2E/DX2                !
 ! D178  D(24,22,58,84)        149.8543         estimate D2E/DX2                !
 ! D179  D(21,23,25,1)          -0.8917         estimate D2E/DX2                !
 ! D180  D(21,23,25,27)       -148.5008         estimate D2E/DX2                !
 ! D181  D(61,23,25,1)         146.2392         estimate D2E/DX2                !
 ! D182  D(61,23,25,27)         -1.37           estimate D2E/DX2                !
 ! D183  D(21,23,61,59)          1.6749         estimate D2E/DX2                !
 ! D184  D(21,23,61,63)        117.6311         estimate D2E/DX2                !
 ! D185  D(21,23,61,89)       -120.4684         estimate D2E/DX2                !
 ! D186  D(25,23,61,59)       -147.9854         estimate D2E/DX2                !
 ! D187  D(25,23,61,63)        -32.0291         estimate D2E/DX2                !
 ! D188  D(25,23,61,89)         89.8714         estimate D2E/DX2                !
 ! D189  D(22,24,26,3)           1.5089         estimate D2E/DX2                !
 ! D190  D(22,24,26,28)        148.8096         estimate D2E/DX2                !
 ! D191  D(62,24,26,3)        -146.1011         estimate D2E/DX2                !
 ! D192  D(62,24,26,28)          1.1995         estimate D2E/DX2                !
 ! D193  D(22,24,62,60)         -1.944          estimate D2E/DX2                !
 ! D194  D(22,24,62,64)       -117.8848         estimate D2E/DX2                !
 ! D195  D(22,24,62,90)        120.0806         estimate D2E/DX2                !
 ! D196  D(26,24,62,60)        148.2539         estimate D2E/DX2                !
 ! D197  D(26,24,62,64)         32.3131         estimate D2E/DX2                !
 ! D198  D(26,24,62,90)        -89.7216         estimate D2E/DX2                !
 ! D199  D(1,25,27,29)          -1.8468         estimate D2E/DX2                !
 ! D200  D(1,25,27,65)        -116.6484         estimate D2E/DX2                !
 ! D201  D(1,25,27,85)         120.8622         estimate D2E/DX2                !
 ! D202  D(23,25,27,29)        148.3009         estimate D2E/DX2                !
 ! D203  D(23,25,27,65)         33.4992         estimate D2E/DX2                !
 ! D204  D(23,25,27,85)        -88.9902         estimate D2E/DX2                !
 ! D205  D(3,26,28,30)           1.4435         estimate D2E/DX2                !
 ! D206  D(3,26,28,66)         116.2432         estimate D2E/DX2                !
 ! D207  D(3,26,28,88)        -121.282          estimate D2E/DX2                !
 ! D208  D(24,26,28,30)       -148.3624         estimate D2E/DX2                !
 ! D209  D(24,26,28,66)        -33.5628         estimate D2E/DX2                !
 ! D210  D(24,26,28,88)         88.912          estimate D2E/DX2                !
 ! D211  D(25,27,29,5)           0.1882         estimate D2E/DX2                !
 ! D212  D(25,27,29,31)       -149.9575         estimate D2E/DX2                !
 ! D213  D(65,27,29,5)         115.7661         estimate D2E/DX2                !
 ! D214  D(65,27,29,31)        -34.3797         estimate D2E/DX2                !
 ! D215  D(85,27,29,5)        -122.0303         estimate D2E/DX2                !
 ! D216  D(85,27,29,31)         87.824          estimate D2E/DX2                !
 ! D217  D(25,27,65,63)        -31.4808         estimate D2E/DX2                !
 ! D218  D(25,27,65,67)        142.5954         estimate D2E/DX2                !
 ! D219  D(29,27,65,63)       -140.984          estimate D2E/DX2                !
 ! D220  D(29,27,65,67)         33.0921         estimate D2E/DX2                !
 ! D221  D(85,27,65,63)         93.6749         estimate D2E/DX2                !
 ! D222  D(85,27,65,67)        -92.249          estimate D2E/DX2                !
 ! D223  D(26,28,30,7)          -0.2031         estimate D2E/DX2                !
 ! D224  D(26,28,30,32)        149.9052         estimate D2E/DX2                !
 ! D225  D(66,28,30,7)        -115.7137         estimate D2E/DX2                !
 ! D226  D(66,28,30,32)         34.3947         estimate D2E/DX2                !
 ! D227  D(88,28,30,7)         122.1302         estimate D2E/DX2                !
 ! D228  D(88,28,30,32)        -87.7614         estimate D2E/DX2                !
 ! D229  D(26,28,66,64)         31.6486         estimate D2E/DX2                !
 ! D230  D(26,28,66,68)       -142.3908         estimate D2E/DX2                !
 ! D231  D(30,28,66,64)        141.1527         estimate D2E/DX2                !
 ! D232  D(30,28,66,68)        -32.8867         estimate D2E/DX2                !
 ! D233  D(88,28,66,64)        -93.565          estimate D2E/DX2                !
 ! D234  D(88,28,66,68)         92.3956         estimate D2E/DX2                !
 ! D235  D(5,29,31,33)           0.1667         estimate D2E/DX2                !
 ! D236  D(5,29,31,69)        -148.0772         estimate D2E/DX2                !
 ! D237  D(27,29,31,33)        148.0552         estimate D2E/DX2                !
 ! D238  D(27,29,31,69)         -0.1887         estimate D2E/DX2                !
 ! D239  D(7,30,32,34)          -0.0463         estimate D2E/DX2                !
 ! D240  D(7,30,32,70)         147.7776         estimate D2E/DX2                !
 ! D241  D(28,30,32,34)       -147.8835         estimate D2E/DX2                !
 ! D242  D(28,30,32,70)         -0.0596         estimate D2E/DX2                !
 ! D243  D(29,31,33,35)         -6.3719         estimate D2E/DX2                !
 ! D244  D(29,31,33,73)       -155.3958         estimate D2E/DX2                !
 ! D245  D(69,31,33,35)        144.5911         estimate D2E/DX2                !
 ! D246  D(69,31,33,73)         -4.4328         estimate D2E/DX2                !
 ! D247  D(29,31,69,67)         35.1108         estimate D2E/DX2                !
 ! D248  D(29,31,69,71)        151.5106         estimate D2E/DX2                !
 ! D249  D(29,31,69,86)        -86.1747         estimate D2E/DX2                !
 ! D250  D(33,31,69,67)       -115.5383         estimate D2E/DX2                !
 ! D251  D(33,31,69,71)          0.8616         estimate D2E/DX2                !
 ! D252  D(33,31,69,86)        123.1763         estimate D2E/DX2                !
 ! D253  D(30,32,34,36)          6.5617         estimate D2E/DX2                !
 ! D254  D(30,32,34,74)        155.1687         estimate D2E/DX2                !
 ! D255  D(70,32,34,36)       -144.0661         estimate D2E/DX2                !
 ! D256  D(70,32,34,74)          4.5409         estimate D2E/DX2                !
 ! D257  D(30,32,70,68)        -34.8422         estimate D2E/DX2                !
 ! D258  D(30,32,70,72)       -151.1736         estimate D2E/DX2                !
 ! D259  D(30,32,70,87)         86.4261         estimate D2E/DX2                !
 ! D260  D(34,32,70,68)        115.4694         estimate D2E/DX2                !
 ! D261  D(34,32,70,72)         -0.862          estimate D2E/DX2                !
 ! D262  D(34,32,70,87)       -123.2622         estimate D2E/DX2                !
 ! D263  D(31,33,35,9)           8.2032         estimate D2E/DX2                !
 ! D264  D(31,33,35,37)       -146.0927         estimate D2E/DX2                !
 ! D265  D(73,33,35,9)         152.6514         estimate D2E/DX2                !
 ! D266  D(73,33,35,37)         -1.6446         estimate D2E/DX2                !
 ! D267  D(31,33,73,71)          6.3493         estimate D2E/DX2                !
 ! D268  D(31,33,73,75)        152.431          estimate D2E/DX2                !
 ! D269  D(35,33,73,71)       -142.8233         estimate D2E/DX2                !
 ! D270  D(35,33,73,75)          3.2584         estimate D2E/DX2                !
 ! D271  D(32,34,36,12)         -8.8416         estimate D2E/DX2                !
 ! D272  D(32,34,36,38)        145.899          estimate D2E/DX2                !
 ! D273  D(74,34,36,12)       -153.0063         estimate D2E/DX2                !
 ! D274  D(74,34,36,38)          1.7344         estimate D2E/DX2                !
 ! D275  D(32,34,74,72)         -6.5197         estimate D2E/DX2                !
 ! D276  D(32,34,74,76)       -152.5387         estimate D2E/DX2                !
 ! D277  D(36,34,74,72)        142.3299         estimate D2E/DX2                !
 ! D278  D(36,34,74,76)         -3.6891         estimate D2E/DX2                !
 ! D279  D(9,35,37,39)          -2.3857         estimate D2E/DX2                !
 ! D280  D(9,35,37,77)        -154.8904         estimate D2E/DX2                !
 ! D281  D(33,35,37,39)        151.0212         estimate D2E/DX2                !
 ! D282  D(33,35,37,77)         -1.4835         estimate D2E/DX2                !
 ! D283  D(12,36,38,42)          1.3931         estimate D2E/DX2                !
 ! D284  D(12,36,38,78)        156.6169         estimate D2E/DX2                !
 ! D285  D(34,36,38,42)       -152.4693         estimate D2E/DX2                !
 ! D286  D(34,36,38,78)          2.7546         estimate D2E/DX2                !
 ! D287  D(35,37,39,43)          5.1613         estimate D2E/DX2                !
 ! D288  D(35,37,39,79)       -147.0248         estimate D2E/DX2                !
 ! D289  D(77,37,39,43)        158.07           estimate D2E/DX2                !
 ! D290  D(77,37,39,79)          5.884          estimate D2E/DX2                !
 ! D291  D(35,37,77,75)          3.0738         estimate D2E/DX2                !
 ! D292  D(35,37,77,81)        144.1923         estimate D2E/DX2                !
 ! D293  D(39,37,77,75)       -150.1154         estimate D2E/DX2                !
 ! D294  D(39,37,77,81)         -8.997          estimate D2E/DX2                !
 ! D295  D(36,38,42,46)         -3.7934         estimate D2E/DX2                !
 ! D296  D(36,38,42,80)        159.113          estimate D2E/DX2                !
 ! D297  D(78,38,42,46)       -159.0575         estimate D2E/DX2                !
 ! D298  D(78,38,42,80)          3.849          estimate D2E/DX2                !
 ! D299  D(36,38,78,76)         -5.3871         estimate D2E/DX2                !
 ! D300  D(36,38,78,81)       -143.4871         estimate D2E/DX2                !
 ! D301  D(42,38,78,76)        150.0678         estimate D2E/DX2                !
 ! D302  D(42,38,78,81)         11.9678         estimate D2E/DX2                !
 ! D303  D(37,39,43,2)        -148.9647         estimate D2E/DX2                !
 ! D304  D(37,39,43,13)         -2.8236         estimate D2E/DX2                !
 ! D305  D(79,39,43,2)           4.5012         estimate D2E/DX2                !
 ! D306  D(79,39,43,13)        150.6423         estimate D2E/DX2                !
 ! D307  D(37,39,79,40)        140.9825         estimate D2E/DX2                !
 ! D308  D(37,39,79,82)         -1.7254         estimate D2E/DX2                !
 ! D309  D(43,39,79,40)        -12.5771         estimate D2E/DX2                !
 ! D310  D(43,39,79,82)       -155.2849         estimate D2E/DX2                !
 ! D311  D(44,40,41,45)         -4.8542         estimate D2E/DX2                !
 ! D312  D(44,40,41,80)       -159.4971         estimate D2E/DX2                !
[...]
 Alpha virt. eigenvalues --    1.27429   1.27725   1.27883   1.28308   1.28554
 Alpha virt. eigenvalues --    1.28556   1.29104   1.29516   1.29800   1.30029
 Alpha virt. eigenvalues --    1.30119   1.30499   1.30653   1.30921   1.31335
 Alpha virt. eigenvalues --    1.31703   1.31931   1.31992   1.32147   1.32771
 Alpha virt. eigenvalues --    1.32933   1.33296   1.33903   1.34008   1.34716
 Alpha virt. eigenvalues --    1.34981   1.35608   1.35917   1.36494   1.36693
 Alpha virt. eigenvalues --    1.37091   1.37745   1.38176   1.38789   1.38902
 Alpha virt. eigenvalues --    1.39884   1.40596   1.40731   1.41492   1.41593
 Alpha virt. eigenvalues --    1.42653   1.42782   1.44014   1.44283   1.45194
 Alpha virt. eigenvalues --    1.45331   1.45610   1.46290   1.46698   1.47284
 Alpha virt. eigenvalues --    1.47937   1.48020   1.48298   1.48965   1.49748
 Alpha virt. eigenvalues --    1.50279   1.50624   1.51203   1.51772   1.51985
 Alpha virt. eigenvalues --    1.52475   1.53370   1.54020   1.54261   1.54489
 Alpha virt. eigenvalues --    1.55029   1.55830   1.55984   1.56328   1.57134
 Alpha virt. eigenvalues --    1.57411   1.58058   1.58129   1.58905   1.59415
 Alpha virt. eigenvalues --    1.59821   1.60345   1.60919   1.61051   1.62681
 Alpha virt. eigenvalues --    1.63025   1.63334   1.63417   1.63726   1.64047
 Alpha virt. eigenvalues --    1.64669   1.64840   1.64891   1.65107   1.65386
 Alpha virt. eigenvalues --    1.65686   1.65736   1.66093   1.66349   1.66616
 Alpha virt. eigenvalues --    1.66855   1.67030   1.67329   1.67643   1.67917
 Alpha virt. eigenvalues --    1.68168   1.68252   1.68482   1.68656   1.69032
 Alpha virt. eigenvalues --    1.69062   1.69274   1.69547   1.69704   1.69798
 Alpha virt. eigenvalues --    1.70149   1.70669   1.70746   1.71093   1.71215
 Alpha virt. eigenvalues --    1.71351   1.71651   1.71691   1.72074   1.72377
 Alpha virt. eigenvalues --    1.72773   1.72946   1.73375   1.73581   1.73794
 Alpha virt. eigenvalues --    1.73970   1.74344   1.74508   1.74872   1.75308
 Alpha virt. eigenvalues --    1.75527   1.75769   1.75892   1.76078   1.76326
 Alpha virt. eigenvalues --    1.76577   1.76619   1.76867   1.77295   1.77462
 Alpha virt. eigenvalues --    1.77837   1.78115   1.78335   1.78440   1.78694
 Alpha virt. eigenvalues --    1.79097   1.79239   1.79359   1.79615   1.79886
 Alpha virt. eigenvalues --    1.80131   1.80353   1.80595   1.80711   1.80896
 Alpha virt. eigenvalues --    1.81777   1.81970   1.82126   1.82564   1.82925
 Alpha virt. eigenvalues --    1.83192   1.83535   1.83822   1.84146   1.84180
 Alpha virt. eigenvalues --    1.84640   1.85206   1.85697   1.86181   1.86632
 Alpha virt. eigenvalues --    1.87300   1.87691   1.87940   1.87977   1.88388
 Alpha virt. eigenvalues --    1.88679   1.88788   1.89607   1.89884   1.90371
 Alpha virt. eigenvalues --    1.91042   1.91451   1.91717   1.91846   1.92276
 Alpha virt. eigenvalues --    1.92618   1.92953   1.93139   1.93747   1.94118
 Alpha virt. eigenvalues --    1.94364   1.94862   1.95017   1.95398   1.95622
 Alpha virt. eigenvalues --    1.96169   1.96247   1.96566   1.97239   1.97367
 Alpha virt. eigenvalues --    1.97648   1.97960   1.98354   1.98519   1.98888
 Alpha virt. eigenvalues --    1.99210   1.99572   1.99740   1.99891   2.00088
 Alpha virt. eigenvalues --    2.00195   2.00585   2.00698   2.00966   2.01140
 Alpha virt. eigenvalues --    2.01542   2.01943   2.02345   2.02508   2.02774
 Alpha virt. eigenvalues --    2.02885   2.03154   2.03837   2.04013   2.04313
 Alpha virt. eigenvalues --    2.04509   2.04779   2.05130   2.05286   2.06148
 Alpha virt. eigenvalues --    2.06373   2.06833   2.07199   2.07417   2.08133
 Alpha virt. eigenvalues --    2.08623   2.08672   2.09198   2.09532   2.09781
 Alpha virt. eigenvalues --    2.10080   2.10481   2.10779   2.10930   2.11109
 Alpha virt. eigenvalues --    2.11768   2.12229   2.12512   2.12896   2.13020
 Alpha virt. eigenvalues --    2.13864   2.14053   2.14396   2.15623   2.16668
 Alpha virt. eigenvalues --    2.16706   2.17171   2.17744   2.17875   2.18347
 Alpha virt. eigenvalues --    2.18777   2.18789   2.19112   2.19866   2.20078
 Alpha virt. eigenvalues --    2.20373   2.20490   2.21025   2.21245   2.21969
 Alpha virt. eigenvalues --    2.22417   2.22694   2.22808   2.23890   2.24384
 Alpha virt. eigenvalues --    2.24675   2.24788   2.25130   2.26026   2.26063
 Alpha virt. eigenvalues --    2.26502   2.26731   2.27513   2.27827   2.27999
 Alpha virt. eigenvalues --    2.28361   2.28467   2.28970   2.29393   2.29814
 Alpha virt. eigenvalues --    2.30232   2.30590   2.31089   2.31699   2.32261
 Alpha virt. eigenvalues --    2.32734   2.32988   2.33466   2.33691   2.34327
 Alpha virt. eigenvalues --    2.35323   2.35985   2.36349   2.37093   2.37443
 Alpha virt. eigenvalues --    2.37960   2.38767   2.39291   2.39554   2.40285
 Alpha virt. eigenvalues --    2.40324   2.40641   2.41345   2.41875   2.42260
 Alpha virt. eigenvalues --    2.42810   2.43013   2.43139   2.43477   2.44065
 Alpha virt. eigenvalues --    2.44559   2.45215   2.45772   2.47244   2.47572
 Alpha virt. eigenvalues --    2.47859   2.48471   2.48592   2.49085   2.49834
 Alpha virt. eigenvalues --    2.50273   2.50902   2.51323   2.51587   2.52353
 Alpha virt. eigenvalues --    2.52432   2.53537   2.53600   2.53748   2.54258
 Alpha virt. eigenvalues --    2.54653   2.55144   2.55338   2.55370   2.55926
 Alpha virt. eigenvalues --    2.56511   2.56644   2.57319   2.57438   2.57567
 Alpha virt. eigenvalues --    2.57688   2.58188   2.58348   2.58519   2.58879
 Alpha virt. eigenvalues --    2.59556   2.59622   2.60079   2.60325   2.60724
 Alpha virt. eigenvalues --    2.61157   2.61605   2.62110   2.62392   2.62556
 Alpha virt. eigenvalues --    2.62741   2.63275   2.63834   2.64236   2.64364
 Alpha virt. eigenvalues --    2.64653   2.64793   2.65333   2.65808   2.66097
 Alpha virt. eigenvalues --    2.66551   2.66700   2.66969   2.67677   2.67825
 Alpha virt. eigenvalues --    2.68150   2.68743   2.69053   2.69236   2.69530
 Alpha virt. eigenvalues --    2.70032   2.70142   2.70715   2.71467   2.71787
 Alpha virt. eigenvalues --    2.72016   2.72126   2.72257   2.72988   2.73388
 Alpha virt. eigenvalues --    2.73942   2.74321   2.74825   2.75267   2.75792
 Alpha virt. eigenvalues --    2.76000   2.76235   2.76436   2.76939   2.77120
 Alpha virt. eigenvalues --    2.77664   2.78281   2.78791   2.79009   2.79080
 Alpha virt. eigenvalues --    2.79906   2.80614   2.80805   2.81245   2.81533
 Alpha virt. eigenvalues --    2.81944   2.82743   2.82982   2.83817   2.84276
 Alpha virt. eigenvalues --    2.84766   2.85554   2.86318   2.86723   2.86926
 Alpha virt. eigenvalues --    2.87548   2.88065   2.88126   2.88628   2.89366
 Alpha virt. eigenvalues --    2.89922   2.90462   2.90874   2.90992   2.91331
 Alpha virt. eigenvalues --    2.91878   2.92053   2.92212   2.92518   2.93209
 Alpha virt. eigenvalues --    2.93388   2.94127   2.94315   2.95020   2.95674
 Alpha virt. eigenvalues --    2.96925   2.97264   2.98667   2.99389   3.00614
 Alpha virt. eigenvalues --    3.00909   3.01267   3.02316   3.04398   3.05463
 Alpha virt. eigenvalues --    3.06114   3.07058   3.08389   3.09355   3.11359
 Alpha virt. eigenvalues --    3.12151   3.15709   3.16532   3.17352   3.17889
 Alpha virt. eigenvalues --    3.20330   3.20580   3.21405   3.22683   3.23739
 Alpha virt. eigenvalues --    3.24388   3.26902   3.29178   3.30485   3.32134
 Alpha virt. eigenvalues --    3.32902   3.35013   3.36888   3.37841   3.39041
 Alpha virt. eigenvalues --    3.39699   3.44241   3.44831   3.45883   3.48956
 Alpha virt. eigenvalues --    3.50616   3.51663   3.55307   3.57565   3.68265
 Alpha virt. eigenvalues --    4.01102   4.01627   4.02141   4.02347   4.02834
 Alpha virt. eigenvalues --    4.03323   4.03762   4.04809   4.05388   4.05515
 Alpha virt. eigenvalues --    4.06903   4.07745   4.08109   4.08263   4.09088
 Alpha virt. eigenvalues --    4.09292   4.10127   4.10364   4.11039   4.11688
 Alpha virt. eigenvalues --    4.12373   4.13822   4.15554   4.16198   4.16530
 Alpha virt. eigenvalues --    4.16960   4.18001   4.18646   4.19652   4.20106
 Alpha virt. eigenvalues --    4.20816   4.22089   4.22803   4.23449   4.23856
 Alpha virt. eigenvalues --    4.24715   4.25717   4.26841   4.27357   4.27649
 Alpha virt. eigenvalues --    4.28096   4.28190   4.28961   4.29610   4.30908
 Alpha virt. eigenvalues --    4.31781   4.33865   4.34286   4.34900   4.36814
 Alpha virt. eigenvalues --    4.37348   4.38697   4.39769   4.40934   4.41356
 Alpha virt. eigenvalues --    4.41978   4.43836   4.45763   4.47282   4.48077
 Alpha virt. eigenvalues --    4.48294   4.49159   4.51009   4.52883   4.53455
 Alpha virt. eigenvalues --    4.57550   4.58312   4.59176   4.60150   4.62243
 Alpha virt. eigenvalues --    4.63046   4.63742   4.65683   4.66901   4.69085
 Alpha virt. eigenvalues --    4.74050   4.78513   4.80016   4.80669   4.83052
 Alpha virt. eigenvalues --    4.85829   4.88322   4.89456   4.92356   4.96046
 Alpha virt. eigenvalues --    5.00153   5.05943   5.08367   5.09209   5.15233
 Alpha virt. eigenvalues --    5.17322   5.29148
          Condensed to atoms (all electrons):
 Mulliken charges:
               1
     1  C    0.004947
     2  C   -0.044357
     3  C    0.004290
     4  C   -0.035224
     5  C    0.006563
     6  C   -0.001978
     7  C    0.007689
     8  C   -0.008972
     9  C    0.047946
    10  C    0.085504
    11  C   -0.002888
    12  C    0.047089
    13  C   -0.028651
    14  C   -0.027447
    15  C   -0.021603
    16  C   -0.019219
    17  C    0.049863
    18  C    0.047904
    19  C    0.038475
    20  C    0.049756
    21  C    0.012575
    22  C    0.006436
    23  C    0.084243
    24  C    0.087224
    25  C    0.089423
    26  C    0.086095
    27  C   -0.375822
    28  C   -0.374958
    29  C    0.086842
    30  C    0.086449
    31  C    0.086284
    32  C    0.086899
    33  C    0.000932
    34  C    0.004955
    35  C    0.034975
    36  C    0.029854
    37  C    0.048640
    38  C    0.078128
    39  C    0.044444
    40  C    0.009443
    41  C    0.052092
    42  C    0.100523
    43  C   -0.021331
    44  C    0.085495
    45  C    0.063769
    46  C    0.006922
    47  C    0.070309
    48  C    0.076040
    49  C   -0.341112
    50  C   -0.041019
    51  C    0.079232
    52  C    0.004509
    53  C    0.010246
    54  C   -0.020551
    55  C    0.011242
    56  C   -0.017517
    57  C    0.011587
    58  C    0.006347
    59  C    0.085678
    60  C    0.089736
    61  C   -0.374539
    62  C   -0.374632
    63  C    0.125984
    64  C    0.125156
    65  C    0.128933
    66  C    0.129932
    67  C    0.125526
    68  C    0.124268
    69  C   -0.372251
    70  C   -0.371729
    71  C    0.089574
    72  C    0.091607
    73  C    0.025807
    74  C    0.026893
    75  C   -0.015270
    76  C   -0.013141
    77  C   -0.022294
    78  C   -0.041724
    79  C    0.004914
    80  C   -0.353642
    81  C    0.006550
    82  C    0.077961
    83  C    0.040608
    84  C    0.048567
    85  Cl   0.018990
    86  Cl   0.013421
    87  Cl   0.013877
    88  Cl   0.017158
    89  Cl   0.014795
    90  Cl   0.017486
    91  Cl  -0.036271
    92  Cl  -0.017460
 Sum of Mulliken charges =  -0.00000
 Mulliken charges with hydrogens summed into heavy atoms:
               1
     1  C    0.004947
     2  C   -0.044357
     3  C    0.004290
     4  C   -0.035224
     5  C    0.006563
     6  C   -0.001978
     7  C    0.007689
     8  C   -0.008972
     9  C    0.047946
    10  C    0.085504
    11  C   -0.002888
    12  C    0.047089
    13  C   -0.028651
    14  C   -0.027447
    15  C   -0.021603
    16  C   -0.019219
    17  C    0.049863
    18  C    0.047904
    19  C    0.038475
    20  C    0.049756
    21  C    0.012575
    22  C    0.006436
    23  C    0.084243
    24  C    0.087224
    25  C    0.089423
    26  C    0.086095
    27  C   -0.375822
    28  C   -0.374958
    29  C    0.086842
    30  C    0.086449
    31  C    0.086284
    32  C    0.086899
    33  C    0.000932
    34  C    0.004955
    35  C    0.034975
    36  C    0.029854
    37  C    0.048640
    38  C    0.078128
    39  C    0.044444
    40  C    0.009443
    41  C    0.052092
    42  C    0.100523
    43  C   -0.021331
    44  C    0.085495
    45  C    0.063769
    46  C    0.006922
    47  C    0.070309
    48  C    0.076040
    49  C   -0.341112
    50  C   -0.041019
    51  C    0.079232
    52  C    0.004509
    53  C    0.010246
    54  C   -0.020551
    55  C    0.011242
    56  C   -0.017517
    57  C    0.011587
    58  C    0.006347
    59  C    0.085678
    60  C    0.089736
    61  C   -0.374539
    62  C   -0.374632
    63  C    0.125984
    64  C    0.125156
    65  C    0.128933
    66  C    0.129932
    67  C    0.125526
    68  C    0.124268
    69  C   -0.372251
    70  C   -0.371729
    71  C    0.089574
    72  C    0.091607
    73  C    0.025807
    74  C    0.026893
    75  C   -0.015270
    76  C   -0.013141
    77  C   -0.022294
    78  C   -0.041724
    79  C    0.004914
    80  C   -0.353642
    81  C    0.006550
    82  C    0.077961
    83  C    0.040608
    84  C    0.048567
    85  Cl   0.018990
    86  Cl   0.013421
    87  Cl   0.013877
    88  Cl   0.017158
    89  Cl   0.014795
    90  Cl   0.017486
    91  Cl  -0.036271
    92  Cl  -0.017460
 Electronic spatial extent (au):  <R**2>=          51503.8640
 Charge=             -0.0000 electrons
 Dipole moment (field-independent basis, Debye):
    X=              3.3472    Y=              0.2134    Z=             -0.0464  Tot=              3.3544
 Quadrupole moment (field-independent basis, Debye-Ang):
   XX=           -608.5249   YY=           -563.6646   ZZ=           -554.9065
   XY=             -1.3278   XZ=              1.1265   YZ=             -2.2866
 Traceless Quadrupole moment (field-independent basis, Debye-Ang):
   XX=            -32.8262   YY=             12.0341   ZZ=             20.7922
   XY=             -1.3278   XZ=              1.1265   YZ=             -2.2866
 Octapole moment (field-independent basis, Debye-Ang**2):
  XXX=           -112.5764  YYY=            -17.1181  ZZZ=              3.4687  XYY=            -54.5769
  XXY=             10.0767  XXZ=              4.6495  XZZ=             15.5434  YZZ=              0.8451
  YYZ=             -1.1490  XYZ=            -10.2725
 Hexadecapole moment (field-independent basis, Debye-Ang**3):
 XXXX=         -30777.0548 YYYY=         -23445.8776 ZZZZ=         -19927.7737 XXXY=            196.4647
 XXXZ=             -7.0397 YYYX=            -41.5169 YYYZ=             15.7229 ZZZX=             -0.4286
 ZZZY=             25.7411 XXYY=          -9412.6900 XXZZ=          -8484.2385 YYZZ=          -7208.3090
 XXYZ=            -46.8787 YYXZ=              5.5655 ZZXY=             11.5676
 N-N= 2.052189409200D+04 E-N=-5.719287928082D+04  KE= 6.841408904986D+03
 No NMR shielding tensors so no spin-rotation constants.
 Leave Link  601 at Tue Jun 28 00:24:14 2022, MaxMem=  1342177280 cpu:              24.3 elap:               1.2
 (Enter /home/mkliu/g16/l9999.exe)
 1\1\GINC-NODE02\FOpt\RB3LYP\6-31G(d,p)\C84Cl8\MKLIU\28-Jun-2022\0\\#P 
 opt b3lyp/6-31G(d, p) empiricaldispersion=GD3\\force\\0,1\C,8.28141129
 25,18.8953196868,10.5422903851\C,12.3323886639,20.152078181,8.96065956
 84\C,8.2875682973,26.8465250086,10.5309074175\C,12.34058784,25.5962562
 424,8.9547557886\C,7.9677933493,18.945177643,9.1462830656\C,11.8994149
 557,19.5692819038,10.2123275165\C,7.9584825334,26.8056708806,9.1413121
 109\C,11.9060800587,26.1526848032,10.1702892989\C,8.9804918467,19.1004
 910455,8.1557197312\C,12.1688609953,20.1929861623,11.3974148472\C,12.1
 838995508,25.5033938514,11.3791716254\C,8.9651803358,26.6531682521,8.1
 421594173\C,10.317703318,19.0265675133,8.6226465516\C,10.3005730244,26
 .7218468978,8.5995226912\C,10.6296848738,18.908324263,10.0044716153\C,
 10.6297819378,26.8188595132,9.9756725876\C,9.6237785539,18.9376285539,
 11.0050602581\C,9.6304912467,26.7930452182,10.9849156915\C,9.895055412
 9,19.6334926053,12.2481155802\C,9.9093892705,26.1030815039,12.24085533
 32\C,8.8071455845,20.2469914206,12.925934717\C,8.8156092903,25.5009360
 528,12.9210439093\C,7.4710822308,20.1751402981,12.4255215051\C,7.47572
 3028,25.5741128903,12.4156361215\C,7.2168407406,19.5100981785,11.26818
 29257\C,7.2163279719,26.238243264,11.2649873654\C,6.102301827,19.93366
 67285,10.3359789768\C,6.0983306357,25.8165189445,10.3366600654\C,6.677
 990968,19.5345516864,8.9955992601\C,6.6681380018,26.2172677592,8.99461
 66637\C,6.3747016125,20.2002590558,7.8583825025\C,6.3598245082,25.5533
 161977,7.8562969609\C,7.3456183852,20.3143045032,6.8094760839\C,7.3273
 497279,25.4384695754,6.8050005283\C,8.6784187221,19.8527734738,6.95146
 49919\C,8.6656411038,25.8976316414,6.9464023147\C,9.7475633781,20.5880
 072745,6.2665536698\C,9.7345993002,25.1656054737,6.265204015\C,11.0815
 370655,20.5903364403,6.8394487319\C,12.7587150384,22.2019370118,7.7566
 491109\C,12.8295975154,23.5934388858,7.7321410103\C,11.0711052859,25.1
 928581148,6.8319290835\C,11.3678798453,19.7926662809,7.9840141454\C,12
 .939275129,21.4503608927,8.9623399113\C,12.9773608593,24.3214164798,8.
 9228217784\C,11.3393778198,25.9573818539,7.9415088411\C,13.2041538189,
 22.1553431095,10.1685990031\C,13.1989351611,23.5860707377,10.176841112
 8\C,13.1023867612,21.388012229,11.4858222291\C,12.8949244141,24.279762
 0178,11.3959139471\C,12.4317002597,22.1872009602,12.5816298507\C,12.42
 39780381,23.5504030451,12.5604511732\C,11.1713829062,20.245627213,12.4
 214206493\C,11.1833332917,25.5012627459,12.4374130151\C,11.32646565,21
 .4713551589,13.1376477279\C,11.3301465168,24.2876666839,13.1630110362\
 C,8.9616639032,21.4822659019,13.6319318345\C,8.9622983333,24.273810914
 7,13.6372766797\C,7.7244726032,22.1966605789,13.5708897899\C,7.7290229
 32,23.5543713667,13.56560699\C,6.6754331624,21.4000416383,12.825197623
 9\C,6.678636707,24.3518052921,12.8211521449\C,6.1931616216,22.16822208
 24,11.5746796835\C,6.1924469966,23.5818476973,11.5740556268\C,5.903440
 5532,21.4640439284,10.3859143621\C,5.9002245344,24.2856784353,10.38541
 26856\C,5.5958481193,22.1686941978,9.1976360678\C,5.5932328747,23.5807
 337774,9.1977099898\C,5.4355070353,21.3925203082,7.8694386779\C,5.4260
 892306,24.3566356049,7.869419458\C,5.9594535408,22.1956214827,6.699431
 9461\C,5.9540851771,23.5563519475,6.6985768514\C,7.0270844806,21.48646
 60223,6.0508261244\C,7.0158426431,24.271602592,6.0492253972\C,8.033963
 0484,22.1600032608,5.3740768845\C,8.0320182842,23.6029721449,5.3660230
 429\C,9.3888584561,21.7017609501,5.4660137161\C,9.3801741018,24.065506
 3903,5.4438353379\C,11.8983685783,21.7373370827,6.6817122232\C,12.1065
 752737,24.1268690108,6.4928648325\C,10.2299272938,22.8768251792,5.3813
 540046\C,11.4721750228,22.867354624,5.9533521788\C,10.2105430239,22.15
 30528061,13.7081181578\C,10.2149755285,23.6032727561,13.7148492531\Cl,
 4.5236730782,19.0736363051,10.720600401\Cl,3.6696315807,20.922820968,7
 .6382704467\Cl,3.657402829,24.8156098447,7.6439307682\Cl,4.5178685596,
 26.6733370748,10.7244210389\Cl,5.2297840446,20.9848766811,13.888496901
 6\Cl,5.2430811635,24.770026378,13.8944532069\Cl,14.8094070042,20.83256
 61395,12.0297110254\Cl,13.3183093248,24.8318591244,5.2666394314\\Versi
 on=ES64L-G16RevA.03\State=1-A\HF=-6882.6316336\RMSD=7.758e-09\RMSF=2.4
 79e-05\Dipole=1.2900102,-0.0003326,-0.278394\Quadrupole=-23.2463957,13
 .345441,9.9009546,1.3367458,6.3935329,3.3105952\PG=C01 [X(C84Cl8)]\\@


 HE WHO LAUGHS LAST PROBABLY DIDN'T GET THE JOKE.
 Job cpu time:       1 days  8 hours 34 minutes 42.9 seconds.
 Elapsed time:       0 days  1 hours 21 minutes 34.0 seconds.
 File lengths (MBytes):  RWF=   1225 Int=      0 D2E=      0 Chk=    154 Scr=      1
 Normal termination of Gaussian 16 at Tue Jun 28 00:24:16 2022.
