 Entering Gaussian System, Link 0=g16
 Input=8_addons_C84_14_Cl22_rank_1.gjf
 Output=8_addons_C84_14_Cl22_rank_1.log
 Initial command:
 /home/mkliu/g16/l1.exe "/data/scratch/Gau-110974.inp" -scrdir="/data/scratch/"
 Entering Link 1 = /home/mkliu/g16/l1.exe PID=    110975.
  
 Copyright (c) 1988,1990,1992,1993,1995,1998,2003,2009,2016,
            Gaussian, Inc.  All Rights Reserved.
  
 This is part of the Gaussian(R) 16 program.  It is based on
 the Gaussian(R) 09 system (copyright 2009, Gaussian, Inc.),
 the Gaussian(R) 03 system (copyright 2003, Gaussian, Inc.),
 the Gaussian(R) 98 system (copyright 1998, Gaussian, Inc.),
 the Gaussian(R) 94 system (copyright 1995, Gaussian, Inc.),
 the Gaussian 92(TM) system (copyright 1992, Gaussian, Inc.),
 the Gaussian 90(TM) system (copyright 1990, Gaussian, Inc.),
 the Gaussian 88(TM) system (copyright 1988, Gaussian, Inc.),
 the Gaussian 86(TM) system (copyright 1986, Carnegie Mellon
 University), and the Gaussian 82(TM) system (copyright 1983,
 Carnegie Mellon University). Gaussian is a federally registered
 trademark of Gaussian, Inc.
  
 This software contains proprietary and confidential information,
 including trade secrets, belonging to Gaussian, Inc.
  
 This software is provided under written license and may be
 used, copied, transmitted, or stored only in accord with that
 written license.
  
 The following legend is applicable only to US Government
 contracts under FAR:
  
                    RESTRICTED RIGHTS LEGEND
  
 Use, reproduction and disclosure by the US Government is
 subject to restrictions as set forth in subparagraphs (a)
 and (c) of the Commercial Computer Software - Restricted
 Rights clause in FAR 52.227-19.
  
 Gaussian, Inc.
 340 Quinnipiac St., Bldg. 40, Wallingford CT 06492
  
  
 ---------------------------------------------------------------
 Warning -- This program may not be used in any manner that
 competes with the business of Gaussian, Inc. or will provide
 assistance to any competitor of Gaussian, Inc.  The licensee
 of this program is prohibited from giving any competitor of
 Gaussian, Inc. access to this program.  By using this program,
 the user acknowledges that Gaussian, Inc. is engaged in the
 business of creating and licensing software in the field of
 computational chemistry and represents and warrants to the
 licensee that it is not a competitor of Gaussian, Inc. and that
 it will not use this program in any manner prohibited above.
 ---------------------------------------------------------------
  

 Cite this work as:
 Gaussian 16, Revision A.03,
 M. J. Frisch, G. W. Trucks, H. B. Schlegel, G. E. Scuseria, 
 M. A. Robb, J. R. Cheeseman, G. Scalmani, V. Barone, 
 G. A. Petersson, H. Nakatsuji, X. Li, M. Caricato, A. V. Marenich, 
 J. Bloino, B. G. Janesko, R. Gomperts, B. Mennucci, H. P. Hratchian, 
 J. V. Ortiz, A. F. Izmaylov, J. L. Sonnenberg, D. Williams-Young, 
 F. Ding, F. Lipparini, F. Egidi, J. Goings, B. Peng, A. Petrone, 
 T. Henderson, D. Ranasinghe, V. G. Zakrzewski, J. Gao, N. Rega, 
 G. Zheng, W. Liang, M. Hada, M. Ehara, K. Toyota, R. Fukuda, 
 J. Hasegawa, M. Ishida, T. Nakajima, Y. Honda, O. Kitao, H. Nakai, 
 T. Vreven, K. Throssell, J. A. Montgomery, Jr., J. E. Peralta, 
 F. Ogliaro, M. J. Bearpark, J. J. Heyd, E. N. Brothers, K. N. Kudin, 
 V. N. Staroverov, T. A. Keith, R. Kobayashi, J. Normand, 
 K. Raghavachari, A. P. Rendell, J. C. Burant, S. S. Iyengar, 
 J. Tomasi, M. Cossi, J. M. Millam, M. Klene, C. Adamo, R. Cammi, 
 J. W. Ochterski, R. L. Martin, K. Morokuma, O. Farkas, 
 J. B. Foresman, and D. J. Fox, Gaussian, Inc., Wallingford CT, 2016.
 
 ******************************************
 Gaussian 16:  ES64L-G16RevA.03 25-Dec-2016
                26-Jun-2022 
 ******************************************
 %mem=10GB
 %chk=8_addons_C84_14_Cl22_rank_1.chk
 %nprocshared=24
 Will use up to   24 processors via shared memory.
 ------------------------------------------------
 #P opt b3lyp/6-31G(d, p) empiricaldispersion=GD3
 ------------------------------------------------
 1/18=20,19=15,26=3,38=1/1,3;
 2/9=110,12=2,17=6,18=5,40=1/2;
 3/5=1,6=6,7=101,11=2,25=1,30=1,71=1,74=-5,124=31/1,2,3;
 4//1;
 5/5=2,38=5/2;
 6/7=2,8=2,9=2,10=2,28=1/1;
 7//1,2,3,16;
 1/18=20,19=15,26=3/3(2);
 2/9=110/2;
 99//99;
 2/9=110/2;
 3/5=1,6=6,7=101,11=2,25=1,30=1,71=1,74=-5,124=31/1,2,3;
 4/5=5,16=3,69=1/1;
 5/5=2,38=5/2;
 7//1,2,3,16;
 1/18=20,19=15,26=3/3(-5);
 2/9=110/2;
 6/7=2,8=2,9=2,10=2,19=2,28=1/1;
 99/9=1/99;
 Leave Link    1 at Sun Jun 26 19:36:25 2022, MaxMem=  1342177280 cpu:               0.6 elap:               0.1
 (Enter /home/mkliu/g16/l101.exe)
 -----
 force
 -----
 Symbolic Z-matrix:
 Charge =  0 Multiplicity = 1
 C                     8.28663   18.91485   10.53136 
 C                     12.30052   20.17624   8.95514 
 C                     8.28302   26.83608   10.53139 
 C                     12.29807   25.57842   8.95517 
 C                     7.97852   18.96862   9.14379 
 C                     11.87237   19.59675   10.20581 
 C                     7.97497   26.78206   9.1438 
 C                     11.86939   26.15748   10.20587 
 C                     8.9795    19.12656   8.15502 
 C                     12.15102   20.21794   11.38526 
 C                     12.14861   25.53653   11.38533 
 C                     8.97609   26.62505   8.15504 
 C                     10.30434   19.05343   8.62279 
 C                     10.30086   26.69939   8.62283 
 C                     10.61486   18.93906   9.99926 
 C                     10.61127   26.81402   9.99931 
 C                     9.61769   18.95989   10.99785 
 C                     9.61412   26.79225   10.99789 
 C                     9.8887    19.65185   12.22496 
 C                     9.88574   26.1005   12.22498 
 C                     8.80828   20.26096   12.89991 
 C                     8.80589   25.49038   12.89991 
 C                     7.47688   20.19311   12.40174 
 C                     7.47442   25.55707   12.40175 
 C                     7.222     19.52787   11.24893 
 C                     7.21895   26.2221   11.24894 
 C                     6.11952   19.95542   10.32582 
 C                     6.11685   25.79363   10.3258 
 C                     6.69593   19.55878   9.00046 
 C                     6.69291   26.19076   9.00042 
 C                     6.39603   20.2261   7.86472 
 C                     6.39361   25.52325   7.8646 
 C                     7.35843   20.3301   6.82023 
 C                     7.35609   25.42016   6.82008 
 C                     8.68561   19.87602   6.96142 
 C                     8.68287   25.8754   6.96138 
 C                     9.74095   20.59769   6.27971 
 C                     9.73888   25.15469   6.27967 
 C                     11.07593   20.5892   6.83897 
 C                     12.75152   22.16585   7.74927 
 C                     12.75088   23.58924   7.74927 
 C                     11.07384   25.16437   6.83898 
 C                     11.34994   19.80391   7.97965 
 C                     12.91058   21.45211   8.94291 
 C                     12.90931   24.30311   8.94291 
 C                     11.34714   25.94987   7.97969 
 C                     13.13734   22.18739   10.16757 
 C                     13.13669   23.56802   10.16759 
 C                     13.07901   21.40372   11.47062 
 C                     13.07766   24.35156   11.4707 
 C                     12.41096   22.19973   12.55383 
 C                     12.41032   23.55489   12.55382 
 C                     11.15565   20.26493   12.39879 
 C                     11.15325   25.48858   12.39883 
 C                     11.30588   21.4872   13.10362 
 C                     11.30458   24.26639   13.10359 
 C                     8.95886   21.48743   13.59992 
 C                     8.95759   24.26403   13.59986 
 C                     7.72835   22.19731   13.53381 
 C                     7.72772   23.55307   13.53384 
 C                     6.68672   21.40896   12.79429 
 C                     6.68535   24.34054   12.79439 
 C                     6.25371   22.17323   11.54435 
 C                     6.25294   23.57595   11.54447 
 C                     5.96709   21.4748   10.36402 
 C                     5.96577   24.27413   10.36405 
 C                     5.66252   22.17371   9.18531 
 C                     5.66194   23.575    9.18525 
 C                     5.45903   21.40234   7.88063 
 C                     5.45769   24.34617   7.88043 
 C                     5.96959   22.19585   6.71411 
 C                     5.96879   23.55323   6.71365 
 C                     7.02937   21.49065   6.06398 
 C                     7.02806   24.25937   6.0637 
 C                     8.03247   22.16049   5.38981 
 C                     8.03181   23.59039   5.38961 
 C                     9.38295   21.7018   5.4828 
 C                     9.38189   24.05027   5.48273 
 C                     11.90941   21.71227   6.68567 
 C                     11.90835   24.04207   6.68567 
 C                     10.20831   22.8764   5.4105 
 C                     11.44817   22.87696   6.00282 
 C                     10.19849   22.16087   13.66692 
 C                     10.1978   23.59167   13.66676 
 Cl                    4.53384   19.19811   10.70041 
 Cl                    3.72058   20.95901   7.7461 
 Cl                    3.71885   24.78799   7.7461 
 Cl                    4.53052   26.54955   10.70042 
 Cl                    5.22672   21.04346   13.77878 
 Cl                    5.22508   24.70475   13.77896 
 Cl                    14.76017   20.89779   11.91492 
 Cl                    14.75828   24.8589   11.91513 
 
 ITRead=  0  0  0  0  0  0  0  0  0  0  0  0  0  0  0  0  0  0  0  0
 ITRead=  0  0  0  0  0  0  0  0  0  0  0  0  0  0  0  0  0  0  0  0
 ITRead=  0  0  0  0  0  0  0  0  0  0  0  0  0  0  0  0  0  0  0  0
 ITRead=  0  0  0  0  0  0  0  0  0  0  0  0  0  0  0  0  0  0  0  0
 ITRead=  0  0  0  0  0  0  0  0  0  0  0  0
 MicOpt= -1 -1 -1 -1 -1 -1 -1 -1 -1 -1 -1 -1 -1 -1 -1 -1 -1 -1 -1 -1
 MicOpt= -1 -1 -1 -1 -1 -1 -1 -1 -1 -1 -1 -1 -1 -1 -1 -1 -1 -1 -1 -1
 MicOpt= -1 -1 -1 -1 -1 -1 -1 -1 -1 -1 -1 -1 -1 -1 -1 -1 -1 -1 -1 -1
 MicOpt= -1 -1 -1 -1 -1 -1 -1 -1 -1 -1 -1 -1 -1 -1 -1 -1 -1 -1 -1 -1
 MicOpt= -1 -1 -1 -1 -1 -1 -1 -1 -1 -1 -1 -1
 NAtoms=     92 NQM=       92 NQMF=       0 NMMI=      0 NMMIF=      0
                NMic=       0 NMicF=      0.
                    Isotopes and Nuclear Properties:
 (Nuclear quadrupole moments (NQMom) in fm**2, nuclear magnetic moments (NMagM)
  in nuclear magnetons)

  Atom         1           2           3           4           5           6           7           8           9          10
 IAtWgt=          12          12          12          12          12          12          12          12          12          12
 AtmWgt=  12.0000000  12.0000000  12.0000000  12.0000000  12.0000000  12.0000000  12.0000000  12.0000000  12.0000000  12.0000000
 NucSpn=           0           0           0           0           0           0           0           0           0           0
 AtZEff=  -0.0000000  -0.0000000  -0.0000000  -0.0000000  -0.0000000  -0.0000000  -0.0000000  -0.0000000  -0.0000000  -0.0000000
 NQMom=    0.0000000   0.0000000   0.0000000   0.0000000   0.0000000   0.0000000   0.0000000   0.0000000   0.0000000   0.0000000
 NMagM=    0.0000000   0.0000000   0.0000000   0.0000000   0.0000000   0.0000000   0.0000000   0.0000000   0.0000000   0.0000000
 AtZNuc=   6.0000000   6.0000000   6.0000000   6.0000000   6.0000000   6.0000000   6.0000000   6.0000000   6.0000000   6.0000000

  Atom        11          12          13          14          15          16          17          18          19          20
 IAtWgt=          12          12          12          12          12          12          12          12          12          12
 AtmWgt=  12.0000000  12.0000000  12.0000000  12.0000000  12.0000000  12.0000000  12.0000000  12.0000000  12.0000000  12.0000000
 NucSpn=           0           0           0           0           0           0           0           0           0           0
 AtZEff=  -0.0000000  -0.0000000  -0.0000000  -0.0000000  -0.0000000  -0.0000000  -0.0000000  -0.0000000  -0.0000000  -0.0000000
 NQMom=    0.0000000   0.0000000   0.0000000   0.0000000   0.0000000   0.0000000   0.0000000   0.0000000   0.0000000   0.0000000
 NMagM=    0.0000000   0.0000000   0.0000000   0.0000000   0.0000000   0.0000000   0.0000000   0.0000000   0.0000000   0.0000000
 AtZNuc=   6.0000000   6.0000000   6.0000000   6.0000000   6.0000000   6.0000000   6.0000000   6.0000000   6.0000000   6.0000000

  Atom        21          22          23          24          25          26          27          28          29          30
 IAtWgt=          12          12          12          12          12          12          12          12          12          12
 AtmWgt=  12.0000000  12.0000000  12.0000000  12.0000000  12.0000000  12.0000000  12.0000000  12.0000000  12.0000000  12.0000000
 NucSpn=           0           0           0           0           0           0           0           0           0           0
 AtZEff=  -0.0000000  -0.0000000  -0.0000000  -0.0000000  -0.0000000  -0.0000000  -0.0000000  -0.0000000  -0.0000000  -0.0000000
 NQMom=    0.0000000   0.0000000   0.0000000   0.0000000   0.0000000   0.0000000   0.0000000   0.0000000   0.0000000   0.0000000
 NMagM=    0.0000000   0.0000000   0.0000000   0.0000000   0.0000000   0.0000000   0.0000000   0.0000000   0.0000000   0.0000000
 AtZNuc=   6.0000000   6.0000000   6.0000000   6.0000000   6.0000000   6.0000000   6.0000000   6.0000000   6.0000000   6.0000000

  Atom        31          32          33          34          35          36          37          38          39          40
 IAtWgt=          12          12          12          12          12          12          12          12          12          12
 AtmWgt=  12.0000000  12.0000000  12.0000000  12.0000000  12.0000000  12.0000000  12.0000000  12.0000000  12.0000000  12.0000000
 NucSpn=           0           0           0           0           0           0           0           0           0           0
 AtZEff=  -0.0000000  -0.0000000  -0.0000000  -0.0000000  -0.0000000  -0.0000000  -0.0000000  -0.0000000  -0.0000000  -0.0000000
 NQMom=    0.0000000   0.0000000   0.0000000   0.0000000   0.0000000   0.0000000   0.0000000   0.0000000   0.0000000   0.0000000
 NMagM=    0.0000000   0.0000000   0.0000000   0.0000000   0.0000000   0.0000000   0.0000000   0.0000000   0.0000000   0.0000000
 AtZNuc=   6.0000000   6.0000000   6.0000000   6.0000000   6.0000000   6.0000000   6.0000000   6.0000000   6.0000000   6.0000000

  Atom        41          42          43          44          45          46          47          48          49          50
 IAtWgt=          12          12          12          12          12          12          12          12          12          12
 AtmWgt=  12.0000000  12.0000000  12.0000000  12.0000000  12.0000000  12.0000000  12.0000000  12.0000000  12.0000000  12.0000000
 NucSpn=           0           0           0           0           0           0           0           0           0           0
 AtZEff=  -0.0000000  -0.0000000  -0.0000000  -0.0000000  -0.0000000  -0.0000000  -0.0000000  -0.0000000  -0.0000000  -0.0000000
 NQMom=    0.0000000   0.0000000   0.0000000   0.0000000   0.0000000   0.0000000   0.0000000   0.0000000   0.0000000   0.0000000
 NMagM=    0.0000000   0.0000000   0.0000000   0.0000000   0.0000000   0.0000000   0.0000000   0.0000000   0.0000000   0.0000000
 AtZNuc=   6.0000000   6.0000000   6.0000000   6.0000000   6.0000000   6.0000000   6.0000000   6.0000000   6.0000000   6.0000000

  Atom        51          52          53          54          55          56          57          58          59          60
 IAtWgt=          12          12          12          12          12          12          12          12          12          12
 AtmWgt=  12.0000000  12.0000000  12.0000000  12.0000000  12.0000000  12.0000000  12.0000000  12.0000000  12.0000000  12.0000000
 NucSpn=           0           0           0           0           0           0           0           0           0           0
 AtZEff=  -0.0000000  -0.0000000  -0.0000000  -0.0000000  -0.0000000  -0.0000000  -0.0000000  -0.0000000  -0.0000000  -0.0000000
 NQMom=    0.0000000   0.0000000   0.0000000   0.0000000   0.0000000   0.0000000   0.0000000   0.0000000   0.0000000   0.0000000
 NMagM=    0.0000000   0.0000000   0.0000000   0.0000000   0.0000000   0.0000000   0.0000000   0.0000000   0.0000000   0.0000000
 AtZNuc=   6.0000000   6.0000000   6.0000000   6.0000000   6.0000000   6.0000000   6.0000000   6.0000000   6.0000000   6.0000000

  Atom        61          62          63          64          65          66          67          68          69          70
 IAtWgt=          12          12          12          12          12          12          12          12          12          12
 AtmWgt=  12.0000000  12.0000000  12.0000000  12.0000000  12.0000000  12.0000000  12.0000000  12.0000000  12.0000000  12.0000000
 NucSpn=           0           0           0           0           0           0           0           0           0           0
 AtZEff=  -0.0000000  -0.0000000  -0.0000000  -0.0000000  -0.0000000  -0.0000000  -0.0000000  -0.0000000  -0.0000000  -0.0000000
 NQMom=    0.0000000   0.0000000   0.0000000   0.0000000   0.0000000   0.0000000   0.0000000   0.0000000   0.0000000   0.0000000
 NMagM=    0.0000000   0.0000000   0.0000000   0.0000000   0.0000000   0.0000000   0.0000000   0.0000000   0.0000000   0.0000000
 AtZNuc=   6.0000000   6.0000000   6.0000000   6.0000000   6.0000000   6.0000000   6.0000000   6.0000000   6.0000000   6.0000000

  Atom        71          72          73          74          75          76          77          78          79          80
 IAtWgt=          12          12          12          12          12          12          12          12          12          12
 AtmWgt=  12.0000000  12.0000000  12.0000000  12.0000000  12.0000000  12.0000000  12.0000000  12.0000000  12.0000000  12.0000000
 NucSpn=           0           0           0           0           0           0           0           0           0           0
 AtZEff=  -0.0000000  -0.0000000  -0.0000000  -0.0000000  -0.0000000  -0.0000000  -0.0000000  -0.0000000  -0.0000000  -0.0000000
 NQMom=    0.0000000   0.0000000   0.0000000   0.0000000   0.0000000   0.0000000   0.0000000   0.0000000   0.0000000   0.0000000
 NMagM=    0.0000000   0.0000000   0.0000000   0.0000000   0.0000000   0.0000000   0.0000000   0.0000000   0.0000000   0.0000000
 AtZNuc=   6.0000000   6.0000000   6.0000000   6.0000000   6.0000000   6.0000000   6.0000000   6.0000000   6.0000000   6.0000000

  Atom        81          82          83          84          85          86          87          88          89          90
 IAtWgt=          12          12          12          12          35          35          35          35          35          35
 AtmWgt=  12.0000000  12.0000000  12.0000000  12.0000000  34.9688527  34.9688527  34.9688527  34.9688527  34.9688527  34.9688527
 NucSpn=           0           0           0           0           3           3           3           3           3           3
 AtZEff=  -0.0000000  -0.0000000  -0.0000000  -0.0000000  -0.0000000  -0.0000000  -0.0000000  -0.0000000  -0.0000000  -0.0000000
 NQMom=    0.0000000   0.0000000   0.0000000   0.0000000  -8.1650000  -8.1650000  -8.1650000  -8.1650000  -8.1650000  -8.1650000
 NMagM=    0.0000000   0.0000000   0.0000000   0.0000000   0.8218740   0.8218740   0.8218740   0.8218740   0.8218740   0.8218740
 AtZNuc=   6.0000000   6.0000000   6.0000000   6.0000000  17.0000000  17.0000000  17.0000000  17.0000000  17.0000000  17.0000000

  Atom        91          92
 IAtWgt=          35          35
 AtmWgt=  34.9688527  34.9688527
 NucSpn=           3           3
 AtZEff=  -0.0000000  -0.0000000
 NQMom=   -8.1650000  -8.1650000
 NMagM=    0.8218740   0.8218740
 AtZNuc=  17.0000000  17.0000000
 Leave Link  101 at Sun Jun 26 19:36:25 2022, MaxMem=  1342177280 cpu:               6.6 elap:               0.3
 (Enter /home/mkliu/g16/l103.exe)

 GradGradGradGradGradGradGradGradGradGradGradGradGradGradGradGradGradGrad
 Berny optimization.
 Initialization pass.
                           ----------------------------
                           !    Initial Parameters    !
                           ! (Angstroms and Degrees)  !
 --------------------------                            --------------------------
 ! Name  Definition              Value          Derivative Info.                !
 --------------------------------------------------------------------------------
 ! R1    R(1,5)                  1.4224         estimate D2E/DX2                !
 ! R2    R(1,17)                 1.4112         estimate D2E/DX2                !
 ! R3    R(1,25)                 1.4227         estimate D2E/DX2                !
 ! R4    R(2,6)                  1.4434         estimate D2E/DX2                !
 ! R5    R(2,43)                 1.412          estimate D2E/DX2                !
 ! R6    R(2,44)                 1.4143         estimate D2E/DX2                !
 ! R7    R(3,7)                  1.4224         estimate D2E/DX2                !
 ! R8    R(3,18)                 1.4112         estimate D2E/DX2                !
 ! R9    R(3,26)                 1.4227         estimate D2E/DX2                !
 ! R10   R(4,8)                  1.4434         estimate D2E/DX2                !
 ! R11   R(4,45)                 1.4143         estimate D2E/DX2                !
 ! R12   R(4,46)                 1.412          estimate D2E/DX2                !
 ! R13   R(5,9)                  1.4158         estimate D2E/DX2                !
 ! R14   R(5,29)                 1.4191         estimate D2E/DX2                !
 ! R15   R(6,10)                 1.3618         estimate D2E/DX2                !
 ! R16   R(6,15)                 1.4341         estimate D2E/DX2                !
 ! R17   R(7,12)                 1.4158         estimate D2E/DX2                !
 ! R18   R(7,30)                 1.4191         estimate D2E/DX2                !
 ! R19   R(8,11)                 1.3619         estimate D2E/DX2                !
 ! R20   R(8,16)                 1.4341         estimate D2E/DX2                !
 ! R21   R(9,13)                 1.4069         estimate D2E/DX2                !
 ! R22   R(9,35)                 1.4397         estimate D2E/DX2                !
 ! R23   R(10,49)                1.5082         estimate D2E/DX2                !
 ! R24   R(10,53)                1.4213         estimate D2E/DX2                !
 ! R25   R(11,50)                1.5082         estimate D2E/DX2                !
 ! R26   R(11,54)                1.4213         estimate D2E/DX2                !
 ! R27   R(12,14)                1.4069         estimate D2E/DX2                !
 ! R28   R(12,36)                1.4397         estimate D2E/DX2                !
 ! R29   R(13,15)                1.4157         estimate D2E/DX2                !
 ! R30   R(13,43)                1.4388         estimate D2E/DX2                !
 ! R31   R(14,16)                1.4157         estimate D2E/DX2                !
 ! R32   R(14,46)                1.4388         estimate D2E/DX2                !
 ! R33   R(15,17)                1.4114         estimate D2E/DX2                !
 ! R34   R(16,18)                1.4114         estimate D2E/DX2                !
 ! R35   R(17,19)                1.4346         estimate D2E/DX2                !
 ! R36   R(18,20)                1.4346         estimate D2E/DX2                !
 ! R37   R(19,21)                1.412          estimate D2E/DX2                !
 ! R38   R(19,53)                1.4182         estimate D2E/DX2                !
 ! R39   R(20,22)                1.412          estimate D2E/DX2                !
 ! R40   R(20,54)                1.4182         estimate D2E/DX2                !
 ! R41   R(21,23)                1.4232         estimate D2E/DX2                !
 ! R42   R(21,57)                1.4202         estimate D2E/DX2                !
 ! R43   R(22,24)                1.4232         estimate D2E/DX2                !
 ! R44   R(22,58)                1.4202         estimate D2E/DX2                !
 ! R45   R(23,25)                1.3552         estimate D2E/DX2                !
 ! R46   R(23,61)                1.5022         estimate D2E/DX2                !
 ! R47   R(24,26)                1.3552         estimate D2E/DX2                !
 ! R48   R(24,62)                1.5022         estimate D2E/DX2                !
 ! R49   R(25,27)                1.5001         estimate D2E/DX2                !
 ! R50   R(26,28)                1.5001         estimate D2E/DX2                !
 ! R51   R(27,29)                1.4987         estimate D2E/DX2                !
 ! R52   R(27,65)                1.5275         estimate D2E/DX2                !
 ! R53   R(27,85)                1.7967         estimate D2E/DX2                !
 ! R54   R(28,30)                1.4987         estimate D2E/DX2                !
 ! R55   R(28,66)                1.5275         estimate D2E/DX2                !
 ! R56   R(28,88)                1.7967         estimate D2E/DX2                !
 ! R57   R(29,31)                1.351          estimate D2E/DX2                !
 ! R58   R(30,32)                1.351          estimate D2E/DX2                !
 ! R59   R(31,33)                1.4241         estimate D2E/DX2                !
 ! R60   R(31,69)                1.5039         estimate D2E/DX2                !
 ! R61   R(32,34)                1.4241         estimate D2E/DX2                !
 ! R62   R(32,70)                1.5039         estimate D2E/DX2                !
 ! R63   R(33,35)                1.4098         estimate D2E/DX2                !
 ! R64   R(33,73)                1.4238         estimate D2E/DX2                !
 ! R65   R(34,36)                1.4098         estimate D2E/DX2                !
 ! R66   R(34,74)                1.4238         estimate D2E/DX2                !
 ! R67   R(35,37)                1.4489         estimate D2E/DX2                !
 ! R68   R(36,38)                1.4489         estimate D2E/DX2                !
 ! R69   R(37,39)                1.4474         estimate D2E/DX2                !
 ! R70   R(37,77)                1.4079         estimate D2E/DX2                !
 ! R71   R(38,42)                1.4474         estimate D2E/DX2                !
 ! R72   R(38,78)                1.4079         estimate D2E/DX2                !
 ! R73   R(39,43)                1.4117         estimate D2E/DX2                !
 ! R74   R(39,79)                1.4069         estimate D2E/DX2                !
 ! R75   R(40,41)                1.4234         estimate D2E/DX2                !
 ! R76   R(40,44)                1.3998         estimate D2E/DX2                !
 ! R77   R(40,79)                1.4304         estimate D2E/DX2                !
 ! R78   R(41,45)                1.3998         estimate D2E/DX2                !
 ! R79   R(41,80)                1.4304         estimate D2E/DX2                !
 ! R80   R(42,46)                1.4117         estimate D2E/DX2                !
 ! R81   R(42,80)                1.4069         estimate D2E/DX2                !
 ! R82   R(44,47)                1.4463         estimate D2E/DX2                !
 ! R83   R(45,48)                1.4463         estimate D2E/DX2                !
 ! R84   R(47,48)                1.3806         estimate D2E/DX2                !
 ! R85   R(47,49)                1.5217         estimate D2E/DX2                !
 ! R86   R(48,50)                1.5217         estimate D2E/DX2                !
 ! R87   R(49,51)                1.5011         estimate D2E/DX2                !
 ! R88   R(49,91)                1.811          estimate D2E/DX2                !
 ! R89   R(50,52)                1.5011         estimate D2E/DX2                !
 ! R90   R(50,92)                1.8109         estimate D2E/DX2                !
 ! R91   R(51,52)                1.3552         estimate D2E/DX2                !
 ! R92   R(51,55)                1.4252         estimate D2E/DX2                !
 ! R93   R(52,56)                1.4252         estimate D2E/DX2                !
 ! R94   R(53,55)                1.4189         estimate D2E/DX2                !
 ! R95   R(54,56)                1.4189         estimate D2E/DX2                !
 ! R96   R(55,83)                1.4133         estimate D2E/DX2                !
 ! R97   R(56,84)                1.4133         estimate D2E/DX2                !
 ! R98   R(57,59)                1.4221         estimate D2E/DX2                !
 ! R99   R(57,83)                1.4123         estimate D2E/DX2                !
 ! R100  R(58,60)                1.4221         estimate D2E/DX2                !
 ! R101  R(58,84)                1.4123         estimate D2E/DX2                !
 ! R102  R(59,60)                1.3558         estimate D2E/DX2                !
 ! R103  R(59,61)                1.5011         estimate D2E/DX2                !
 ! R104  R(60,62)                1.5011         estimate D2E/DX2                !
 ! R105  R(61,63)                1.5277         estimate D2E/DX2                !
 ! R106  R(61,89)                1.7985         estimate D2E/DX2                !
 ! R107  R(62,64)                1.5277         estimate D2E/DX2                !
 ! R108  R(62,90)                1.7984         estimate D2E/DX2                !
 ! R109  R(63,64)                1.4027         estimate D2E/DX2                !
 ! R110  R(63,65)                1.4011         estimate D2E/DX2                !
 ! R111  R(64,66)                1.4012         estimate D2E/DX2                !
 ! R112  R(65,67)                1.4038         estimate D2E/DX2                !
 ! R113  R(66,68)                1.4038         estimate D2E/DX2                !
 ! R114  R(67,68)                1.4013         estimate D2E/DX2                !
 ! R115  R(67,69)                1.5293         estimate D2E/DX2                !
 ! R116  R(68,70)                1.5294         estimate D2E/DX2                !
 ! R117  R(69,71)                1.5004         estimate D2E/DX2                !
 ! R118  R(69,86)                1.7991         estimate D2E/DX2                !
 ! R119  R(70,72)                1.5004         estimate D2E/DX2                !
 ! R120  R(70,87)                1.7991         estimate D2E/DX2                !
 ! R121  R(71,72)                1.3574         estimate D2E/DX2                !
 ! R122  R(71,73)                1.4294         estimate D2E/DX2                !
 ! R123  R(72,74)                1.4294         estimate D2E/DX2                !
 ! R124  R(73,75)                1.3818         estimate D2E/DX2                !
 ! R125  R(74,76)                1.3818         estimate D2E/DX2                !
 ! R126  R(75,76)                1.4299         estimate D2E/DX2                !
 ! R127  R(75,77)                1.4293         estimate D2E/DX2                !
 ! R128  R(76,78)                1.4293         estimate D2E/DX2                !
 ! R129  R(77,81)                1.4374         estimate D2E/DX2                !
 ! R130  R(78,81)                1.4374         estimate D2E/DX2                !
 ! R131  R(79,82)                1.4267         estimate D2E/DX2                !
 ! R132  R(80,82)                1.4267         estimate D2E/DX2                !
 ! R133  R(81,82)                1.3741         estimate D2E/DX2                !
 ! R134  R(83,84)                1.4308         estimate D2E/DX2                !
 ! A1    A(5,1,17)             121.7084         estimate D2E/DX2                !
 ! A2    A(5,1,25)             108.2784         estimate D2E/DX2                !
 ! A3    A(17,1,25)            121.6921         estimate D2E/DX2                !
 ! A4    A(6,2,43)             107.0413         estimate D2E/DX2                !
 ! A5    A(6,2,44)             119.8441         estimate D2E/DX2                !
 ! A6    A(43,2,44)            121.4864         estimate D2E/DX2                !
 ! A7    A(7,3,18)             121.7087         estimate D2E/DX2                !
 ! A8    A(7,3,26)             108.2793         estimate D2E/DX2                !
 ! A9    A(18,3,26)            121.6917         estimate D2E/DX2                !
 ! A10   A(8,4,45)             119.8435         estimate D2E/DX2                !
 ! A11   A(8,4,46)             107.0418         estimate D2E/DX2                !
 ! A12   A(45,4,46)            121.486          estimate D2E/DX2                !
 ! A13   A(1,5,9)              122.1639         estimate D2E/DX2                !
 ! A14   A(1,5,29)             108.0605         estimate D2E/DX2                !
 ! A15   A(9,5,29)             121.4705         estimate D2E/DX2                !
 ! A16   A(2,6,10)             120.4389         estimate D2E/DX2                !
 ! A17   A(2,6,15)             108.6287         estimate D2E/DX2                !
 ! A18   A(10,6,15)            120.8875         estimate D2E/DX2                !
 ! A19   A(3,7,12)             122.1643         estimate D2E/DX2                !
 ! A20   A(3,7,30)             108.0619         estimate D2E/DX2                !
 ! A21   A(12,7,30)            121.4692         estimate D2E/DX2                !
 ! A22   A(4,8,11)             120.44           estimate D2E/DX2                !
 ! A23   A(4,8,16)             108.6276         estimate D2E/DX2                !
 ! A24   A(11,8,16)            120.8877         estimate D2E/DX2                !
 ! A25   A(5,9,13)             115.3261         estimate D2E/DX2                !
 ! A26   A(5,9,35)             119.5205         estimate D2E/DX2                !
 ! A27   A(13,9,35)            119.6656         estimate D2E/DX2                !
 ! A28   A(6,10,49)            122.246          estimate D2E/DX2                !
 ! A29   A(6,10,53)            119.2987         estimate D2E/DX2                !
 ! A30   A(49,10,53)           111.3802         estimate D2E/DX2                !
 ! A31   A(8,11,50)            122.2471         estimate D2E/DX2                !
 ! A32   A(8,11,54)            119.2986         estimate D2E/DX2                !
 ! A33   A(50,11,54)           111.3779         estimate D2E/DX2                !
 ! A34   A(7,12,14)            115.3249         estimate D2E/DX2                !
 ! A35   A(7,12,36)            119.5213         estimate D2E/DX2                !
 ! A36   A(14,12,36)           119.6671         estimate D2E/DX2                !
 ! A37   A(9,13,15)            122.2772         estimate D2E/DX2                !
 ! A38   A(9,13,43)            120.5707         estimate D2E/DX2                !
 ! A39   A(15,13,43)           108.503          estimate D2E/DX2                !
 ! A40   A(12,14,16)           122.2783         estimate D2E/DX2                !
 ! A41   A(12,14,46)           120.5698         estimate D2E/DX2                !
 ! A42   A(16,14,46)           108.5029         estimate D2E/DX2                !
 ! A43   A(6,15,13)            107.1772         estimate D2E/DX2                !
 ! A44   A(6,15,17)            120.7214         estimate D2E/DX2                !
 ! A45   A(13,15,17)           122.1253         estimate D2E/DX2                !
 ! A46   A(8,16,14)            107.1779         estimate D2E/DX2                !
 ! A47   A(8,16,18)            120.721          estimate D2E/DX2                !
 ! A48   A(14,16,18)           122.1249         estimate D2E/DX2                !
 ! A49   A(1,17,15)            115.5984         estimate D2E/DX2                !
 ! A50   A(1,17,19)            118.4468         estimate D2E/DX2                !
 ! A51   A(15,17,19)           118.6108         estimate D2E/DX2                !
 ! A52   A(3,18,16)            115.5981         estimate D2E/DX2                !
 ! A53   A(3,18,20)            118.447          estimate D2E/DX2                !
 ! A54   A(16,18,20)           118.6107         estimate D2E/DX2                !
 ! A55   A(17,19,21)           118.1897         estimate D2E/DX2                !
 ! A56   A(17,19,53)           118.8243         estimate D2E/DX2                !
 ! A57   A(21,19,53)           116.0068         estimate D2E/DX2                !
 ! A58   A(18,20,22)           118.1898         estimate D2E/DX2                !
 ! A59   A(18,20,54)           118.8252         estimate D2E/DX2                !
 ! A60   A(22,20,54)           116.0062         estimate D2E/DX2                !
 ! A61   A(19,21,23)           121.8646         estimate D2E/DX2                !
 ! A62   A(19,21,57)           121.8035         estimate D2E/DX2                !
 ! A63   A(23,21,57)           108.2342         estimate D2E/DX2                !
 ! A64   A(20,22,24)           121.8648         estimate D2E/DX2                !
 ! A65   A(20,22,58)           121.8031         estimate D2E/DX2                !
 ! A66   A(24,22,58)           108.2349         estimate D2E/DX2                !
 ! A67   A(21,23,25)           119.8103         estimate D2E/DX2                !
 ! A68   A(21,23,61)           111.2237         estimate D2E/DX2                !
 ! A69   A(25,23,61)           121.3773         estimate D2E/DX2                !
 ! A70   A(22,24,26)           119.8099         estimate D2E/DX2                !
 ! A71   A(22,24,62)           111.2222         estimate D2E/DX2                !
 ! A72   A(26,24,62)           121.3805         estimate D2E/DX2                !
 ! A73   A(1,25,23)            119.9883         estimate D2E/DX2                !
 ! A74   A(1,25,27)            111.2476         estimate D2E/DX2                !
 ! A75   A(23,25,27)           121.4514         estimate D2E/DX2                !
 ! A76   A(3,26,24)            119.9886         estimate D2E/DX2                !
 ! A77   A(3,26,28)            111.2455         estimate D2E/DX2                !
 ! A78   A(24,26,28)           121.4537         estimate D2E/DX2                !
 ! A79   A(25,27,29)           100.7245         estimate D2E/DX2                !
 ! A80   A(25,27,65)           109.965          estimate D2E/DX2                !
 ! A81   A(25,27,85)           113.5895         estimate D2E/DX2                !
 ! A82   A(29,27,65)           108.8892         estimate D2E/DX2                !
 ! A83   A(29,27,85)           114.3461         estimate D2E/DX2                !
 ! A84   A(65,27,85)           109.0249         estimate D2E/DX2                !
 ! A85   A(26,28,30)           100.727          estimate D2E/DX2                !
 ! A86   A(26,28,66)           109.9615         estimate D2E/DX2                !
 ! A87   A(26,28,88)           113.5888         estimate D2E/DX2                !
 ! A88   A(30,28,66)           108.8898         estimate D2E/DX2                !
 ! A89   A(30,28,88)           114.3471         estimate D2E/DX2                !
 ! A90   A(66,28,88)           109.025          estimate D2E/DX2                !
 ! A91   A(5,29,27)            111.6139         estimate D2E/DX2                !
 ! A92   A(5,29,31)            119.4033         estimate D2E/DX2                !
 ! A93   A(27,29,31)           121.8254         estimate D2E/DX2                !
 ! A94   A(7,30,28)            111.6112         estimate D2E/DX2                !
 ! A95   A(7,30,32)            119.4033         estimate D2E/DX2                !
 ! A96   A(28,30,32)           121.8303         estimate D2E/DX2                !
 ! A97   A(29,31,33)           120.1751         estimate D2E/DX2                !
 ! A98   A(29,31,69)           121.047          estimate D2E/DX2                !
 ! A99   A(33,31,69)           111.8204         estimate D2E/DX2                !
 ! A100  A(30,32,34)           120.1773         estimate D2E/DX2                !
 ! A101  A(30,32,70)           121.0462         estimate D2E/DX2                !
 ! A102  A(34,32,70)           111.8185         estimate D2E/DX2                !
 ! A103  A(31,33,35)           122.6311         estimate D2E/DX2                !
 ! A104  A(31,33,73)           107.0329         estimate D2E/DX2                !
 ! A105  A(35,33,73)           122.2301         estimate D2E/DX2                !
 ! A106  A(32,34,36)           122.627          estimate D2E/DX2                !
 ! A107  A(32,34,74)           107.0353         estimate D2E/DX2                !
 ! A108  A(36,34,74)           122.231          estimate D2E/DX2                !
 ! A109  A(9,35,33)            116.2873         estimate D2E/DX2                !
 ! A110  A(9,35,37)            120.0447         estimate D2E/DX2                !
 ! A111  A(33,35,37)           118.5641         estimate D2E/DX2                !
 ! A112  A(12,36,34)           116.2893         estimate D2E/DX2                !
 ! A113  A(12,36,38)           120.0434         estimate D2E/DX2                !
 ! A114  A(34,36,38)           118.564          estimate D2E/DX2                !
 ! A115  A(35,37,39)           119.1487         estimate D2E/DX2                !
 ! A116  A(35,37,77)           118.1449         estimate D2E/DX2                !
 ! A117  A(39,37,77)           117.2467         estimate D2E/DX2                !
 ! A118  A(36,38,42)           119.1484         estimate D2E/DX2                !
 ! A119  A(36,38,78)           118.1446         estimate D2E/DX2                !
 ! A120  A(42,38,78)           117.2468         estimate D2E/DX2                !
 ! A121  A(37,39,43)           119.6365         estimate D2E/DX2                !
 ! A122  A(37,39,79)           119.9738         estimate D2E/DX2                !
 ! A123  A(43,39,79)           114.6505         estimate D2E/DX2                !
 ! A124  A(41,40,44)           120.6591         estimate D2E/DX2                !
 ! A125  A(41,40,79)           108.4712         estimate D2E/DX2                !
 ! A126  A(44,40,79)           122.6326         estimate D2E/DX2                !
 ! A127  A(40,41,45)           120.6585         estimate D2E/DX2                !
 ! A128  A(40,41,80)           108.4712         estimate D2E/DX2                !
 ! A129  A(45,41,80)           122.633          estimate D2E/DX2                !
 ! A130  A(38,42,46)           119.6378         estimate D2E/DX2                !
 ! A131  A(38,42,80)           119.9745         estimate D2E/DX2                !
 ! A132  A(46,42,80)           114.6497         estimate D2E/DX2                !
 ! A133  A(2,43,13)            108.5397         estimate D2E/DX2                !
 ! A134  A(2,43,39)            122.8343         estimate D2E/DX2                !
 ! A135  A(13,43,39)           120.6821         estimate D2E/DX2                !
 ! A136  A(2,44,40)            114.7297         estimate D2E/DX2                !
 ! A137  A(2,44,47)            121.2607         estimate D2E/DX2                !
 ! A138  A(40,44,47)           118.7267         estimate D2E/DX2                !
 ! A139  A(4,45,41)            114.7296         estimate D2E/DX2                !
 ! A140  A(4,45,48)            121.2593         estimate D2E/DX2                !
 ! A141  A(41,45,48)           118.7268         estimate D2E/DX2                !
 ! A142  A(4,46,14)            108.5398         estimate D2E/DX2                !
 ! A143  A(4,46,42)            122.8353         estimate D2E/DX2                !
 ! A144  A(14,46,42)           120.6816         estimate D2E/DX2                !
 ! A145  A(44,47,48)           120.5514         estimate D2E/DX2                !
 ! A146  A(44,47,49)           117.2107         estimate D2E/DX2                !
 ! A147  A(48,47,49)           120.996          estimate D2E/DX2                !
 ! A148  A(45,48,47)           120.5511         estimate D2E/DX2                !
 ! A149  A(45,48,50)           117.2144         estimate D2E/DX2                !
 ! A150  A(47,48,50)           120.9936         estimate D2E/DX2                !
 ! A151  A(10,49,47)           112.3363         estimate D2E/DX2                !
 ! A152  A(10,49,51)           100.5993         estimate D2E/DX2                !
 ! A153  A(10,49,91)           111.4346         estimate D2E/DX2                !
 ! A154  A(47,49,51)           111.2167         estimate D2E/DX2                !
 ! A155  A(47,49,91)           108.565          estimate D2E/DX2                !
 ! A156  A(51,49,91)           112.5971         estimate D2E/DX2                !
 ! A157  A(11,50,48)           112.3329         estimate D2E/DX2                !
 ! A158  A(11,50,52)           100.6015         estimate D2E/DX2                !
 ! A159  A(11,50,92)           111.4363         estimate D2E/DX2                !
 ! A160  A(48,50,52)           111.2164         estimate D2E/DX2                !
 ! A161  A(48,50,92)           108.5677         estimate D2E/DX2                !
 ! A162  A(52,50,92)           112.5936         estimate D2E/DX2                !
 ! A163  A(49,51,52)           122.0392         estimate D2E/DX2                !
 ! A164  A(49,51,55)           110.9983         estimate D2E/DX2                !
 ! A165  A(52,51,55)           119.9724         estimate D2E/DX2                !
 ! A166  A(50,52,51)           122.0411         estimate D2E/DX2                !
 ! A167  A(50,52,56)           110.9968         estimate D2E/DX2                !
 ! A168  A(51,52,56)           119.9737         estimate D2E/DX2                !
 ! A169  A(10,53,19)           121.596          estimate D2E/DX2                !
 ! A170  A(10,53,55)           107.9716         estimate D2E/DX2                !
 ! A171  A(19,53,55)           121.8611         estimate D2E/DX2                !
 ! A172  A(11,54,20)           121.5955         estimate D2E/DX2                !
 ! A173  A(11,54,56)           107.9713         estimate D2E/DX2                !
 ! A174  A(20,54,56)           121.8613         estimate D2E/DX2                !
 ! A175  A(51,55,53)           108.7317         estimate D2E/DX2                !
 ! A176  A(51,55,83)           121.5337         estimate D2E/DX2                !
 ! A177  A(53,55,83)           121.7108         estimate D2E/DX2                !
 ! A178  A(52,56,54)           108.7335         estimate D2E/DX2                !
 ! A179  A(52,56,84)           121.5319         estimate D2E/DX2                !
 ! A180  A(54,56,84)           121.7098         estimate D2E/DX2                !
 ! A181  A(21,57,59)           108.4471         estimate D2E/DX2                !
 ! A182  A(21,57,83)           121.8864         estimate D2E/DX2                !
 ! A183  A(59,57,83)           121.5767         estimate D2E/DX2                !
 ! A184  A(22,58,60)           108.4482         estimate D2E/DX2                !
 ! A185  A(22,58,84)           121.8866         estimate D2E/DX2                !
 ! A186  A(60,58,84)           121.5761         estimate D2E/DX2                !
 ! A187  A(57,59,60)           119.9717         estimate D2E/DX2                !
 ! A188  A(57,59,61)           111.1708         estimate D2E/DX2                !
 ! A189  A(60,59,61)           121.6587         estimate D2E/DX2                !
 ! A190  A(58,60,59)           119.9686         estimate D2E/DX2                !
 ! A191  A(58,60,62)           111.1695         estimate D2E/DX2                !
 ! A192  A(59,60,62)           121.6614         estimate D2E/DX2                !
 ! A193  A(23,61,59)           100.8832         estimate D2E/DX2                !
 ! A194  A(23,61,63)           109.8879         estimate D2E/DX2                !
 ! A195  A(23,61,89)           113.9262         estimate D2E/DX2                !
 ! A196  A(59,61,63)           109.695          estimate D2E/DX2                !
 ! A197  A(59,61,89)           113.6009         estimate D2E/DX2                !
 ! A198  A(63,61,89)           108.6296         estimate D2E/DX2                !
 ! A199  A(24,62,60)           100.8842         estimate D2E/DX2                !
 ! A200  A(24,62,64)           109.8844         estimate D2E/DX2                !
 ! A201  A(24,62,90)           113.9276         estimate D2E/DX2                !
 ! A202  A(60,62,64)           109.6956         estimate D2E/DX2                !
 ! A203  A(60,62,90)           113.6017         estimate D2E/DX2                !
 ! A204  A(64,62,90)           108.6293         estimate D2E/DX2                !
 ! A205  A(61,63,64)           120.0237         estimate D2E/DX2                !
 ! A206  A(61,63,65)           119.8578         estimate D2E/DX2                !
 ! A207  A(64,63,65)           119.8964         estimate D2E/DX2                !
 ! A208  A(62,64,63)           120.0259         estimate D2E/DX2                !
 ! A209  A(62,64,66)           119.8608         estimate D2E/DX2                !
 ! A210  A(63,64,66)           119.8892         estimate D2E/DX2                !
 ! A211  A(27,65,63)           119.7677         estimate D2E/DX2                !
 ! A212  A(27,65,67)           119.7285         estimate D2E/DX2                !
 ! A213  A(63,65,67)           120.2357         estimate D2E/DX2                !
 ! A214  A(28,66,64)           119.7688         estimate D2E/DX2                !
 ! A215  A(28,66,68)           119.7229         estimate D2E/DX2                !
 ! A216  A(64,66,68)           120.2399         estimate D2E/DX2                !
 ! A217  A(65,67,68)           119.8683         estimate D2E/DX2                !
 ! A218  A(65,67,69)           119.6105         estimate D2E/DX2                !
 ! A219  A(68,67,69)           120.2856         estimate D2E/DX2                !
 ! A220  A(66,68,67)           119.8607         estimate D2E/DX2                !
 ! A221  A(66,68,70)           119.6178         estimate D2E/DX2                !
 ! A222  A(67,68,70)           120.2872         estimate D2E/DX2                !
 ! A223  A(31,69,67)           108.7009         estimate D2E/DX2                !
 ! A224  A(31,69,71)           101.1513         estimate D2E/DX2                !
 ! A225  A(31,69,86)           114.1112         estimate D2E/DX2                !
 ! A226  A(67,69,71)           110.565          estimate D2E/DX2                !
 ! A227  A(67,69,86)           108.4614         estimate D2E/DX2                !
 ! A228  A(71,69,86)           113.6409         estimate D2E/DX2                !
 ! A229  A(32,70,68)           108.6948         estimate D2E/DX2                !
 ! A230  A(32,70,72)           101.1546         estimate D2E/DX2                !
 ! A231  A(32,70,87)           114.1096         estimate D2E/DX2                !
 ! A232  A(68,70,72)           110.5779         estimate D2E/DX2                !
 ! A233  A(68,70,87)           108.4577         estimate D2E/DX2                !
 ! A234  A(72,70,87)           113.6369         estimate D2E/DX2                !
 ! A235  A(69,71,72)           121.9332         estimate D2E/DX2                !
 ! A236  A(69,71,73)           110.1822         estimate D2E/DX2                !
 ! A237  A(72,71,73)           119.5807         estimate D2E/DX2                !
 ! A238  A(70,72,71)           121.8983         estimate D2E/DX2                !
 ! A239  A(70,72,74)           110.1786         estimate D2E/DX2                !
 ! A240  A(71,72,74)           119.586          estimate D2E/DX2                !
 ! A241  A(33,73,71)           109.3855         estimate D2E/DX2                !
 ! A242  A(33,73,75)           119.1121         estimate D2E/DX2                !
 ! A243  A(71,73,75)           121.3976         estimate D2E/DX2                !
 ! A244  A(34,74,72)           109.3864         estimate D2E/DX2                !
 ! A245  A(34,74,76)           119.1108         estimate D2E/DX2                !
 ! A246  A(72,74,76)           121.3967         estimate D2E/DX2                !
 ! A247  A(73,75,76)           118.979          estimate D2E/DX2                !
 ! A248  A(73,75,77)           119.9066         estimate D2E/DX2                !
 ! A249  A(76,75,77)           108.7458         estimate D2E/DX2                !
 ! A250  A(74,76,75)           118.9729         estimate D2E/DX2                !
 ! A251  A(74,76,78)           119.9064         estimate D2E/DX2                !
 ! A252  A(75,76,78)           108.7423         estimate D2E/DX2                !
 ! A253  A(37,77,75)           121.9215         estimate D2E/DX2                !
 ! A254  A(37,77,81)           121.5531         estimate D2E/DX2                !
 ! A255  A(75,77,81)           106.0826         estimate D2E/DX2                !
 ! A256  A(38,78,76)           121.9228         estimate D2E/DX2                !
 ! A257  A(38,78,81)           121.5514         estimate D2E/DX2                !
 ! A258  A(76,78,81)           106.0835         estimate D2E/DX2                !
 ! A259  A(39,79,40)           121.3897         estimate D2E/DX2                !
 ! A260  A(39,79,82)           120.8151         estimate D2E/DX2                !
 ! A261  A(40,79,82)           106.6987         estimate D2E/DX2                !
 ! A262  A(41,80,42)           121.3897         estimate D2E/DX2                !
 ! A263  A(41,80,82)           106.6985         estimate D2E/DX2                !
 ! A264  A(42,80,82)           120.8145         estimate D2E/DX2                !
 ! A265  A(77,81,78)           109.5531         estimate D2E/DX2                !
 ! A266  A(77,81,82)           119.7862         estimate D2E/DX2                !
 ! A267  A(78,81,82)           119.7875         estimate D2E/DX2                !
 ! A268  A(79,82,80)           109.4699         estimate D2E/DX2                !
 ! A269  A(79,82,81)           119.8472         estimate D2E/DX2                !
 ! A270  A(80,82,81)           119.847          estimate D2E/DX2                !
 ! A271  A(55,83,57)           116.2015         estimate D2E/DX2                !
 ! A272  A(55,83,84)           118.4893         estimate D2E/DX2                !
 ! A273  A(57,83,84)           118.4505         estimate D2E/DX2                !
 ! A274  A(56,84,58)           116.2022         estimate D2E/DX2                !
 ! A275  A(56,84,83)           118.4948         estimate D2E/DX2                !
 ! A276  A(58,84,83)           118.4564         estimate D2E/DX2                !
 ! D1    D(17,1,5,9)            -2.7126         estimate D2E/DX2                !
 ! D2    D(17,1,5,29)         -151.3322         estimate D2E/DX2                !
 ! D3    D(25,1,5,9)           145.982          estimate D2E/DX2                !
 ! D4    D(25,1,5,29)           -2.6375         estimate D2E/DX2                !
 ! D5    D(5,1,17,15)           -5.4951         estimate D2E/DX2                !
 ! D6    D(5,1,17,19)          144.2093         estimate D2E/DX2                !
 ! D7    D(25,1,17,15)        -150.0553         estimate D2E/DX2                !
 ! D8    D(25,1,17,19)          -0.3509         estimate D2E/DX2                !
 ! D9    D(5,1,25,23)         -147.7148         estimate D2E/DX2                !
 ! D10   D(5,1,25,27)            2.8306         estimate D2E/DX2                !
 ! D11   D(17,1,25,23)           0.9859         estimate D2E/DX2                !
 ! D12   D(17,1,25,27)         151.5313         estimate D2E/DX2                !
 ! D13   D(43,2,6,10)         -149.175          estimate D2E/DX2                !
 ! D14   D(43,2,6,15)           -3.4421         estimate D2E/DX2                !
 ! D15   D(44,2,6,10)           -5.5006         estimate D2E/DX2                !
 ! D16   D(44,2,6,15)          140.2323         estimate D2E/DX2                !
 ! D17   D(6,2,43,13)            2.6745         estimate D2E/DX2                !
 ! D18   D(6,2,43,39)          151.6502         estimate D2E/DX2                !
 ! D19   D(44,2,43,13)        -140.2743         estimate D2E/DX2                !
 ! D20   D(44,2,43,39)           8.7014         estimate D2E/DX2                !
 ! D21   D(6,2,44,40)         -152.9559         estimate D2E/DX2                !
 ! D22   D(6,2,44,47)            1.0236         estimate D2E/DX2                !
 ! D23   D(43,2,44,40)         -14.5731         estimate D2E/DX2                !
 ! D24   D(43,2,44,47)         139.4064         estimate D2E/DX2                !
 ! D25   D(18,3,7,12)            2.7132         estimate D2E/DX2                !
 ! D26   D(18,3,7,30)          151.3331         estimate D2E/DX2                !
 ! D27   D(26,3,7,12)         -145.9826         estimate D2E/DX2                !
 ! D28   D(26,3,7,30)            2.6373         estimate D2E/DX2                !
 ! D29   D(7,3,18,16)            5.4952         estimate D2E/DX2                !
 ! D30   D(7,3,18,20)         -144.2088         estimate D2E/DX2                !
 ! D31   D(26,3,18,16)         150.0572         estimate D2E/DX2                !
 ! D32   D(26,3,18,20)           0.3532         estimate D2E/DX2                !
 ! D33   D(7,3,26,24)          147.7147         estimate D2E/DX2                !
 ! D34   D(7,3,26,28)           -2.8323         estimate D2E/DX2                !
 ! D35   D(18,3,26,24)          -0.9875         estimate D2E/DX2                !
 ! D36   D(18,3,26,28)        -151.5344         estimate D2E/DX2                !
 ! D37   D(45,4,8,11)            5.5005         estimate D2E/DX2                !
 ! D38   D(45,4,8,16)         -140.2325         estimate D2E/DX2                !
 ! D39   D(46,4,8,11)          149.174          estimate D2E/DX2                !
 ! D40   D(46,4,8,16)            3.4409         estimate D2E/DX2                !
 ! D41   D(8,4,45,41)          152.9549         estimate D2E/DX2                !
 ! D42   D(8,4,45,48)           -1.0218         estimate D2E/DX2                !
 ! D43   D(46,4,45,41)          14.5728         estimate D2E/DX2                !
 ! D44   D(46,4,45,48)        -139.4038         estimate D2E/DX2                !
 ! D45   D(8,4,46,14)           -2.6732         estimate D2E/DX2                !
 ! D46   D(8,4,46,42)         -151.6499         estimate D2E/DX2                !
 ! D47   D(45,4,46,14)         140.2746         estimate D2E/DX2                !
 ! D48   D(45,4,46,42)          -8.7021         estimate D2E/DX2                !
 ! D49   D(1,5,9,13)             7.843          estimate D2E/DX2                !
 ! D50   D(1,5,9,35)          -145.9538         estimate D2E/DX2                !
 ! D51   D(29,5,9,13)          152.3615         estimate D2E/DX2                !
 ! D52   D(29,5,9,35)           -1.4353         estimate D2E/DX2                !
 ! D53   D(1,5,29,27)            1.526          estimate D2E/DX2                !
 ! D54   D(1,5,29,31)          152.496          estimate D2E/DX2                !
 ! D55   D(9,5,29,27)         -147.3547         estimate D2E/DX2                !
 ! D56   D(9,5,29,31)            3.6154         estimate D2E/DX2                !
 ! D57   D(2,6,10,49)           -9.3743         estimate D2E/DX2                !
 ! D58   D(2,6,10,53)          138.649          estimate D2E/DX2                !
 ! D59   D(15,6,10,49)        -150.9319         estimate D2E/DX2                !
 ! D60   D(15,6,10,53)          -2.9086         estimate D2E/DX2                !
 ! D61   D(2,6,15,13)            2.8714         estimate D2E/DX2                !
 ! D62   D(2,6,15,17)         -143.3467         estimate D2E/DX2                !
 ! D63   D(10,6,15,13)         148.4225         estimate D2E/DX2                !
 ! D64   D(10,6,15,17)           2.2044         estimate D2E/DX2                !
 ! D65   D(3,7,12,14)           -7.8436         estimate D2E/DX2                !
 ! D66   D(3,7,12,36)          145.9559         estimate D2E/DX2                !
 ! D67   D(30,7,12,14)        -152.3634         estimate D2E/DX2                !
 ! D68   D(30,7,12,36)           1.4361         estimate D2E/DX2                !
 ! D69   D(3,7,30,28)           -1.5237         estimate D2E/DX2                !
 ! D70   D(3,7,30,32)         -152.4992         estimate D2E/DX2                !
 ! D71   D(12,7,30,28)         147.3579         estimate D2E/DX2                !
 ! D72   D(12,7,30,32)          -3.6177         estimate D2E/DX2                !
 ! D73   D(4,8,11,50)            9.3727         estimate D2E/DX2                !
 ! D74   D(4,8,11,54)         -138.647          estimate D2E/DX2                !
 ! D75   D(16,8,11,50)         150.93           estimate D2E/DX2                !
 ! D76   D(16,8,11,54)           2.9103         estimate D2E/DX2                !
 ! D77   D(4,8,16,14)           -2.8709         estimate D2E/DX2                !
 ! D78   D(4,8,16,18)          143.3468         estimate D2E/DX2                !
 ! D79   D(11,8,16,14)        -148.4224         estimate D2E/DX2                !
 ! D80   D(11,8,16,18)          -2.2047         estimate D2E/DX2                !
 ! D81   D(5,9,13,15)           -4.923          estimate D2E/DX2                !
 ! D82   D(5,9,13,43)         -148.9266         estimate D2E/DX2                !
 ! D83   D(35,9,13,15)         148.8331         estimate D2E/DX2                !
 ! D84   D(35,9,13,43)           4.8295         estimate D2E/DX2                !
 ! D85   D(5,9,35,33)           -4.3813         estimate D2E/DX2                !
 ! D86   D(5,9,35,37)          150.0103         estimate D2E/DX2                !
 ! D87   D(13,9,35,33)        -157.038          estimate D2E/DX2                !
 ! D88   D(13,9,35,37)          -2.6464         estimate D2E/DX2                !
 ! D89   D(6,10,49,47)          26.2459         estimate D2E/DX2                !
 ! D90   D(6,10,49,51)         144.6007         estimate D2E/DX2                !
 ! D91   D(6,10,49,91)         -95.833          estimate D2E/DX2                !
 ! D92   D(53,10,49,47)       -124.0208         estimate D2E/DX2                !
 ! D93   D(53,10,49,51)         -5.666          estimate D2E/DX2                !
 ! D94   D(53,10,49,91)        113.9003         estimate D2E/DX2                !
 ! D95   D(6,10,53,19)           1.5647         estimate D2E/DX2                !
 ! D96   D(6,10,53,55)        -146.7603         estimate D2E/DX2                !
 ! D97   D(49,10,53,19)        152.8142         estimate D2E/DX2                !
 ! D98   D(49,10,53,55)          4.4892         estimate D2E/DX2                !
 ! D99   D(8,11,50,48)         -26.2431         estimate D2E/DX2                !
 ! D100  D(8,11,50,52)        -144.5974         estimate D2E/DX2                !
 ! D101  D(8,11,50,92)          95.8382         estimate D2E/DX2                !
 ! D102  D(54,11,50,48)        124.0208         estimate D2E/DX2                !
 ! D103  D(54,11,50,52)          5.6665         estimate D2E/DX2                !
 ! D104  D(54,11,50,92)       -113.8979         estimate D2E/DX2                !
 ! D105  D(8,11,54,20)          -1.5667         estimate D2E/DX2                !
 ! D106  D(8,11,54,56)         146.7572         estimate D2E/DX2                !
 ! D107  D(50,11,54,20)       -152.8139         estimate D2E/DX2                !
 ! D108  D(50,11,54,56)         -4.4899         estimate D2E/DX2                !
 ! D109  D(7,12,14,16)           4.9232         estimate D2E/DX2                !
 ! D110  D(7,12,14,46)         148.9269         estimate D2E/DX2                !
 ! D111  D(36,12,14,16)       -148.8355         estimate D2E/DX2                !
 ! D112  D(36,12,14,46)         -4.8318         estimate D2E/DX2                !
 ! D113  D(7,12,36,34)           4.3832         estimate D2E/DX2                !
 ! D114  D(7,12,36,38)        -150.0097         estimate D2E/DX2                !
 ! D115  D(14,12,36,34)        157.042          estimate D2E/DX2                !
 ! D116  D(14,12,36,38)          2.6491         estimate D2E/DX2                !
 ! D117  D(9,13,15,6)         -148.9575         estimate D2E/DX2                !
 ! D118  D(9,13,15,17)          -3.3196         estimate D2E/DX2                !
 ! D119  D(43,13,15,6)          -1.2082         estimate D2E/DX2                !
 ! D120  D(43,13,15,17)        144.4297         estimate D2E/DX2                !
 ! D121  D(9,13,43,2)          147.4652         estimate D2E/DX2                !
 ! D122  D(9,13,43,39)          -2.2994         estimate D2E/DX2                !
 ! D123  D(15,13,43,2)          -0.9338         estimate D2E/DX2                !
 ! D124  D(15,13,43,39)       -150.6983         estimate D2E/DX2                !
 ! D125  D(12,14,16,8)         148.9576         estimate D2E/DX2                !
 ! D126  D(12,14,16,18)          3.3201         estimate D2E/DX2                !
 ! D127  D(46,14,16,8)           1.2086         estimate D2E/DX2                !
 ! D128  D(46,14,16,18)       -144.429          estimate D2E/DX2                !
 ! D129  D(12,14,46,4)        -147.4668         estimate D2E/DX2                !
 ! D130  D(12,14,46,42)          2.2994         estimate D2E/DX2                !
 ! D131  D(16,14,46,4)           0.9327         estimate D2E/DX2                !
 ! D132  D(16,14,46,42)        150.6989         estimate D2E/DX2                !
 ! D133  D(6,15,17,1)          149.5925         estimate D2E/DX2                !
 ! D134  D(6,15,17,19)          -0.0597         estimate D2E/DX2                !
 ! D135  D(13,15,17,1)           8.4419         estimate D2E/DX2                !
 ! D136  D(13,15,17,19)       -141.2103         estimate D2E/DX2                !
 ! D137  D(8,16,18,3)         -149.593          estimate D2E/DX2                !
 ! D138  D(8,16,18,20)           0.0589         estimate D2E/DX2                !
 ! D139  D(14,16,18,3)          -8.4425         estimate D2E/DX2                !
 ! D140  D(14,16,18,20)        141.2094         estimate D2E/DX2                !
 ! D141  D(1,17,19,21)          -0.3989         estimate D2E/DX2                !
 ! D142  D(1,17,19,53)        -150.0295         estimate D2E/DX2                !
 ! D143  D(15,17,19,21)        148.3879         estimate D2E/DX2                !
 ! D144  D(15,17,19,53)         -1.2428         estimate D2E/DX2                !
 ! D145  D(3,18,20,22)           0.3983         estimate D2E/DX2                !
 ! D146  D(3,18,20,54)         150.0296         estimate D2E/DX2                !
 ! D147  D(16,18,20,22)       -148.388          estimate D2E/DX2                !
 ! D148  D(16,18,20,54)          1.2433         estimate D2E/DX2                !
 ! D149  D(17,19,21,23)          0.5581         estimate D2E/DX2                !
 ! D150  D(17,19,21,57)       -144.4234         estimate D2E/DX2                !
 ! D151  D(53,19,21,23)        151.0308         estimate D2E/DX2                !
 ! D152  D(53,19,21,57)          6.0494         estimate D2E/DX2                !
 ! D153  D(17,19,53,10)          0.5366         estimate D2E/DX2                !
 ! D154  D(17,19,53,55)        144.5152         estimate D2E/DX2                !
 ! D155  D(21,19,53,10)       -149.7401         estimate D2E/DX2                !
 ! D156  D(21,19,53,55)         -5.7615         estimate D2E/DX2                !
 ! D157  D(18,20,22,24)         -0.5599         estimate D2E/DX2                !
 ! D158  D(18,20,22,58)        144.4226         estimate D2E/DX2                !
 ! D159  D(54,20,22,24)       -151.0338         estimate D2E/DX2                !
 ! D160  D(54,20,22,58)         -6.0513         estimate D2E/DX2                !
 ! D161  D(18,20,54,11)         -0.5358         estimate D2E/DX2                !
 ! D162  D(18,20,54,56)       -144.5129         estimate D2E/DX2                !
 ! D163  D(22,20,54,11)        149.7418         estimate D2E/DX2                !
 ! D164  D(22,20,54,56)          5.7647         estimate D2E/DX2                !
 ! D165  D(19,21,23,25)          0.0609         estimate D2E/DX2                !
 ! D166  D(19,21,23,61)       -149.9639         estimate D2E/DX2                !
 ! D167  D(57,21,23,25)        149.1657         estimate D2E/DX2                !
 ! D168  D(57,21,23,61)         -0.8591         estimate D2E/DX2                !
 ! D169  D(19,21,57,59)        148.636          estimate D2E/DX2                !
 ! D170  D(19,21,57,83)         -0.4151         estimate D2E/DX2                !
 ! D171  D(23,21,57,59)         -0.4915         estimate D2E/DX2                !
 ! D172  D(23,21,57,83)       -149.5425         estimate D2E/DX2                !
 ! D173  D(20,22,24,26)         -0.0582         estimate D2E/DX2                !
 ! D174  D(20,22,24,62)        149.9699         estimate D2E/DX2                !
 ! D175  D(58,22,24,26)       -149.1636         estimate D2E/DX2                !
 ! D176  D(58,22,24,62)          0.8645         estimate D2E/DX2                !
 ! D177  D(20,22,58,60)       -148.6408         estimate D2E/DX2                !
 ! D178  D(20,22,58,84)          0.411          estimate D2E/DX2                !
 ! D179  D(24,22,58,60)          0.4875         estimate D2E/DX2                !
 ! D180  D(24,22,58,84)        149.5394         estimate D2E/DX2                !
 ! D181  D(21,23,25,1)          -0.8236         estimate D2E/DX2                !
 ! D182  D(21,23,25,27)       -148.3279         estimate D2E/DX2                !
 ! D183  D(61,23,25,1)         146.1164         estimate D2E/DX2                !
 ! D184  D(61,23,25,27)         -1.3879         estimate D2E/DX2                !
 ! D185  D(21,23,61,59)          1.7311         estimate D2E/DX2                !
 ! D186  D(21,23,61,63)        117.4848         estimate D2E/DX2                !
 ! D187  D(21,23,61,89)       -120.3642         estimate D2E/DX2                !
 ! D188  D(25,23,61,59)       -147.7534         estimate D2E/DX2                !
 ! D189  D(25,23,61,63)        -31.9996         estimate D2E/DX2                !
 ! D190  D(25,23,61,89)         90.1513         estimate D2E/DX2                !
 ! D191  D(22,24,26,3)           0.8227         estimate D2E/DX2                !
 ! D192  D(22,24,26,28)        148.3274         estimate D2E/DX2                !
 ! D193  D(62,24,26,3)        -146.1195         estimate D2E/DX2                !
 ! D194  D(62,24,26,28)          1.3852         estimate D2E/DX2                !
 ! D195  D(22,24,62,60)         -1.7355         estimate D2E/DX2                !
 ! D196  D(22,24,62,64)       -117.489          estimate D2E/DX2                !
 ! D197  D(22,24,62,90)        120.3622         estimate D2E/DX2                !
 ! D198  D(26,24,62,60)        147.7512         estimate D2E/DX2                !
 ! D199  D(26,24,62,64)         31.9977         estimate D2E/DX2                !
 ! D200  D(26,24,62,90)        -90.1512         estimate D2E/DX2                !
 ! D201  D(1,25,27,29)          -1.7975         estimate D2E/DX2                !
 ! D202  D(1,25,27,65)        -116.5921         estimate D2E/DX2                !
 ! D203  D(1,25,27,85)         120.9227         estimate D2E/DX2                !
 ! D204  D(23,25,27,29)        148.2519         estimate D2E/DX2                !
 ! D205  D(23,25,27,65)         33.4573         estimate D2E/DX2                !
 ! D206  D(23,25,27,85)        -89.0278         estimate D2E/DX2                !
 ! D207  D(3,26,28,30)           1.8004         estimate D2E/DX2                !
 ! D208  D(3,26,28,66)         116.5956         estimate D2E/DX2                !
 ! D209  D(3,26,28,88)        -120.9223         estimate D2E/DX2                !
 ! D210  D(24,26,28,30)       -148.2499         estimate D2E/DX2                !
 ! D211  D(24,26,28,66)        -33.4547         estimate D2E/DX2                !
 ! D212  D(24,26,28,88)         89.0274         estimate D2E/DX2                !
 ! D213  D(25,27,29,5)           0.1436         estimate D2E/DX2                !
 ! D214  D(25,27,29,31)       -150.0176         estimate D2E/DX2                !
 ! D215  D(65,27,29,5)         115.7446         estimate D2E/DX2                !
 ! D216  D(65,27,29,31)        -34.4166         estimate D2E/DX2                !
 ! D217  D(85,27,29,5)        -122.0478         estimate D2E/DX2                !
 ! D218  D(85,27,29,31)         87.7911         estimate D2E/DX2                !
 ! D219  D(25,27,65,63)        -31.4292         estimate D2E/DX2                !
 ! D220  D(25,27,65,67)        142.6374         estimate D2E/DX2                !
 ! D221  D(29,27,65,63)       -140.914          estimate D2E/DX2                !
 ! D222  D(29,27,65,67)         33.1526         estimate D2E/DX2                !
 ! D223  D(85,27,65,63)         93.7148         estimate D2E/DX2                !
 ! D224  D(85,27,65,67)        -92.2186         estimate D2E/DX2                !
 ! D225  D(26,28,30,7)          -0.1467         estimate D2E/DX2                !
 ! D226  D(26,28,30,32)        150.0185         estimate D2E/DX2                !
 ! D227  D(66,28,30,7)        -115.7451         estimate D2E/DX2                !
 ! D228  D(66,28,30,32)         34.4201         estimate D2E/DX2                !
 ! D229  D(88,28,30,7)         122.046          estimate D2E/DX2                !
 ! D230  D(88,28,30,32)        -87.7888         estimate D2E/DX2                !
 ! D231  D(26,28,66,64)         31.4315         estimate D2E/DX2                !
 ! D232  D(26,28,66,68)       -142.6324         estimate D2E/DX2                !
 ! D233  D(30,28,66,64)        140.9178         estimate D2E/DX2                !
 ! D234  D(30,28,66,68)        -33.1462         estimate D2E/DX2                !
 ! D235  D(88,28,66,64)        -93.7093         estimate D2E/DX2                !
 ! D236  D(88,28,66,68)         92.2267         estimate D2E/DX2                !
 ! D237  D(5,29,31,33)           0.2528         estimate D2E/DX2                !
 ! D238  D(5,29,31,69)        -148.1621         estimate D2E/DX2                !
 ! D239  D(27,29,31,33)        148.1815         estimate D2E/DX2                !
 ! D240  D(27,29,31,69)         -0.2334         estimate D2E/DX2                !
 ! D241  D(7,30,32,34)          -0.2518         estimate D2E/DX2                !
 ! D242  D(7,30,32,70)         148.1617         estimate D2E/DX2                !
 ! D243  D(28,30,32,34)       -148.1843         estimate D2E/DX2                !
 ! D244  D(28,30,32,70)          0.2292         estimate D2E/DX2                !
 ! D245  D(29,31,33,35)         -6.5368         estimate D2E/DX2                !
 ! D246  D(29,31,33,73)       -155.684          estimate D2E/DX2                !
 ! D247  D(69,31,33,35)        144.5579         estimate D2E/DX2                !
 ! D248  D(69,31,33,73)         -4.5893         estimate D2E/DX2                !
 ! D249  D(29,31,69,67)         35.2188         estimate D2E/DX2                !
 ! D250  D(29,31,69,71)        151.6236         estimate D2E/DX2                !
 ! D251  D(29,31,69,86)        -85.9639         estimate D2E/DX2                !
 ! D252  D(33,31,69,67)       -115.5893         estimate D2E/DX2                !
 ! D253  D(33,31,69,71)          0.8155         estimate D2E/DX2                !
 ! D254  D(33,31,69,86)        123.228          estimate D2E/DX2                !
 ! D255  D(30,32,34,36)          6.5383         estimate D2E/DX2                !
 ! D256  D(30,32,34,74)        155.6849         estimate D2E/DX2                !
 ! D257  D(70,32,34,36)       -144.5553         estimate D2E/DX2                !
 ! D258  D(70,32,34,74)          4.5913         estimate D2E/DX2                !
 ! D259  D(30,32,70,68)        -35.2143         estimate D2E/DX2                !
 ! D260  D(30,32,70,72)       -151.6328         estimate D2E/DX2                !
 ! D261  D(30,32,70,87)         85.9582         estimate D2E/DX2                !
 ! D262  D(34,32,70,68)        115.5937         estimate D2E/DX2                !
 ! D263  D(34,32,70,72)         -0.8248         estimate D2E/DX2                !
 ! D264  D(34,32,70,87)       -123.2338         estimate D2E/DX2                !
 ! D265  D(31,33,35,9)           8.4127         estimate D2E/DX2                !
 ! D266  D(31,33,35,37)       -146.3736         estimate D2E/DX2                !
 ! D267  D(73,33,35,9)         152.9863         estimate D2E/DX2                !
 ! D268  D(73,33,35,37)         -1.8001         estimate D2E/DX2                !
 ! D269  D(31,33,73,71)          6.6506         estimate D2E/DX2                !
 ! D270  D(31,33,73,75)        152.5536         estimate D2E/DX2                !
 ! D271  D(35,33,73,71)       -142.6484         estimate D2E/DX2                !
 ! D272  D(35,33,73,75)          3.2547         estimate D2E/DX2                !
 ! D273  D(32,34,36,12)         -8.4156         estimate D2E/DX2                !
 ! D274  D(32,34,36,38)        146.3717         estimate D2E/DX2                !
 ! D275  D(74,34,36,12)       -152.9886         estimate D2E/DX2                !
 ! D276  D(74,34,36,38)          1.7987         estimate D2E/DX2                !
 ! D277  D(32,34,74,72)         -6.6439         estimate D2E/DX2                !
 ! D278  D(32,34,74,76)       -152.5447         estimate D2E/DX2                !
 ! D279  D(36,34,74,72)        142.6526         estimate D2E/DX2                !
 ! D280  D(36,34,74,76)         -3.2482         estimate D2E/DX2                !
 ! D281  D(9,35,37,39)          -2.0254         estimate D2E/DX2                !
 ! D282  D(9,35,37,77)        -155.2596         estimate D2E/DX2                !
 ! D283  D(33,35,37,39)        151.7925         estimate D2E/DX2                !
 ! D284  D(33,35,37,77)         -1.4417         estimate D2E/DX2                !
 ! D285  D(12,36,38,42)          2.0245         estimate D2E/DX2                !
 ! D286  D(12,36,38,78)        155.2575         estimate D2E/DX2                !
 ! D287  D(34,36,38,42)       -151.7952         estimate D2E/DX2                !
 ! D288  D(34,36,38,78)          1.4377         estimate D2E/DX2                !
 ! D289  D(35,37,39,43)          4.5421         estimate D2E/DX2                !
 ! D290  D(35,37,39,79)       -147.3506         estimate D2E/DX2                !
 ! D291  D(77,37,39,43)        158.0129         estimate D2E/DX2                !
 ! D292  D(77,37,39,79)          6.1201         estimate D2E/DX2                !
 ! D293  D(35,37,77,75)          3.2972         estimate D2E/DX2                !
 ! D294  D(35,37,77,81)        143.2535         estimate D2E/DX2                !
 ! D295  D(39,37,77,75)       -150.4456         estimate D2E/DX2                !
 ! D296  D(39,37,77,81)        -10.4894         estimate D2E/DX2                !
 ! D297  D(36,38,42,46)         -4.5435         estimate D2E/DX2                !
 ! D298  D(36,38,42,80)        147.3515         estimate D2E/DX2                !
 ! D299  D(78,38,42,46)       -158.013          estimate D2E/DX2                !
 ! D300  D(78,38,42,80)         -6.1179         estimate D2E/DX2                !
 ! D301  D(36,38,78,76)         -3.293          estimate D2E/DX2                !
 ! D302  D(36,38,78,81)       -143.2505         estimate D2E/DX2                !
 ! D303  D(42,38,78,76)        150.4486         estimate D2E/DX2                !
 ! D304  D(42,38,78,81)         10.4911         estimate D2E/DX2                !
 ! D305  D(37,39,43,2)        -147.8264         estimate D2E/DX2                !
 ! D306  D(37,39,43,13)         -2.4509         estimate D2E/DX2                !
 ! D307  D(79,39,43,2)           5.4919         estimate D2E/DX2                !
 ! D308  D(79,39,43,13)        150.8674         estimate D2E/DX2                !
 ! D309  D(37,39,79,40)        140.2086         estimate D2E/DX2                !
 ! D310  D(37,39,79,82)          1.1066         estimate D2E/DX2                !
 ! D311  D(43,39,79,40)        -13.0124         estimate D2E/DX2                !
 ! D312  D(43,39,79,82)       -152.1144         estimate D2E/DX2                !
[...]
 Alpha virt. eigenvalues --    1.31602   1.31699   1.32168   1.32182   1.33117
 Alpha virt. eigenvalues --    1.33117   1.33525   1.33984   1.34427   1.34910
 Alpha virt. eigenvalues --    1.34934   1.35731   1.36034   1.36575   1.36675
 Alpha virt. eigenvalues --    1.37113   1.37307   1.37746   1.38618   1.40181
 Alpha virt. eigenvalues --    1.40752   1.40860   1.41763   1.41875   1.42179
 Alpha virt. eigenvalues --    1.42704   1.42838   1.43228   1.44408   1.45290
 Alpha virt. eigenvalues --    1.45959   1.46542   1.46862   1.47103   1.47519
 Alpha virt. eigenvalues --    1.47724   1.48106   1.48300   1.48805   1.49703
 Alpha virt. eigenvalues --    1.49840   1.50570   1.51478   1.51638   1.51936
 Alpha virt. eigenvalues --    1.52717   1.53294   1.53768   1.54106   1.54916
 Alpha virt. eigenvalues --    1.55276   1.56142   1.56246   1.56595   1.56812
 Alpha virt. eigenvalues --    1.57329   1.57543   1.59152   1.59527   1.59813
 Alpha virt. eigenvalues --    1.60131   1.60867   1.61363   1.61700   1.62543
 Alpha virt. eigenvalues --    1.62807   1.63164   1.63195   1.63771   1.64201
 Alpha virt. eigenvalues --    1.64400   1.64646   1.64714   1.64939   1.65116
 Alpha virt. eigenvalues --    1.65556   1.66086   1.66133   1.66233   1.66597
 Alpha virt. eigenvalues --    1.66757   1.67261   1.67654   1.67928   1.68029
 Alpha virt. eigenvalues --    1.68226   1.68327   1.68468   1.68952   1.69213
 Alpha virt. eigenvalues --    1.69234   1.69362   1.69422   1.69595   1.70150
 Alpha virt. eigenvalues --    1.70347   1.70486   1.70982   1.71124   1.71193
 Alpha virt. eigenvalues --    1.71484   1.71874   1.71891   1.71900   1.72699
 Alpha virt. eigenvalues --    1.73068   1.73351   1.73674   1.73982   1.74036
 Alpha virt. eigenvalues --    1.74430   1.74657   1.74691   1.74904   1.75039
 Alpha virt. eigenvalues --    1.75167   1.75385   1.75588   1.76048   1.76237
 Alpha virt. eigenvalues --    1.76594   1.76699   1.77041   1.77254   1.77598
 Alpha virt. eigenvalues --    1.77782   1.78371   1.78483   1.78506   1.78774
 Alpha virt. eigenvalues --    1.79060   1.79388   1.79626   1.79764   1.79953
 Alpha virt. eigenvalues --    1.79982   1.80237   1.80460   1.80780   1.81692
 Alpha virt. eigenvalues --    1.81845   1.82050   1.82265   1.82502   1.82870
 Alpha virt. eigenvalues --    1.82929   1.83361   1.83662   1.83826   1.84399
 Alpha virt. eigenvalues --    1.84428   1.85229   1.85790   1.85813   1.86757
 Alpha virt. eigenvalues --    1.87251   1.87771   1.88292   1.88355   1.88386
 Alpha virt. eigenvalues --    1.88785   1.88809   1.89426   1.90285   1.90643
 Alpha virt. eigenvalues --    1.91284   1.91416   1.91706   1.91982   1.92572
 Alpha virt. eigenvalues --    1.92879   1.93092   1.93403   1.93922   1.94508
 Alpha virt. eigenvalues --    1.94787   1.95246   1.95451   1.95626   1.96103
 Alpha virt. eigenvalues --    1.96212   1.96642   1.96694   1.97089   1.97277
 Alpha virt. eigenvalues --    1.97948   1.98052   1.98079   1.98607   1.98925
 Alpha virt. eigenvalues --    1.99367   1.99567   1.99665   1.99705   2.00186
 Alpha virt. eigenvalues --    2.00311   2.00433   2.01029   2.01098   2.01162
 Alpha virt. eigenvalues --    2.01382   2.01609   2.01733   2.02313   2.02887
 Alpha virt. eigenvalues --    2.03115   2.03253   2.03616   2.03765   2.03796
 Alpha virt. eigenvalues --    2.04466   2.04627   2.04831   2.05400   2.06278
 Alpha virt. eigenvalues --    2.06379   2.06739   2.07569   2.07892   2.08015
 Alpha virt. eigenvalues --    2.08585   2.08866   2.09238   2.09594   2.09986
 Alpha virt. eigenvalues --    2.10601   2.10684   2.11057   2.11484   2.11616
 Alpha virt. eigenvalues --    2.12141   2.12158   2.12721   2.12941   2.13162
 Alpha virt. eigenvalues --    2.13594   2.14654   2.15754   2.16183   2.16358
 Alpha virt. eigenvalues --    2.17145   2.17487   2.17529   2.17796   2.18258
 Alpha virt. eigenvalues --    2.18449   2.19014   2.19254   2.19879   2.20610
 Alpha virt. eigenvalues --    2.20911   2.21298   2.21443   2.21604   2.22451
 Alpha virt. eigenvalues --    2.22482   2.22894   2.23368   2.24167   2.24260
 Alpha virt. eigenvalues --    2.24647   2.24732   2.25193   2.25723   2.26528
 Alpha virt. eigenvalues --    2.26864   2.27018   2.27194   2.27686   2.27965
 Alpha virt. eigenvalues --    2.28616   2.29101   2.29301   2.29377   2.29849
 Alpha virt. eigenvalues --    2.30345   2.30744   2.31074   2.31977   2.32198
 Alpha virt. eigenvalues --    2.33259   2.33326   2.33538   2.34057   2.34651
 Alpha virt. eigenvalues --    2.35508   2.36171   2.36319   2.37113   2.37158
 Alpha virt. eigenvalues --    2.38770   2.39326   2.39426   2.39923   2.40007
 Alpha virt. eigenvalues --    2.40517   2.40926   2.41574   2.41825   2.42252
 Alpha virt. eigenvalues --    2.42792   2.42928   2.42988   2.43362   2.43669
 Alpha virt. eigenvalues --    2.45074   2.45179   2.45212   2.46066   2.47062
 Alpha virt. eigenvalues --    2.47748   2.48057   2.48542   2.49379   2.50522
 Alpha virt. eigenvalues --    2.50829   2.51150   2.52110   2.52424   2.52563
 Alpha virt. eigenvalues --    2.53002   2.53044   2.53349   2.53552   2.54275
 Alpha virt. eigenvalues --    2.54363   2.54977   2.55036   2.56193   2.56778
 Alpha virt. eigenvalues --    2.56884   2.57078   2.57261   2.57417   2.57727
 Alpha virt. eigenvalues --    2.57815   2.58042   2.58388   2.58687   2.58931
 Alpha virt. eigenvalues --    2.59133   2.59440   2.60158   2.60378   2.60676
 Alpha virt. eigenvalues --    2.61054   2.61541   2.61721   2.62257   2.62298
 Alpha virt. eigenvalues --    2.62720   2.63291   2.63867   2.63956   2.64367
 Alpha virt. eigenvalues --    2.64417   2.65286   2.65455   2.65844   2.66501
 Alpha virt. eigenvalues --    2.67147   2.67469   2.67749   2.68010   2.68078
 Alpha virt. eigenvalues --    2.68636   2.69169   2.69174   2.69398   2.69793
 Alpha virt. eigenvalues --    2.70156   2.70638   2.71054   2.71111   2.71685
 Alpha virt. eigenvalues --    2.72014   2.72388   2.72476   2.73422   2.73705
 Alpha virt. eigenvalues --    2.74229   2.74292   2.74664   2.75294   2.75456
 Alpha virt. eigenvalues --    2.75650   2.76242   2.76663   2.76763   2.77270
 Alpha virt. eigenvalues --    2.77381   2.77742   2.78514   2.78558   2.79179
 Alpha virt. eigenvalues --    2.80225   2.80610   2.80903   2.80993   2.81786
 Alpha virt. eigenvalues --    2.82763   2.82774   2.83621   2.83909   2.84146
 Alpha virt. eigenvalues --    2.84575   2.84668   2.85613   2.86993   2.87267
 Alpha virt. eigenvalues --    2.88019   2.88367   2.88635   2.88973   2.90019
 Alpha virt. eigenvalues --    2.90095   2.90737   2.91247   2.91418   2.91735
 Alpha virt. eigenvalues --    2.91980   2.92210   2.92412   2.92545   2.93228
 Alpha virt. eigenvalues --    2.93933   2.94103   2.94455   2.95874   2.96173
 Alpha virt. eigenvalues --    2.96761   2.97286   2.98616   3.00276   3.00460
 Alpha virt. eigenvalues --    3.01128   3.01850   3.03178   3.04518   3.05069
 Alpha virt. eigenvalues --    3.05755   3.07060   3.08499   3.09449   3.11099
 Alpha virt. eigenvalues --    3.12043   3.15327   3.16394   3.16875   3.19178
 Alpha virt. eigenvalues --    3.20375   3.21313   3.22627   3.22644   3.23350
 Alpha virt. eigenvalues --    3.25312   3.25648   3.29602   3.29860   3.32207
 Alpha virt. eigenvalues --    3.32769   3.36138   3.36234   3.38440   3.39166
 Alpha virt. eigenvalues --    3.41032   3.43622   3.45474   3.46971   3.49273
 Alpha virt. eigenvalues --    3.51342   3.51876   3.54948   3.58861   3.70311
 Alpha virt. eigenvalues --    4.00995   4.01286   4.01927   4.02744   4.03078
 Alpha virt. eigenvalues --    4.03517   4.03837   4.05427   4.05630   4.05813
 Alpha virt. eigenvalues --    4.06357   4.07871   4.08182   4.08664   4.09144
 Alpha virt. eigenvalues --    4.09471   4.10156   4.10504   4.10986   4.12066
 Alpha virt. eigenvalues --    4.12089   4.13110   4.15787   4.16567   4.16674
 Alpha virt. eigenvalues --    4.16697   4.18206   4.18484   4.19774   4.19912
 Alpha virt. eigenvalues --    4.20991   4.22127   4.22842   4.23812   4.24219
 Alpha virt. eigenvalues --    4.25502   4.25525   4.26779   4.27482   4.27697
 Alpha virt. eigenvalues --    4.28049   4.28494   4.29103   4.29389   4.30052
 Alpha virt. eigenvalues --    4.31307   4.32865   4.34604   4.34929   4.37039
 Alpha virt. eigenvalues --    4.38572   4.39649   4.40492   4.40791   4.41603
 Alpha virt. eigenvalues --    4.42265   4.43738   4.46386   4.47153   4.48232
 Alpha virt. eigenvalues --    4.48393   4.49793   4.50594   4.53062   4.53705
 Alpha virt. eigenvalues --    4.56752   4.58712   4.59390   4.59970   4.62284
 Alpha virt. eigenvalues --    4.63113   4.63716   4.65435   4.67525   4.69400
 Alpha virt. eigenvalues --    4.73911   4.79083   4.80336   4.82142   4.82306
 Alpha virt. eigenvalues --    4.85752   4.87215   4.90452   4.93548   4.95537
 Alpha virt. eigenvalues --    5.00580   5.05483   5.07753   5.11146   5.16615
 Alpha virt. eigenvalues --    5.18170   5.30003
          Condensed to atoms (all electrons):
 Mulliken charges:
               1
     1  C    0.003354
     2  C   -0.040850
     3  C    0.003354
     4  C   -0.040850
     5  C    0.006875
     6  C    0.002198
     7  C    0.006875
     8  C    0.002198
     9  C    0.047135
    10  C    0.078377
    11  C    0.078377
    12  C    0.047135
    13  C   -0.029436
    14  C   -0.029436
    15  C   -0.023276
    16  C   -0.023276
    17  C    0.049608
    18  C    0.049609
    19  C    0.041243
    20  C    0.041243
    21  C    0.009462
    22  C    0.009462
    23  C    0.083963
    24  C    0.083963
    25  C    0.089349
    26  C    0.089350
    27  C   -0.375345
    28  C   -0.375346
    29  C    0.086035
    30  C    0.086035
    31  C    0.086189
    32  C    0.086190
    33  C    0.001960
    34  C    0.001959
    35  C    0.035201
    36  C    0.035201
    37  C    0.049103
    38  C    0.049103
    39  C    0.055164
    40  C   -0.032585
    41  C   -0.032585
    42  C    0.055164
    43  C   -0.024638
    44  C    0.090141
    45  C    0.090141
    46  C   -0.024638
    47  C    0.102436
    48  C    0.102436
    49  C   -0.357983
    50  C   -0.357983
    51  C    0.092620
    52  C    0.092620
    53  C    0.010486
    54  C    0.010486
    55  C    0.006277
    56  C    0.006276
    57  C    0.009194
    58  C    0.009194
    59  C    0.089726
    60  C    0.089726
    61  C   -0.374608
    62  C   -0.374608
    63  C    0.125374
    64  C    0.125375
    65  C    0.129227
    66  C    0.129227
    67  C    0.125483
    68  C    0.125482
    69  C   -0.372158
    70  C   -0.372158
    71  C    0.090251
    72  C    0.090252
    73  C    0.024905
    74  C    0.024906
    75  C   -0.016474
    76  C   -0.016474
    77  C   -0.024983
    78  C   -0.024982
    79  C   -0.023220
    80  C   -0.023220
    81  C   -0.005502
    82  C   -0.017010
    83  C    0.043044
    84  C    0.043045
    85  Cl   0.017956
    86  Cl   0.011859
    87  Cl   0.011859
    88  Cl   0.017956
    89  Cl   0.016952
    90  Cl   0.016952
    91  Cl  -0.004335
    92  Cl  -0.004335
 Sum of Mulliken charges =  -0.00000
 Mulliken charges with hydrogens summed into heavy atoms:
               1
     1  C    0.003354
     2  C   -0.040850
     3  C    0.003354
     4  C   -0.040850
     5  C    0.006875
     6  C    0.002198
     7  C    0.006875
     8  C    0.002198
     9  C    0.047135
    10  C    0.078377
    11  C    0.078377
    12  C    0.047135
    13  C   -0.029436
    14  C   -0.029436
    15  C   -0.023276
    16  C   -0.023276
    17  C    0.049608
    18  C    0.049609
    19  C    0.041243
    20  C    0.041243
    21  C    0.009462
    22  C    0.009462
    23  C    0.083963
    24  C    0.083963
    25  C    0.089349
    26  C    0.089350
    27  C   -0.375345
    28  C   -0.375346
    29  C    0.086035
    30  C    0.086035
    31  C    0.086189
    32  C    0.086190
    33  C    0.001960
    34  C    0.001959
    35  C    0.035201
    36  C    0.035201
    37  C    0.049103
    38  C    0.049103
    39  C    0.055164
    40  C   -0.032585
    41  C   -0.032585
    42  C    0.055164
    43  C   -0.024638
    44  C    0.090141
    45  C    0.090141
    46  C   -0.024638
    47  C    0.102436
    48  C    0.102436
    49  C   -0.357983
    50  C   -0.357983
    51  C    0.092620
    52  C    0.092620
    53  C    0.010486
    54  C    0.010486
    55  C    0.006277
    56  C    0.006276
    57  C    0.009194
    58  C    0.009194
    59  C    0.089726
    60  C    0.089726
    61  C   -0.374608
    62  C   -0.374608
    63  C    0.125374
    64  C    0.125375
    65  C    0.129227
    66  C    0.129227
    67  C    0.125483
    68  C    0.125482
    69  C   -0.372158
    70  C   -0.372158
    71  C    0.090251
    72  C    0.090252
    73  C    0.024905
    74  C    0.024906
    75  C   -0.016474
    76  C   -0.016474
    77  C   -0.024983
    78  C   -0.024982
    79  C   -0.023220
    80  C   -0.023220
    81  C   -0.005502
    82  C   -0.017010
    83  C    0.043044
    84  C    0.043045
    85  Cl   0.017956
    86  Cl   0.011859
    87  Cl   0.011859
    88  Cl   0.017956
    89  Cl   0.016952
    90  Cl   0.016952
    91  Cl  -0.004335
    92  Cl  -0.004335
 Electronic spatial extent (au):  <R**2>=          51451.7357
 Charge=             -0.0000 electrons
 Dipole moment (field-independent basis, Debye):
    X=              3.3103    Y=              1.7412    Z=              0.0000  Tot=              3.7403
 Quadrupole moment (field-independent basis, Debye-Ang):
   XX=           -607.4640   YY=           -557.0677   ZZ=           -558.2610
   XY=             -8.3462   XZ=              0.0000   YZ=             -0.0000
 Traceless Quadrupole moment (field-independent basis, Debye-Ang):
   XX=            -33.1998   YY=             17.1966   ZZ=             16.0032
   XY=             -8.3462   XZ=              0.0000   YZ=             -0.0000
 Octapole moment (field-independent basis, Debye-Ang**2):
  XXX=           -114.9677  YYY=            -43.5973  ZZZ=              0.0000  XYY=             11.3941
  XXY=             -0.1426  XXZ=              0.0001  XZZ=              4.9177  YZZ=             -9.2601
  YYZ=              0.0000  XYZ=             -0.0000
 Hexadecapole moment (field-independent basis, Debye-Ang**3):
 XXXX=         -32455.7041 YYYY=         -21562.4090 ZZZZ=         -20457.4047 XXXY=            300.6658
 XXXZ=              0.0000 YYYX=           -113.4840 YYYZ=              0.0005 ZZZX=              0.0002
 ZZZY=              0.0002 XXYY=          -8861.3310 XXZZ=          -8863.5764 YYZZ=          -6988.9778
 XXYZ=             -0.0002 YYXZ=              0.0002 ZZXY=            -36.3974
 N-N= 2.054151224046D+04 E-N=-5.723255792039D+04  KE= 6.841425579231D+03
 No NMR shielding tensors so no spin-rotation constants.
 Leave Link  601 at Sun Jun 26 20:59:11 2022, MaxMem=  1342177280 cpu:              24.1 elap:               1.2
 (Enter /home/mkliu/g16/l9999.exe)
 1\1\GINC-NODE05\FOpt\RB3LYP\6-31G(d,p)\C84Cl8\MKLIU\26-Jun-2022\0\\#P 
 opt b3lyp/6-31G(d, p) empiricaldispersion=GD3\\force\\0,1\C,8.27989561
 45,18.8937013087,10.5378346023\C,12.326483206,20.155350979,8.946883035
 \C,8.2763001074,26.8572756282,10.5378964707\C,12.3240253998,25.5993048
 79,8.9469254178\C,7.9685688149,18.9458664889,9.1427000881\C,11.8924032
 697,19.5787362593,10.2055100356\C,7.9650206964,26.8048515185,9.1427610
 669\C,11.8894250196,26.1755079242,10.205561323\C,8.9826179083,19.09976
 05467,8.1511685356\C,12.1633986704,20.2015343255,11.3882541895\C,12.16
 09825478,25.5529363464,11.3882958018\C,8.9792084641,26.6518885966,8.15
 12271784\C,10.3175377342,19.0211081962,8.6155919943\C,10.3140567028,26
 .7317385461,8.6156519129\C,10.6285379681,18.9098590182,9.9978657409\C,
 10.6249562602,26.8432468053,9.9979274254\C,9.6213168906,18.9399649437,
 10.999995307\C,9.6177626446,26.8122158874,11.0000564447\C,9.892486535,
 19.6365850557,12.2411933214\C,9.889561158,26.1158216786,12.241243567\C
 ,8.8036656471,20.2443276986,12.9215489863\C,8.8012894264,25.5070859133
 ,12.9215899098\C,7.4644935386,20.1710091812,12.4211382908\C,7.46205144
 64,25.5792030565,12.4211805263\C,7.2124169162,19.5082754931,11.2646523
 495\C,7.2093766447,26.241726704,11.2647047034\C,6.1001698431,19.932795
 2116,10.3307567899\C,6.0975137052,25.8162168964,10.3308023926\C,6.6789
 023898,19.5349676032,8.991340769\C,6.6758869404,26.2145882089,8.991392
 5475\C,6.3769720807,20.2013613823,7.8541071975\C,6.374558407,25.547940
 3292,7.8541483508\C,7.3472277534,20.3161538473,6.8049967935\C,7.344917
 5739,25.4340397649,6.8050365865\C,8.6831747368,19.8565864441,6.9462571
 253\C,8.6804488588,25.8948112763,6.9463039706\C,9.7490417295,20.586821
 1826,6.2552850121\C,9.7469744927,25.165549232,6.2553208759\C,11.098332
 8399,20.5771922146,6.8221717796\C,12.7935891757,22.1609653775,7.723791
 0043\C,12.7929420212,23.5941319345,7.723802193\C,11.096256335,25.17638
 76431,6.8222077241\C,11.3727967987,19.777982698,7.9658769871\C,12.9444
 351446,21.4401252965,8.9202505938\C,12.9431371545,24.3150894826,8.9202
 73041\C,11.3699986813,25.9758271715,7.965925155\C,13.1694483056,22.182
 7683538,10.1594624016\C,13.1688208257,23.5726305986,10.1594732373\C,13
 .1007893582,21.3987271589,11.4767619059\C,13.09945437,24.3565894763,11
 .4767850415\C,12.4359858355,22.1992165591,12.5762562272\C,12.435374025
 7,23.5554830354,12.5762674885\C,11.170601049,20.2502065762,12.41443736
 47\C,11.1682293483,25.5033519721,12.4144782634\C,11.324160343,21.47702
 49984,13.1235601606\C,11.3228964581,24.2766617362,13.1235819209\C,8.95
 73473113,21.4786199261,13.6231322093\C,8.9560857575,24.2729218318,13.6
 231535214\C,7.7218973309,22.1967921634,13.5608547924\C,7.7212848797,23
 .5536353491,13.5608652187\C,6.6699648526,21.3975442184,12.820022274\C,
 6.668630862,24.3519447399,12.8200455933\C,6.1884735235,22.167352982,11
 .5707296551\C,6.1878339708,23.5817209294,11.5707410126\C,5.9006451603,
 21.4634184955,10.3814089037\C,5.8993717823,24.2854136693,10.3814310989
 \C,5.5948810317,22.1684259578,9.1934202972\C,5.594245533,23.5801488936
 ,9.1934311533\C,5.4359226217,21.3921811078,7.8648146181\C,5.4345860571
 ,24.3562698668,7.8648377377\C,5.9588804626,22.1947064798,6.6949140413\
 C,5.9582694654,23.5542347644,6.6949277388\C,7.0246890288,21.4832764413
 ,6.0426008792\C,7.0234328141,24.2666375062,6.0426231107\C,8.0290079803
 ,22.1548879676,5.3613751883\C,8.0283578466,23.5959433128,5.3613875545\
 C,9.3874748693,21.6958827047,5.4489592503\C,9.3864094334,24.0561739428
 ,5.4489780346\C,11.9353150122,21.7075636374,6.6576597788\C,11.93425870
 08,24.0467748882,6.657678112\C,10.2231387091,22.8764064016,5.378962832
 7\C,11.4660050204,22.8769629448,5.9725296795\C,10.2061515466,22.153943
 9794,13.688251091\C,10.2054993092,23.5987248283,13.6882624959\Cl,4.520
 6409801,19.073190146,10.7136551151\Cl,3.6700338505,20.9196042674,7.637
 1661679\Cl,3.6682710146,24.8272548341,7.6371935056\Cl,4.5172076819,26.
 6743879132,10.7137111075\Cl,5.2313710499,20.9885550742,13.8931077001\C
 l,5.2296684042,24.7596171362,13.8931381622\Cl,14.8056741419,20.8494434
 613,11.9533238043\Cl,14.8038422269,24.9074054032,11.9533534816\\Versio
 n=ES64L-G16RevA.03\State=1-A\HF=-6882.6466922\RMSD=1.545e-09\RMSF=1.63
 9e-05\Dipole=1.3936151,0.0006339,-0.4725211\Quadrupole=-25.6838676,11.
 897989,13.7858787,-0.0169641,0.1022937,0.0000335\PG=C01 [X(C84Cl8)]\\@


 CHILDREN YOU ARE VERY LITTLE,
 AND YOUR BONES ARE VERY BRITTLE;
 IF YOU WOULD GROW GREAT AND STATELY
 YOU MUST TRY TO WALK SEDATELY.
 YOU MUST STILL BE BRIGHT AND QUIET,
 AND CONTENT WITH SIMPLE DIET;
 AND REMAIN, THROUGH ALL BEWILD'RING
 INNOCENT AND HONEST CHILDREN.
     -- A CHILD'S GARDEN OF VERSE,
        ROBERT LOUIS STEVENSON
 Job cpu time:       1 days  8 hours 55 minutes 53.8 seconds.
 Elapsed time:       0 days  1 hours 22 minutes 26.8 seconds.
 File lengths (MBytes):  RWF=   1225 Int=      0 D2E=      0 Chk=    154 Scr=      1
 Normal termination of Gaussian 16 at Sun Jun 26 20:59:13 2022.
