 Entering Gaussian System, Link 0=g16
 Input=8_addons_C84_14_Cl22_rank_2.gjf
 Output=8_addons_C84_14_Cl22_rank_2.log
 Initial command:
 /home/mkliu/g16/l1.exe "/data/scratch/Gau-160019.inp" -scrdir="/data/scratch/"
 Entering Link 1 = /home/mkliu/g16/l1.exe PID=    160020.
  
 Copyright (c) 1988,1990,1992,1993,1995,1998,2003,2009,2016,
            Gaussian, Inc.  All Rights Reserved.
  
 This is part of the Gaussian(R) 16 program.  It is based on
 the Gaussian(R) 09 system (copyright 2009, Gaussian, Inc.),
 the Gaussian(R) 03 system (copyright 2003, Gaussian, Inc.),
 the Gaussian(R) 98 system (copyright 1998, Gaussian, Inc.),
 the Gaussian(R) 94 system (copyright 1995, Gaussian, Inc.),
 the Gaussian 92(TM) system (copyright 1992, Gaussian, Inc.),
 the Gaussian 90(TM) system (copyright 1990, Gaussian, Inc.),
 the Gaussian 88(TM) system (copyright 1988, Gaussian, Inc.),
 the Gaussian 86(TM) system (copyright 1986, Carnegie Mellon
 University), and the Gaussian 82(TM) system (copyright 1983,
 Carnegie Mellon University). Gaussian is a federally registered
 trademark of Gaussian, Inc.
  
 This software contains proprietary and confidential information,
 including trade secrets, belonging to Gaussian, Inc.
  
 This software is provided under written license and may be
 used, copied, transmitted, or stored only in accord with that
 written license.
  
 The following legend is applicable only to US Government
 contracts under FAR:
  
                    RESTRICTED RIGHTS LEGEND
  
 Use, reproduction and disclosure by the US Government is
 subject to restrictions as set forth in subparagraphs (a)
 and (c) of the Commercial Computer Software - Restricted
 Rights clause in FAR 52.227-19.
  
 Gaussian, Inc.
 340 Quinnipiac St., Bldg. 40, Wallingford CT 06492
  
  
 ---------------------------------------------------------------
 Warning -- This program may not be used in any manner that
 competes with the business of Gaussian, Inc. or will provide
 assistance to any competitor of Gaussian, Inc.  The licensee
 of this program is prohibited from giving any competitor of
 Gaussian, Inc. access to this program.  By using this program,
 the user acknowledges that Gaussian, Inc. is engaged in the
 business of creating and licensing software in the field of
 computational chemistry and represents and warrants to the
 licensee that it is not a competitor of Gaussian, Inc. and that
 it will not use this program in any manner prohibited above.
 ---------------------------------------------------------------
  

 Cite this work as:
 Gaussian 16, Revision A.03,
 M. J. Frisch, G. W. Trucks, H. B. Schlegel, G. E. Scuseria, 
 M. A. Robb, J. R. Cheeseman, G. Scalmani, V. Barone, 
 G. A. Petersson, H. Nakatsuji, X. Li, M. Caricato, A. V. Marenich, 
 J. Bloino, B. G. Janesko, R. Gomperts, B. Mennucci, H. P. Hratchian, 
 J. V. Ortiz, A. F. Izmaylov, J. L. Sonnenberg, D. Williams-Young, 
 F. Ding, F. Lipparini, F. Egidi, J. Goings, B. Peng, A. Petrone, 
 T. Henderson, D. Ranasinghe, V. G. Zakrzewski, J. Gao, N. Rega, 
 G. Zheng, W. Liang, M. Hada, M. Ehara, K. Toyota, R. Fukuda, 
 J. Hasegawa, M. Ishida, T. Nakajima, Y. Honda, O. Kitao, H. Nakai, 
 T. Vreven, K. Throssell, J. A. Montgomery, Jr., J. E. Peralta, 
 F. Ogliaro, M. J. Bearpark, J. J. Heyd, E. N. Brothers, K. N. Kudin, 
 V. N. Staroverov, T. A. Keith, R. Kobayashi, J. Normand, 
 K. Raghavachari, A. P. Rendell, J. C. Burant, S. S. Iyengar, 
 J. Tomasi, M. Cossi, J. M. Millam, M. Klene, C. Adamo, R. Cammi, 
 J. W. Ochterski, R. L. Martin, K. Morokuma, O. Farkas, 
 J. B. Foresman, and D. J. Fox, Gaussian, Inc., Wallingford CT, 2016.
 
 ******************************************
 Gaussian 16:  ES64L-G16RevA.03 25-Dec-2016
                27-Jun-2022 
 ******************************************
 %mem=10GB
 %chk=8_addons_C84_14_Cl22_rank_2.chk
 %nprocshared=24
 Will use up to   24 processors via shared memory.
 ------------------------------------------------
 #P opt b3lyp/6-31G(d, p) empiricaldispersion=GD3
 ------------------------------------------------
 1/18=20,19=15,26=3,38=1/1,3;
 2/9=110,12=2,17=6,18=5,40=1/2;
 3/5=1,6=6,7=101,11=2,25=1,30=1,71=1,74=-5,124=31/1,2,3;
 4//1;
 5/5=2,38=5/2;
 6/7=2,8=2,9=2,10=2,28=1/1;
 7//1,2,3,16;
 1/18=20,19=15,26=3/3(2);
 2/9=110/2;
 99//99;
 2/9=110/2;
 3/5=1,6=6,7=101,11=2,25=1,30=1,71=1,74=-5,124=31/1,2,3;
 4/5=5,16=3,69=1/1;
 5/5=2,38=5/2;
 7//1,2,3,16;
 1/18=20,19=15,26=3/3(-5);
 2/9=110/2;
 6/7=2,8=2,9=2,10=2,19=2,28=1/1;
 99/9=1/99;
 Leave Link    1 at Mon Jun 27 10:33:43 2022, MaxMem=  1342177280 cpu:               0.6 elap:               0.1
 (Enter /home/mkliu/g16/l101.exe)
 -----
 force
 -----
 Symbolic Z-matrix:
 Charge =  0 Multiplicity = 1
 C                     8.3027    18.91882   10.52035 
 C                     12.28857   20.17406   8.94418 
 C                     8.29928   26.8322   10.52039 
 C                     12.28623   25.58042   8.94421 
 C                     7.98461   18.96614   9.12803 
 C                     11.86095   19.59049   10.17846 
 C                     7.98124   26.78457   9.12808 
 C                     11.8581   26.16364   10.17849 
 C                     8.97812   19.11763   8.13153 
 C                     12.11071   20.24462   11.37087 
 C                     12.10843   25.50972   11.37089 
 C                     8.97487   26.63395   8.13157 
 C                     10.30589   19.0404   8.58835 
 C                     10.30257   26.71235   8.58838 
 C                     10.62298   18.9252   9.98008 
 C                     10.61956   26.82784   9.98011 
 C                     9.63646   18.95977   10.98376 
 C                     9.63307   26.79242   10.98379 
 C                     9.91822   19.63681   12.22785 
 C                     9.91541   26.11562   12.22788 
 C                     8.82495   20.24781   12.90371 
 C                     8.82267   25.50367   12.90376 
 C                     7.50937   20.1911   12.39933 
 C                     7.50704   25.55926   12.3994 
 C                     7.24644   19.52477   11.23784 
 C                     7.24356   26.22534   11.23789 
 C                     6.13962   19.95569   10.32175 
 C                     6.1371    25.79345   10.3218 
 C                     6.70537   19.55665   8.99224 
 C                     6.70251   26.19296   8.99229 
 C                     6.39781   20.22483   7.85576 
 C                     6.39553   25.52451   7.85581 
 C                     7.35337   20.32785   6.80723 
 C                     7.35116   25.42236   6.80726 
 C                     8.68163   19.87046   6.94166 
 C                     8.67903   25.88089   6.94169 
 C                     9.73607   20.59387   6.26217 
 C                     9.7341    25.15841   6.26218 
 C                     11.07173   20.58247   6.81998 
 C                     12.75423   22.16309   7.7315 
 C                     12.75358   23.59178   7.73157 
 C                     11.06975   25.17095   6.82 
 C                     11.33986   19.78724   7.95106 
 C                     12.91552   21.4355   8.92436 
 C                     12.91427   24.31953   8.9244 
 C                     11.33719   25.96641   7.95108 
 C                     13.13815   22.159    10.16219 
 C                     13.13753   23.5962   10.1622 
 C                     12.803    21.5083   11.36518 
 C                     12.8018   24.24662   11.36518 
 C                     12.41346   22.19693   12.53693 
 C                     12.41283   23.55762   12.53683 
 C                     11.17756   20.21659   12.42543 
 C                     11.17525   25.53693   12.42544 
 C                     11.45154   21.37745   13.35508 
 C                     11.45024   24.37627   13.35503 
 C                     8.98838   21.49822   13.57777 
 C                     8.98718   24.25341   13.57784 
 C                     7.7604    22.19758   13.50886 
 C                     7.75977   23.55302   13.5091 
 C                     6.71449   21.4067   12.78498 
 C                     6.71321   24.34297   12.78506 
 C                     6.2806    22.17282   11.53699 
 C                     6.28003   23.57646   11.53705 
 C                     5.98952   21.47482   10.35806 
 C                     5.98834   24.27419   10.3581 
 C                     5.6774    22.17388   9.18108 
 C                     5.67679   23.57486   9.18113 
 C                     5.46273   21.40223   7.87835 
 C                     5.46143   24.34635   7.87838 
 C                     5.96641   22.19617   6.70905 
 C                     5.96574   23.55289   6.70893 
 C                     7.02414   21.49019   6.05384 
 C                     7.02293   24.25977   6.05382 
 C                     8.02528   22.16038   5.37812 
 C                     8.02466   23.59046   5.37809 
 C                     9.37671   21.70262   5.47061 
 C                     9.3757    24.04937   5.4706 
 C                     11.90626   21.71149   6.67576 
 C                     11.90526   24.04266   6.67579 
 C                     10.20225   22.87635   5.40063 
 C                     11.43985   22.87688   5.99831 
 C                     10.21367   22.17944   13.65672 
 C                     10.21305   23.57323   13.65662 
 Cl                    4.55568   19.20129   10.71009 
 Cl                    3.72221   20.96223   7.75744 
 Cl                    3.72053   24.78491   7.75763 
 Cl                    4.55253   26.54651   10.71013 
 Cl                    5.25763   21.04301   13.77219 
 Cl                    5.25601   24.70546   13.7722 
 Cl                    12.17888   20.80535   14.91722 
 Cl                    12.17712   24.94894   14.91713 
 
 ITRead=  0  0  0  0  0  0  0  0  0  0  0  0  0  0  0  0  0  0  0  0
 ITRead=  0  0  0  0  0  0  0  0  0  0  0  0  0  0  0  0  0  0  0  0
 ITRead=  0  0  0  0  0  0  0  0  0  0  0  0  0  0  0  0  0  0  0  0
 ITRead=  0  0  0  0  0  0  0  0  0  0  0  0  0  0  0  0  0  0  0  0
 ITRead=  0  0  0  0  0  0  0  0  0  0  0  0
 MicOpt= -1 -1 -1 -1 -1 -1 -1 -1 -1 -1 -1 -1 -1 -1 -1 -1 -1 -1 -1 -1
 MicOpt= -1 -1 -1 -1 -1 -1 -1 -1 -1 -1 -1 -1 -1 -1 -1 -1 -1 -1 -1 -1
 MicOpt= -1 -1 -1 -1 -1 -1 -1 -1 -1 -1 -1 -1 -1 -1 -1 -1 -1 -1 -1 -1
 MicOpt= -1 -1 -1 -1 -1 -1 -1 -1 -1 -1 -1 -1 -1 -1 -1 -1 -1 -1 -1 -1
 MicOpt= -1 -1 -1 -1 -1 -1 -1 -1 -1 -1 -1 -1
 NAtoms=     92 NQM=       92 NQMF=       0 NMMI=      0 NMMIF=      0
                NMic=       0 NMicF=      0.
                    Isotopes and Nuclear Properties:
 (Nuclear quadrupole moments (NQMom) in fm**2, nuclear magnetic moments (NMagM)
  in nuclear magnetons)

  Atom         1           2           3           4           5           6           7           8           9          10
 IAtWgt=          12          12          12          12          12          12          12          12          12          12
 AtmWgt=  12.0000000  12.0000000  12.0000000  12.0000000  12.0000000  12.0000000  12.0000000  12.0000000  12.0000000  12.0000000
 NucSpn=           0           0           0           0           0           0           0           0           0           0
 AtZEff=  -0.0000000  -0.0000000  -0.0000000  -0.0000000  -0.0000000  -0.0000000  -0.0000000  -0.0000000  -0.0000000  -0.0000000
 NQMom=    0.0000000   0.0000000   0.0000000   0.0000000   0.0000000   0.0000000   0.0000000   0.0000000   0.0000000   0.0000000
 NMagM=    0.0000000   0.0000000   0.0000000   0.0000000   0.0000000   0.0000000   0.0000000   0.0000000   0.0000000   0.0000000
 AtZNuc=   6.0000000   6.0000000   6.0000000   6.0000000   6.0000000   6.0000000   6.0000000   6.0000000   6.0000000   6.0000000

  Atom        11          12          13          14          15          16          17          18          19          20
 IAtWgt=          12          12          12          12          12          12          12          12          12          12
 AtmWgt=  12.0000000  12.0000000  12.0000000  12.0000000  12.0000000  12.0000000  12.0000000  12.0000000  12.0000000  12.0000000
 NucSpn=           0           0           0           0           0           0           0           0           0           0
 AtZEff=  -0.0000000  -0.0000000  -0.0000000  -0.0000000  -0.0000000  -0.0000000  -0.0000000  -0.0000000  -0.0000000  -0.0000000
 NQMom=    0.0000000   0.0000000   0.0000000   0.0000000   0.0000000   0.0000000   0.0000000   0.0000000   0.0000000   0.0000000
 NMagM=    0.0000000   0.0000000   0.0000000   0.0000000   0.0000000   0.0000000   0.0000000   0.0000000   0.0000000   0.0000000
 AtZNuc=   6.0000000   6.0000000   6.0000000   6.0000000   6.0000000   6.0000000   6.0000000   6.0000000   6.0000000   6.0000000

  Atom        21          22          23          24          25          26          27          28          29          30
 IAtWgt=          12          12          12          12          12          12          12          12          12          12
 AtmWgt=  12.0000000  12.0000000  12.0000000  12.0000000  12.0000000  12.0000000  12.0000000  12.0000000  12.0000000  12.0000000
 NucSpn=           0           0           0           0           0           0           0           0           0           0
 AtZEff=  -0.0000000  -0.0000000  -0.0000000  -0.0000000  -0.0000000  -0.0000000  -0.0000000  -0.0000000  -0.0000000  -0.0000000
 NQMom=    0.0000000   0.0000000   0.0000000   0.0000000   0.0000000   0.0000000   0.0000000   0.0000000   0.0000000   0.0000000
 NMagM=    0.0000000   0.0000000   0.0000000   0.0000000   0.0000000   0.0000000   0.0000000   0.0000000   0.0000000   0.0000000
 AtZNuc=   6.0000000   6.0000000   6.0000000   6.0000000   6.0000000   6.0000000   6.0000000   6.0000000   6.0000000   6.0000000

  Atom        31          32          33          34          35          36          37          38          39          40
 IAtWgt=          12          12          12          12          12          12          12          12          12          12
 AtmWgt=  12.0000000  12.0000000  12.0000000  12.0000000  12.0000000  12.0000000  12.0000000  12.0000000  12.0000000  12.0000000
 NucSpn=           0           0           0           0           0           0           0           0           0           0
 AtZEff=  -0.0000000  -0.0000000  -0.0000000  -0.0000000  -0.0000000  -0.0000000  -0.0000000  -0.0000000  -0.0000000  -0.0000000
 NQMom=    0.0000000   0.0000000   0.0000000   0.0000000   0.0000000   0.0000000   0.0000000   0.0000000   0.0000000   0.0000000
 NMagM=    0.0000000   0.0000000   0.0000000   0.0000000   0.0000000   0.0000000   0.0000000   0.0000000   0.0000000   0.0000000
 AtZNuc=   6.0000000   6.0000000   6.0000000   6.0000000   6.0000000   6.0000000   6.0000000   6.0000000   6.0000000   6.0000000

  Atom        41          42          43          44          45          46          47          48          49          50
 IAtWgt=          12          12          12          12          12          12          12          12          12          12
 AtmWgt=  12.0000000  12.0000000  12.0000000  12.0000000  12.0000000  12.0000000  12.0000000  12.0000000  12.0000000  12.0000000
 NucSpn=           0           0           0           0           0           0           0           0           0           0
 AtZEff=  -0.0000000  -0.0000000  -0.0000000  -0.0000000  -0.0000000  -0.0000000  -0.0000000  -0.0000000  -0.0000000  -0.0000000
 NQMom=    0.0000000   0.0000000   0.0000000   0.0000000   0.0000000   0.0000000   0.0000000   0.0000000   0.0000000   0.0000000
 NMagM=    0.0000000   0.0000000   0.0000000   0.0000000   0.0000000   0.0000000   0.0000000   0.0000000   0.0000000   0.0000000
 AtZNuc=   6.0000000   6.0000000   6.0000000   6.0000000   6.0000000   6.0000000   6.0000000   6.0000000   6.0000000   6.0000000

  Atom        51          52          53          54          55          56          57          58          59          60
 IAtWgt=          12          12          12          12          12          12          12          12          12          12
 AtmWgt=  12.0000000  12.0000000  12.0000000  12.0000000  12.0000000  12.0000000  12.0000000  12.0000000  12.0000000  12.0000000
 NucSpn=           0           0           0           0           0           0           0           0           0           0
 AtZEff=  -0.0000000  -0.0000000  -0.0000000  -0.0000000  -0.0000000  -0.0000000  -0.0000000  -0.0000000  -0.0000000  -0.0000000
 NQMom=    0.0000000   0.0000000   0.0000000   0.0000000   0.0000000   0.0000000   0.0000000   0.0000000   0.0000000   0.0000000
 NMagM=    0.0000000   0.0000000   0.0000000   0.0000000   0.0000000   0.0000000   0.0000000   0.0000000   0.0000000   0.0000000
 AtZNuc=   6.0000000   6.0000000   6.0000000   6.0000000   6.0000000   6.0000000   6.0000000   6.0000000   6.0000000   6.0000000

  Atom        61          62          63          64          65          66          67          68          69          70
 IAtWgt=          12          12          12          12          12          12          12          12          12          12
 AtmWgt=  12.0000000  12.0000000  12.0000000  12.0000000  12.0000000  12.0000000  12.0000000  12.0000000  12.0000000  12.0000000
 NucSpn=           0           0           0           0           0           0           0           0           0           0
 AtZEff=  -0.0000000  -0.0000000  -0.0000000  -0.0000000  -0.0000000  -0.0000000  -0.0000000  -0.0000000  -0.0000000  -0.0000000
 NQMom=    0.0000000   0.0000000   0.0000000   0.0000000   0.0000000   0.0000000   0.0000000   0.0000000   0.0000000   0.0000000
 NMagM=    0.0000000   0.0000000   0.0000000   0.0000000   0.0000000   0.0000000   0.0000000   0.0000000   0.0000000   0.0000000
 AtZNuc=   6.0000000   6.0000000   6.0000000   6.0000000   6.0000000   6.0000000   6.0000000   6.0000000   6.0000000   6.0000000

  Atom        71          72          73          74          75          76          77          78          79          80
 IAtWgt=          12          12          12          12          12          12          12          12          12          12
 AtmWgt=  12.0000000  12.0000000  12.0000000  12.0000000  12.0000000  12.0000000  12.0000000  12.0000000  12.0000000  12.0000000
 NucSpn=           0           0           0           0           0           0           0           0           0           0
 AtZEff=  -0.0000000  -0.0000000  -0.0000000  -0.0000000  -0.0000000  -0.0000000  -0.0000000  -0.0000000  -0.0000000  -0.0000000
 NQMom=    0.0000000   0.0000000   0.0000000   0.0000000   0.0000000   0.0000000   0.0000000   0.0000000   0.0000000   0.0000000
 NMagM=    0.0000000   0.0000000   0.0000000   0.0000000   0.0000000   0.0000000   0.0000000   0.0000000   0.0000000   0.0000000
 AtZNuc=   6.0000000   6.0000000   6.0000000   6.0000000   6.0000000   6.0000000   6.0000000   6.0000000   6.0000000   6.0000000

  Atom        81          82          83          84          85          86          87          88          89          90
 IAtWgt=          12          12          12          12          35          35          35          35          35          35
 AtmWgt=  12.0000000  12.0000000  12.0000000  12.0000000  34.9688527  34.9688527  34.9688527  34.9688527  34.9688527  34.9688527
 NucSpn=           0           0           0           0           3           3           3           3           3           3
 AtZEff=  -0.0000000  -0.0000000  -0.0000000  -0.0000000  -0.0000000  -0.0000000  -0.0000000  -0.0000000  -0.0000000  -0.0000000
 NQMom=    0.0000000   0.0000000   0.0000000   0.0000000  -8.1650000  -8.1650000  -8.1650000  -8.1650000  -8.1650000  -8.1650000
 NMagM=    0.0000000   0.0000000   0.0000000   0.0000000   0.8218740   0.8218740   0.8218740   0.8218740   0.8218740   0.8218740
 AtZNuc=   6.0000000   6.0000000   6.0000000   6.0000000  17.0000000  17.0000000  17.0000000  17.0000000  17.0000000  17.0000000

  Atom        91          92
 IAtWgt=          35          35
 AtmWgt=  34.9688527  34.9688527
 NucSpn=           3           3
 AtZEff=  -0.0000000  -0.0000000
 NQMom=   -8.1650000  -8.1650000
 NMagM=    0.8218740   0.8218740
 AtZNuc=  17.0000000  17.0000000
 Leave Link  101 at Mon Jun 27 10:33:44 2022, MaxMem=  1342177280 cpu:               6.6 elap:               0.3
 (Enter /home/mkliu/g16/l103.exe)

 GradGradGradGradGradGradGradGradGradGradGradGradGradGradGradGradGradGrad
 Berny optimization.
 Initialization pass.
                           ----------------------------
                           !    Initial Parameters    !
                           ! (Angstroms and Degrees)  !
 --------------------------                            --------------------------
 ! Name  Definition              Value          Derivative Info.                !
 --------------------------------------------------------------------------------
 ! R1    R(1,5)                  1.429          estimate D2E/DX2                !
 ! R2    R(1,17)                 1.4126         estimate D2E/DX2                !
 ! R3    R(1,25)                 1.4134         estimate D2E/DX2                !
 ! R4    R(2,6)                  1.4307         estimate D2E/DX2                !
 ! R5    R(2,43)                 1.4269         estimate D2E/DX2                !
 ! R6    R(2,44)                 1.4088         estimate D2E/DX2                !
 ! R7    R(3,7)                  1.429          estimate D2E/DX2                !
 ! R8    R(3,18)                 1.4126         estimate D2E/DX2                !
 ! R9    R(3,26)                 1.4134         estimate D2E/DX2                !
 ! R10   R(4,8)                  1.4307         estimate D2E/DX2                !
 ! R11   R(4,45)                 1.4088         estimate D2E/DX2                !
 ! R12   R(4,46)                 1.4269         estimate D2E/DX2                !
 ! R13   R(5,9)                  1.4153         estimate D2E/DX2                !
 ! R14   R(5,29)                 1.4155         estimate D2E/DX2                !
 ! R15   R(6,10)                 1.3828         estimate D2E/DX2                !
 ! R16   R(6,15)                 1.4193         estimate D2E/DX2                !
 ! R17   R(7,12)                 1.4153         estimate D2E/DX2                !
 ! R18   R(7,30)                 1.4155         estimate D2E/DX2                !
 ! R19   R(8,11)                 1.3828         estimate D2E/DX2                !
 ! R20   R(8,16)                 1.4193         estimate D2E/DX2                !
 ! R21   R(9,13)                 1.4063         estimate D2E/DX2                !
 ! R22   R(9,35)                 1.4389         estimate D2E/DX2                !
 ! R23   R(10,49)                1.4409         estimate D2E/DX2                !
 ! R24   R(10,53)                1.4084         estimate D2E/DX2                !
 ! R25   R(11,50)                1.4409         estimate D2E/DX2                !
 ! R26   R(11,54)                1.4084         estimate D2E/DX2                !
 ! R27   R(12,14)                1.4063         estimate D2E/DX2                !
 ! R28   R(12,36)                1.4389         estimate D2E/DX2                !
 ! R29   R(13,15)                1.432          estimate D2E/DX2                !
 ! R30   R(13,43)                1.4258         estimate D2E/DX2                !
 ! R31   R(14,16)                1.432          estimate D2E/DX2                !
 ! R32   R(14,46)                1.4258         estimate D2E/DX2                !
 ! R33   R(15,17)                1.4078         estimate D2E/DX2                !
 ! R34   R(16,18)                1.4078         estimate D2E/DX2                !
 ! R35   R(17,19)                1.4441         estimate D2E/DX2                !
 ! R36   R(18,20)                1.4441         estimate D2E/DX2                !
 ! R37   R(19,21)                1.4232         estimate D2E/DX2                !
 ! R38   R(19,53)                1.4004         estimate D2E/DX2                !
 ! R39   R(20,22)                1.4232         estimate D2E/DX2                !
 ! R40   R(20,54)                1.4004         estimate D2E/DX2                !
 ! R41   R(21,23)                1.4101         estimate D2E/DX2                !
 ! R42   R(21,57)                1.4299         estimate D2E/DX2                !
 ! R43   R(22,24)                1.4101         estimate D2E/DX2                !
 ! R44   R(22,58)                1.4299         estimate D2E/DX2                !
 ! R45   R(23,25)                1.3646         estimate D2E/DX2                !
 ! R46   R(23,61)                1.5027         estimate D2E/DX2                !
 ! R47   R(24,26)                1.3646         estimate D2E/DX2                !
 ! R48   R(24,62)                1.5028         estimate D2E/DX2                !
 ! R49   R(25,27)                1.5            estimate D2E/DX2                !
 ! R50   R(26,28)                1.5            estimate D2E/DX2                !
 ! R51   R(27,29)                1.499          estimate D2E/DX2                !
 ! R52   R(27,65)                1.527          estimate D2E/DX2                !
 ! R53   R(27,85)                1.7969         estimate D2E/DX2                !
 ! R54   R(28,30)                1.499          estimate D2E/DX2                !
 ! R55   R(28,66)                1.527          estimate D2E/DX2                !
 ! R56   R(28,88)                1.7969         estimate D2E/DX2                !
 ! R57   R(29,31)                1.3538         estimate D2E/DX2                !
 ! R58   R(30,32)                1.3538         estimate D2E/DX2                !
 ! R59   R(31,33)                1.4224         estimate D2E/DX2                !
 ! R60   R(31,69)                1.5037         estimate D2E/DX2                !
 ! R61   R(32,34)                1.4224         estimate D2E/DX2                !
 ! R62   R(32,70)                1.5037         estimate D2E/DX2                !
 ! R63   R(33,35)                1.4112         estimate D2E/DX2                !
 ! R64   R(33,73)                1.4237         estimate D2E/DX2                !
 ! R65   R(34,36)                1.4112         estimate D2E/DX2                !
 ! R66   R(34,74)                1.4237         estimate D2E/DX2                !
 ! R67   R(35,37)                1.4481         estimate D2E/DX2                !
 ! R68   R(36,38)                1.4481         estimate D2E/DX2                !
 ! R69   R(37,39)                1.4475         estimate D2E/DX2                !
 ! R70   R(37,77)                1.4089         estimate D2E/DX2                !
 ! R71   R(38,42)                1.4475         estimate D2E/DX2                !
 ! R72   R(38,78)                1.4089         estimate D2E/DX2                !
 ! R73   R(39,43)                1.4084         estimate D2E/DX2                !
 ! R74   R(39,79)                1.4114         estimate D2E/DX2                !
 ! R75   R(40,41)                1.4287         estimate D2E/DX2                !
 ! R76   R(40,44)                1.4065         estimate D2E/DX2                !
 ! R77   R(40,79)                1.4274         estimate D2E/DX2                !
 ! R78   R(41,45)                1.4065         estimate D2E/DX2                !
 ! R79   R(41,80)                1.4274         estimate D2E/DX2                !
 ! R80   R(42,46)                1.4084         estimate D2E/DX2                !
 ! R81   R(42,80)                1.4114         estimate D2E/DX2                !
 ! R82   R(44,47)                1.451          estimate D2E/DX2                !
 ! R83   R(45,48)                1.4509         estimate D2E/DX2                !
 ! R84   R(47,48)                1.4372         estimate D2E/DX2                !
 ! R85   R(47,49)                1.4082         estimate D2E/DX2                !
 ! R86   R(48,50)                1.4082         estimate D2E/DX2                !
 ! R87   R(49,51)                1.4138         estimate D2E/DX2                !
 ! R88   R(50,52)                1.4138         estimate D2E/DX2                !
 ! R89   R(51,52)                1.3607         estimate D2E/DX2                !
 ! R90   R(51,55)                1.5054         estimate D2E/DX2                !
 ! R91   R(52,56)                1.5054         estimate D2E/DX2                !
 ! R92   R(53,55)                1.5123         estimate D2E/DX2                !
 ! R93   R(54,56)                1.5122         estimate D2E/DX2                !
 ! R94   R(55,83)                1.5055         estimate D2E/DX2                !
 ! R95   R(55,91)                1.8157         estimate D2E/DX2                !
 ! R96   R(56,84)                1.5055         estimate D2E/DX2                !
 ! R97   R(56,92)                1.8156         estimate D2E/DX2                !
 ! R98   R(57,59)                1.4148         estimate D2E/DX2                !
 ! R99   R(57,83)                1.4041         estimate D2E/DX2                !
 ! R100  R(58,60)                1.4149         estimate D2E/DX2                !
 ! R101  R(58,84)                1.4041         estimate D2E/DX2                !
 ! R102  R(59,60)                1.3554         estimate D2E/DX2                !
 ! R103  R(59,61)                1.4978         estimate D2E/DX2                !
 ! R104  R(60,62)                1.4978         estimate D2E/DX2                !
 ! R105  R(61,63)                1.5273         estimate D2E/DX2                !
 ! R106  R(61,89)                1.797          estimate D2E/DX2                !
 ! R107  R(62,64)                1.5273         estimate D2E/DX2                !
 ! R108  R(62,90)                1.797          estimate D2E/DX2                !
 ! R109  R(63,64)                1.4036         estimate D2E/DX2                !
 ! R110  R(63,65)                1.4006         estimate D2E/DX2                !
 ! R111  R(64,66)                1.4007         estimate D2E/DX2                !
 ! R112  R(65,67)                1.4041         estimate D2E/DX2                !
 ! R113  R(66,68)                1.4041         estimate D2E/DX2                !
 ! R114  R(67,68)                1.401          estimate D2E/DX2                !
 ! R115  R(67,69)                1.5293         estimate D2E/DX2                !
 ! R116  R(68,70)                1.5293         estimate D2E/DX2                !
 ! R117  R(69,71)                1.5004         estimate D2E/DX2                !
 ! R118  R(69,86)                1.7993         estimate D2E/DX2                !
 ! R119  R(70,72)                1.5005         estimate D2E/DX2                !
 ! R120  R(70,87)                1.7993         estimate D2E/DX2                !
 ! R121  R(71,72)                1.3567         estimate D2E/DX2                !
 ! R122  R(71,73)                1.4306         estimate D2E/DX2                !
 ! R123  R(72,74)                1.4306         estimate D2E/DX2                !
 ! R124  R(73,75)                1.3813         estimate D2E/DX2                !
 ! R125  R(74,76)                1.3813         estimate D2E/DX2                !
 ! R126  R(75,76)                1.4301         estimate D2E/DX2                !
 ! R127  R(75,77)                1.4298         estimate D2E/DX2                !
 ! R128  R(76,78)                1.4298         estimate D2E/DX2                !
 ! R129  R(77,81)                1.4367         estimate D2E/DX2                !
 ! R130  R(78,81)                1.4367         estimate D2E/DX2                !
 ! R131  R(79,82)                1.4264         estimate D2E/DX2                !
 ! R132  R(80,82)                1.4264         estimate D2E/DX2                !
 ! R133  R(81,82)                1.3744         estimate D2E/DX2                !
 ! R134  R(83,84)                1.3938         estimate D2E/DX2                !
 ! A1    A(5,1,17)             121.9291         estimate D2E/DX2                !
 ! A2    A(5,1,25)             108.3046         estimate D2E/DX2                !
 ! A3    A(17,1,25)            121.7806         estimate D2E/DX2                !
 ! A4    A(6,2,43)             106.9272         estimate D2E/DX2                !
 ! A5    A(6,2,44)             120.6897         estimate D2E/DX2                !
 ! A6    A(43,2,44)            121.9273         estimate D2E/DX2                !
 ! A7    A(7,3,18)             121.9287         estimate D2E/DX2                !
 ! A8    A(7,3,26)             108.3046         estimate D2E/DX2                !
 ! A9    A(18,3,26)            121.7807         estimate D2E/DX2                !
 ! A10   A(8,4,45)             120.6899         estimate D2E/DX2                !
 ! A11   A(8,4,46)             106.9271         estimate D2E/DX2                !
 ! A12   A(45,4,46)            121.9271         estimate D2E/DX2                !
 ! A13   A(1,5,9)              122.2301         estimate D2E/DX2                !
 ! A14   A(1,5,29)             107.9664         estimate D2E/DX2                !
 ! A15   A(9,5,29)             121.4813         estimate D2E/DX2                !
 ! A16   A(2,6,10)             119.8015         estimate D2E/DX2                !
 ! A17   A(2,6,15)             109.3482         estimate D2E/DX2                !
 ! A18   A(10,6,15)            119.9868         estimate D2E/DX2                !
 ! A19   A(3,7,12)             122.2306         estimate D2E/DX2                !
 ! A20   A(3,7,30)             107.9666         estimate D2E/DX2                !
 ! A21   A(12,7,30)            121.4813         estimate D2E/DX2                !
 ! A22   A(4,8,11)             119.8006         estimate D2E/DX2                !
 ! A23   A(4,8,16)             109.3485         estimate D2E/DX2                !
 ! A24   A(11,8,16)            119.987          estimate D2E/DX2                !
 ! A25   A(5,9,13)             115.353          estimate D2E/DX2                !
 ! A26   A(5,9,35)             119.5771         estimate D2E/DX2                !
 ! A27   A(13,9,35)            119.4663         estimate D2E/DX2                !
 ! A28   A(6,10,49)            119.8842         estimate D2E/DX2                !
 ! A29   A(6,10,53)            121.1032         estimate D2E/DX2                !
 ! A30   A(49,10,53)           109.7998         estimate D2E/DX2                !
 ! A31   A(8,11,50)            119.8834         estimate D2E/DX2                !
 ! A32   A(8,11,54)            121.1026         estimate D2E/DX2                !
 ! A33   A(50,11,54)           109.8004         estimate D2E/DX2                !
 ! A34   A(7,12,14)            115.3528         estimate D2E/DX2                !
 ! A35   A(7,12,36)            119.5774         estimate D2E/DX2                !
 ! A36   A(14,12,36)           119.4666         estimate D2E/DX2                !
 ! A37   A(9,13,15)            121.9501         estimate D2E/DX2                !
 ! A38   A(9,13,43)            120.7118         estimate D2E/DX2                !
 ! A39   A(15,13,43)           108.4179         estimate D2E/DX2                !
 ! A40   A(12,14,16)           121.9502         estimate D2E/DX2                !
 ! A41   A(12,14,46)           120.7118         estimate D2E/DX2                !
 ! A42   A(16,14,46)           108.4184         estimate D2E/DX2                !
 ! A43   A(6,15,13)            106.9335         estimate D2E/DX2                !
 ! A44   A(6,15,17)            120.0042         estimate D2E/DX2                !
 ! A45   A(13,15,17)           122.395          estimate D2E/DX2                !
 ! A46   A(8,16,14)            106.9331         estimate D2E/DX2                !
 ! A47   A(8,16,18)            120.0041         estimate D2E/DX2                !
 ! A48   A(14,16,18)           122.3947         estimate D2E/DX2                !
 ! A49   A(1,17,15)            115.2817         estimate D2E/DX2                !
 ! A50   A(1,17,19)            118.7135         estimate D2E/DX2                !
 ! A51   A(15,17,19)           119.2741         estimate D2E/DX2                !
 ! A52   A(3,18,16)            115.282          estimate D2E/DX2                !
 ! A53   A(3,18,20)            118.7126         estimate D2E/DX2                !
 ! A54   A(16,18,20)           119.2746         estimate D2E/DX2                !
 ! A55   A(17,19,21)           117.4206         estimate D2E/DX2                !
 ! A56   A(17,19,53)           119.4126         estimate D2E/DX2                !
 ! A57   A(21,19,53)           116.4917         estimate D2E/DX2                !
 ! A58   A(18,20,22)           117.4215         estimate D2E/DX2                !
 ! A59   A(18,20,54)           119.4114         estimate D2E/DX2                !
 ! A60   A(22,20,54)           116.4919         estimate D2E/DX2                !
 ! A61   A(19,21,23)           121.9768         estimate D2E/DX2                !
 ! A62   A(19,21,57)           120.7647         estimate D2E/DX2                !
 ! A63   A(23,21,57)           108.0849         estimate D2E/DX2                !
 ! A64   A(20,22,24)           121.9766         estimate D2E/DX2                !
 ! A65   A(20,22,58)           120.7652         estimate D2E/DX2                !
 ! A66   A(24,22,58)           108.0851         estimate D2E/DX2                !
 ! A67   A(21,23,25)           120.2547         estimate D2E/DX2                !
 ! A68   A(21,23,61)           111.6644         estimate D2E/DX2                !
 ! A69   A(25,23,61)           120.7639         estimate D2E/DX2                !
 ! A70   A(22,24,26)           120.2537         estimate D2E/DX2                !
 ! A71   A(22,24,62)           111.664          estimate D2E/DX2                !
 ! A72   A(26,24,62)           120.7641         estimate D2E/DX2                !
 ! A73   A(1,25,23)            119.8301         estimate D2E/DX2                !
 ! A74   A(1,25,27)            111.3813         estimate D2E/DX2                !
 ! A75   A(23,25,27)           121.4473         estimate D2E/DX2                !
 ! A76   A(3,26,24)            119.8312         estimate D2E/DX2                !
 ! A77   A(3,26,28)            111.3812         estimate D2E/DX2                !
 ! A78   A(24,26,28)           121.4472         estimate D2E/DX2                !
 ! A79   A(25,27,29)           100.7609         estimate D2E/DX2                !
 ! A80   A(25,27,65)           110.1096         estimate D2E/DX2                !
 ! A81   A(25,27,85)           113.4434         estimate D2E/DX2                !
 ! A82   A(29,27,65)           108.8463         estimate D2E/DX2                !
 ! A83   A(29,27,85)           114.3699         estimate D2E/DX2                !
 ! A84   A(65,27,85)           109.0199         estimate D2E/DX2                !
 ! A85   A(26,28,30)           100.7609         estimate D2E/DX2                !
 ! A86   A(26,28,66)           110.1098         estimate D2E/DX2                !
 ! A87   A(26,28,88)           113.4428         estimate D2E/DX2                !
 ! A88   A(30,28,66)           108.8451         estimate D2E/DX2                !
 ! A89   A(30,28,88)           114.3692         estimate D2E/DX2                !
 ! A90   A(66,28,88)           109.0219         estimate D2E/DX2                !
 ! A91   A(5,29,27)            111.5351         estimate D2E/DX2                !
 ! A92   A(5,29,31)            119.4567         estimate D2E/DX2                !
 ! A93   A(27,29,31)           121.8339         estimate D2E/DX2                !
 ! A94   A(7,30,28)            111.535          estimate D2E/DX2                !
 ! A95   A(7,30,32)            119.4563         estimate D2E/DX2                !
 ! A96   A(28,30,32)           121.8346         estimate D2E/DX2                !
 ! A97   A(29,31,33)           120.1309         estimate D2E/DX2                !
 ! A98   A(29,31,69)           121.0062         estimate D2E/DX2                !
 ! A99   A(33,31,69)           111.8473         estimate D2E/DX2                !
 ! A100  A(30,32,34)           120.1315         estimate D2E/DX2                !
 ! A101  A(30,32,70)           121.0065         estimate D2E/DX2                !
 ! A102  A(34,32,70)           111.8484         estimate D2E/DX2                !
 ! A103  A(31,33,35)           122.5901         estimate D2E/DX2                !
 ! A104  A(31,33,73)           107.0892         estimate D2E/DX2                !
 ! A105  A(35,33,73)           122.1854         estimate D2E/DX2                !
 ! A106  A(32,34,36)           122.5896         estimate D2E/DX2                !
 ! A107  A(32,34,74)           107.09           estimate D2E/DX2                !
 ! A108  A(36,34,74)           122.1851         estimate D2E/DX2                !
 ! A109  A(9,35,33)            116.2497         estimate D2E/DX2                !
 ! A110  A(9,35,37)            119.9572         estimate D2E/DX2                !
 ! A111  A(33,35,37)           118.6041         estimate D2E/DX2                !
 ! A112  A(12,36,34)           116.2493         estimate D2E/DX2                !
 ! A113  A(12,36,38)           119.9571         estimate D2E/DX2                !
 ! A114  A(34,36,38)           118.605          estimate D2E/DX2                !
 ! A115  A(35,37,39)           119.1538         estimate D2E/DX2                !
 ! A116  A(35,37,77)           118.1017         estimate D2E/DX2                !
 ! A117  A(39,37,77)           117.2617         estimate D2E/DX2                !
 ! A118  A(36,38,42)           119.1535         estimate D2E/DX2                !
 ! A119  A(36,38,78)           118.1013         estimate D2E/DX2                !
 ! A120  A(42,38,78)           117.2622         estimate D2E/DX2                !
 ! A121  A(37,39,43)           119.3139         estimate D2E/DX2                !
 ! A122  A(37,39,79)           119.9958         estimate D2E/DX2                !
 ! A123  A(43,39,79)           114.9081         estimate D2E/DX2                !
 ! A124  A(41,40,44)           121.1517         estimate D2E/DX2                !
 ! A125  A(41,40,79)           108.4295         estimate D2E/DX2                !
 ! A126  A(44,40,79)           122.1215         estimate D2E/DX2                !
 ! A127  A(40,41,45)           121.1582         estimate D2E/DX2                !
 ! A128  A(40,41,80)           108.4269         estimate D2E/DX2                !
 ! A129  A(45,41,80)           122.1221         estimate D2E/DX2                !
 ! A130  A(38,42,46)           119.3141         estimate D2E/DX2                !
 ! A131  A(38,42,80)           119.9962         estimate D2E/DX2                !
 ! A132  A(46,42,80)           114.9078         estimate D2E/DX2                !
 ! A133  A(2,43,13)            108.2437         estimate D2E/DX2                !
 ! A134  A(2,43,39)            122.1727         estimate D2E/DX2                !
 ! A135  A(13,43,39)           121.1071         estimate D2E/DX2                !
 ! A136  A(2,44,40)            115.093          estimate D2E/DX2                !
 ! A137  A(2,44,47)            120.1831         estimate D2E/DX2                !
 ! A138  A(40,44,47)           118.8928         estimate D2E/DX2                !
 ! A139  A(4,45,41)            115.0931         estimate D2E/DX2                !
 ! A140  A(4,45,48)            120.1848         estimate D2E/DX2                !
 ! A141  A(41,45,48)           118.8905         estimate D2E/DX2                !
 ! A142  A(4,46,14)            108.2434         estimate D2E/DX2                !
 ! A143  A(4,46,42)            122.1732         estimate D2E/DX2                !
 ! A144  A(14,46,42)           121.1068         estimate D2E/DX2                !
 ! A145  A(44,47,48)           119.9061         estimate D2E/DX2                !
 ! A146  A(44,47,49)           117.5084         estimate D2E/DX2                !
 ! A147  A(48,47,49)           117.5156         estimate D2E/DX2                !
 ! A148  A(45,48,47)           119.9066         estimate D2E/DX2                !
 ! A149  A(45,48,50)           117.5062         estimate D2E/DX2                !
 ! A150  A(47,48,50)           117.5164         estimate D2E/DX2                !
 ! A151  A(10,49,47)           121.5328         estimate D2E/DX2                !
 ! A152  A(10,49,51)           106.9486         estimate D2E/DX2                !
 ! A153  A(47,49,51)           123.2654         estimate D2E/DX2                !
 ! A154  A(11,50,48)           121.5349         estimate D2E/DX2                !
 ! A155  A(11,50,52)           106.9493         estimate D2E/DX2                !
 ! A156  A(48,50,52)           123.262          estimate D2E/DX2                !
 ! A157  A(49,51,52)           119.1523         estimate D2E/DX2                !
 ! A158  A(49,51,55)           111.182          estimate D2E/DX2                !
 ! A159  A(52,51,55)           122.9635         estimate D2E/DX2                !
 ! A160  A(50,52,51)           119.1618         estimate D2E/DX2                !
 ! A161  A(50,52,56)           111.1813         estimate D2E/DX2                !
 ! A162  A(51,52,56)           122.9613         estimate D2E/DX2                !
 ! A163  A(10,53,19)           119.8946         estimate D2E/DX2                !
 ! A164  A(10,53,55)           108.9642         estimate D2E/DX2                !
 ! A165  A(19,53,55)           124.5741         estimate D2E/DX2                !
 ! A166  A(11,54,20)           119.8962         estimate D2E/DX2                !
 ! A167  A(11,54,56)           108.9623         estimate D2E/DX2                !
 ! A168  A(20,54,56)           124.5744         estimate D2E/DX2                !
 ! A169  A(51,55,53)           101.5101         estimate D2E/DX2                !
 ! A170  A(51,55,83)           110.1393         estimate D2E/DX2                !
 ! A171  A(51,55,91)           112.5291         estimate D2E/DX2                !
 ! A172  A(53,55,83)           112.5276         estimate D2E/DX2                !
 ! A173  A(53,55,91)           111.076          estimate D2E/DX2                !
 ! A174  A(83,55,91)           108.9563         estimate D2E/DX2                !
 ! A175  A(52,56,54)           101.5111         estimate D2E/DX2                !
 ! A176  A(52,56,84)           110.1374         estimate D2E/DX2                !
 ! A177  A(52,56,92)           112.5291         estimate D2E/DX2                !
 ! A178  A(54,56,84)           112.526          estimate D2E/DX2                !
 ! A179  A(54,56,92)           111.0756         estimate D2E/DX2                !
 ! A180  A(84,56,92)           108.959          estimate D2E/DX2                !
 ! A181  A(21,57,59)           108.065          estimate D2E/DX2                !
 ! A182  A(21,57,83)           123.4009         estimate D2E/DX2                !
 ! A183  A(59,57,83)           121.3525         estimate D2E/DX2                !
 ! A184  A(22,58,60)           108.0668         estimate D2E/DX2                !
 ! A185  A(22,58,84)           123.398          estimate D2E/DX2                !
 ! A186  A(60,58,84)           121.3527         estimate D2E/DX2                !
 ! A187  A(57,59,60)           119.6499         estimate D2E/DX2                !
 ! A188  A(57,59,61)           111.6296         estimate D2E/DX2                !
 ! A189  A(60,59,61)           121.8557         estimate D2E/DX2                !
 ! A190  A(58,60,59)           119.6453         estimate D2E/DX2                !
 ! A191  A(58,60,62)           111.6268         estimate D2E/DX2                !
 ! A192  A(59,60,62)           121.8456         estimate D2E/DX2                !
 ! A193  A(23,61,59)           100.4741         estimate D2E/DX2                !
 ! A194  A(23,61,63)           110.2636         estimate D2E/DX2                !
 ! A195  A(23,61,89)           113.9596         estimate D2E/DX2                !
 ! A196  A(59,61,63)           109.1726         estimate D2E/DX2                !
 ! A197  A(59,61,89)           114.0462         estimate D2E/DX2                !
 ! A198  A(63,61,89)           108.6692         estimate D2E/DX2                !
 ! A199  A(24,62,60)           100.4755         estimate D2E/DX2                !
 ! A200  A(24,62,64)           110.2619         estimate D2E/DX2                !
 ! A201  A(24,62,90)           113.958          estimate D2E/DX2                !
 ! A202  A(60,62,64)           109.1763         estimate D2E/DX2                !
 ! A203  A(60,62,90)           114.0439         estimate D2E/DX2                !
 ! A204  A(64,62,90)           108.6699         estimate D2E/DX2                !
 ! A205  A(61,63,64)           120.1124         estimate D2E/DX2                !
 ! A206  A(61,63,65)           119.7907         estimate D2E/DX2                !
 ! A207  A(64,63,65)           119.887          estimate D2E/DX2                !
 ! A208  A(62,64,63)           120.1179         estimate D2E/DX2                !
 ! A209  A(62,64,66)           119.7917         estimate D2E/DX2                !
 ! A210  A(63,64,66)           119.8808         estimate D2E/DX2                !
 ! A211  A(27,65,63)           119.6943         estimate D2E/DX2                !
 ! A212  A(27,65,67)           119.8182         estimate D2E/DX2                !
 ! A213  A(63,65,67)           120.2422         estimate D2E/DX2                !
 ! A214  A(28,66,64)           119.6931         estimate D2E/DX2                !
 ! A215  A(28,66,68)           119.8186         estimate D2E/DX2                !
 ! A216  A(64,66,68)           120.2433         estimate D2E/DX2                !
 ! A217  A(65,67,68)           119.8646         estimate D2E/DX2                !
 ! A218  A(65,67,69)           119.6087         estimate D2E/DX2                !
 ! A219  A(68,67,69)           120.3021         estimate D2E/DX2                !
 ! A220  A(66,68,67)           119.8683         estimate D2E/DX2                !
 ! A221  A(66,68,70)           119.6084         estimate D2E/DX2                !
 ! A222  A(67,68,70)           120.2985         estimate D2E/DX2                !
 ! A223  A(31,69,67)           108.6991         estimate D2E/DX2                !
 ! A224  A(31,69,71)           101.1778         estimate D2E/DX2                !
 ! A225  A(31,69,86)           114.1449         estimate D2E/DX2                !
 ! A226  A(67,69,71)           110.4719         estimate D2E/DX2                !
 ! A227  A(67,69,86)           108.4466         estimate D2E/DX2                !
 ! A228  A(71,69,86)           113.6871         estimate D2E/DX2                !
 ! A229  A(32,70,68)           108.6972         estimate D2E/DX2                !
 ! A230  A(32,70,72)           101.1767         estimate D2E/DX2                !
 ! A231  A(32,70,87)           114.145          estimate D2E/DX2                !
 ! A232  A(68,70,72)           110.4768         estimate D2E/DX2                !
 ! A233  A(68,70,87)           108.4436         estimate D2E/DX2                !
 ! A234  A(72,70,87)           113.6882         estimate D2E/DX2                !
 ! A235  A(69,71,72)           121.9408         estimate D2E/DX2                !
 ! A236  A(69,71,73)           110.1212         estimate D2E/DX2                !
 ! A237  A(72,71,73)           119.5922         estimate D2E/DX2                !
 ! A238  A(70,72,71)           121.9306         estimate D2E/DX2                !
 ! A239  A(70,72,74)           110.1201         estimate D2E/DX2                !
 ! A240  A(71,72,74)           119.5908         estimate D2E/DX2                !
 ! A241  A(33,73,71)           109.3603         estimate D2E/DX2                !
 ! A242  A(33,73,75)           119.1672         estimate D2E/DX2                !
 ! A243  A(71,73,75)           121.366          estimate D2E/DX2                !
 ! A244  A(34,74,72)           109.3612         estimate D2E/DX2                !
 ! A245  A(34,74,76)           119.1671         estimate D2E/DX2                !
 ! A246  A(72,74,76)           121.3668         estimate D2E/DX2                !
 ! A247  A(73,75,76)           119.0042         estimate D2E/DX2                !
 ! A248  A(73,75,77)           119.8712         estimate D2E/DX2                !
 ! A249  A(76,75,77)           108.6968         estimate D2E/DX2                !
 ! A250  A(74,76,75)           119.0028         estimate D2E/DX2                !
 ! A251  A(74,76,78)           119.8715         estimate D2E/DX2                !
 ! A252  A(75,76,78)           108.6956         estimate D2E/DX2                !
 ! A253  A(37,77,75)           121.9622         estimate D2E/DX2                !
 ! A254  A(37,77,81)           121.5824         estimate D2E/DX2                !
 ! A255  A(75,77,81)           106.1647         estimate D2E/DX2                !
 ! A256  A(38,78,76)           121.9621         estimate D2E/DX2                !
 ! A257  A(38,78,81)           121.5814         estimate D2E/DX2                !
 ! A258  A(76,78,81)           106.1651         estimate D2E/DX2                !
 ! A259  A(39,79,40)           121.9222         estimate D2E/DX2                !
 ! A260  A(39,79,82)           120.581          estimate D2E/DX2                !
 ! A261  A(40,79,82)           106.6805         estimate D2E/DX2                !
 ! A262  A(41,80,42)           121.9213         estimate D2E/DX2                !
 ! A263  A(41,80,82)           106.6816         estimate D2E/DX2                !
 ! A264  A(42,80,82)           120.5801         estimate D2E/DX2                !
 ! A265  A(77,81,78)           109.5166         estimate D2E/DX2                !
 ! A266  A(77,81,82)           119.7731         estimate D2E/DX2                !
 ! A267  A(78,81,82)           119.7736         estimate D2E/DX2                !
 ! A268  A(79,82,80)           109.6008         estimate D2E/DX2                !
 ! A269  A(79,82,81)           120.0446         estimate D2E/DX2                !
 ! A270  A(80,82,81)           120.045          estimate D2E/DX2                !
 ! A271  A(55,83,57)           116.6025         estimate D2E/DX2                !
 ! A272  A(55,83,84)           122.2123         estimate D2E/DX2                !
 ! A273  A(57,83,84)           118.9965         estimate D2E/DX2                !
 ! A274  A(56,84,58)           116.6039         estimate D2E/DX2                !
 ! A275  A(56,84,83)           122.2127         estimate D2E/DX2                !
 ! A276  A(58,84,83)           118.9996         estimate D2E/DX2                !
 ! D1    D(17,1,5,9)            -2.9258         estimate D2E/DX2                !
 ! D2    D(17,1,5,29)         -151.5128         estimate D2E/DX2                !
 ! D3    D(25,1,5,9)           146.3652         estimate D2E/DX2                !
 ! D4    D(25,1,5,29)           -2.2218         estimate D2E/DX2                !
 ! D5    D(5,1,17,15)           -5.6156         estimate D2E/DX2                !
 ! D6    D(5,1,17,19)          145.4686         estimate D2E/DX2                !
 ! D7    D(25,1,17,15)        -150.841          estimate D2E/DX2                !
 ! D8    D(25,1,17,19)           0.2432         estimate D2E/DX2                !
 ! D9    D(5,1,25,23)         -148.1768         estimate D2E/DX2                !
 ! D10   D(5,1,25,27)            2.3219         estimate D2E/DX2                !
 ! D11   D(17,1,25,23)           1.1689         estimate D2E/DX2                !
 ! D12   D(17,1,25,27)         151.6677         estimate D2E/DX2                !
 ! D13   D(43,2,6,10)         -147.9748         estimate D2E/DX2                !
 ! D14   D(43,2,6,15)           -3.7262         estimate D2E/DX2                !
 ! D15   D(44,2,6,10)           -2.5427         estimate D2E/DX2                !
 ! D16   D(44,2,6,15)          141.7059         estimate D2E/DX2                !
 ! D17   D(6,2,43,13)            3.2217         estimate D2E/DX2                !
 ! D18   D(6,2,43,39)          151.4362         estimate D2E/DX2                !
 ! D19   D(44,2,43,13)        -141.6867         estimate D2E/DX2                !
 ! D20   D(44,2,43,39)           6.5279         estimate D2E/DX2                !
 ! D21   D(6,2,44,40)         -152.6841         estimate D2E/DX2                !
 ! D22   D(6,2,44,47)            0.1349         estimate D2E/DX2                !
 ! D23   D(43,2,44,40)         -12.4426         estimate D2E/DX2                !
 ! D24   D(43,2,44,47)         140.3765         estimate D2E/DX2                !
 ! D25   D(18,3,7,12)            2.9249         estimate D2E/DX2                !
 ! D26   D(18,3,7,30)          151.5132         estimate D2E/DX2                !
 ! D27   D(26,3,7,12)         -146.3655         estimate D2E/DX2                !
 ! D28   D(26,3,7,30)            2.2227         estimate D2E/DX2                !
 ! D29   D(7,3,18,16)            5.6166         estimate D2E/DX2                !
 ! D30   D(7,3,18,20)         -145.4676         estimate D2E/DX2                !
 ! D31   D(26,3,18,16)         150.8413         estimate D2E/DX2                !
 ! D32   D(26,3,18,20)          -0.2429         estimate D2E/DX2                !
 ! D33   D(7,3,26,24)          148.1775         estimate D2E/DX2                !
 ! D34   D(7,3,26,28)           -2.3228         estimate D2E/DX2                !
 ! D35   D(18,3,26,24)          -1.1675         estimate D2E/DX2                !
 ! D36   D(18,3,26,28)        -151.6679         estimate D2E/DX2                !
 ! D37   D(45,4,8,11)            2.5424         estimate D2E/DX2                !
 ! D38   D(45,4,8,16)         -141.7055         estimate D2E/DX2                !
 ! D39   D(46,4,8,11)          147.9744         estimate D2E/DX2                !
 ! D40   D(46,4,8,16)            3.7265         estimate D2E/DX2                !
 ! D41   D(8,4,45,41)          152.6826         estimate D2E/DX2                !
 ! D42   D(8,4,45,48)           -0.1349         estimate D2E/DX2                !
 ! D43   D(46,4,45,41)          12.4411         estimate D2E/DX2                !
 ! D44   D(46,4,45,48)        -140.3764         estimate D2E/DX2                !
 ! D45   D(8,4,46,14)           -3.2226         estimate D2E/DX2                !
 ! D46   D(8,4,46,42)         -151.4368         estimate D2E/DX2                !
 ! D47   D(45,4,46,14)         141.6857         estimate D2E/DX2                !
 ! D48   D(45,4,46,42)          -6.5284         estimate D2E/DX2                !
 ! D49   D(1,5,9,13)             8.0718         estimate D2E/DX2                !
 ! D50   D(1,5,9,35)          -145.4133         estimate D2E/DX2                !
 ! D51   D(29,5,9,13)          152.5257         estimate D2E/DX2                !
 ! D52   D(29,5,9,35)           -0.9593         estimate D2E/DX2                !
 ! D53   D(1,5,29,27)            1.3396         estimate D2E/DX2                !
 ! D54   D(1,5,29,31)          152.2781         estimate D2E/DX2                !
 ! D55   D(9,5,29,27)         -147.53           estimate D2E/DX2                !
 ! D56   D(9,5,29,31)            3.4085         estimate D2E/DX2                !
 ! D57   D(2,6,10,49)           -0.1604         estimate D2E/DX2                !
 ! D58   D(2,6,10,53)          143.255          estimate D2E/DX2                !
 ! D59   D(15,6,10,49)        -140.6313         estimate D2E/DX2                !
 ! D60   D(15,6,10,53)           2.7841         estimate D2E/DX2                !
 ! D61   D(2,6,15,13)            2.7658         estimate D2E/DX2                !
 ! D62   D(2,6,15,17)         -142.5712         estimate D2E/DX2                !
 ! D63   D(10,6,15,13)         146.9376         estimate D2E/DX2                !
 ! D64   D(10,6,15,17)           1.6006         estimate D2E/DX2                !
 ! D65   D(3,7,12,14)           -8.071          estimate D2E/DX2                !
 ! D66   D(3,7,12,36)          145.4154         estimate D2E/DX2                !
 ! D67   D(30,7,12,14)        -152.5263         estimate D2E/DX2                !
 ! D68   D(30,7,12,36)           0.96           estimate D2E/DX2                !
 ! D69   D(3,7,30,28)           -1.3401         estimate D2E/DX2                !
 ! D70   D(3,7,30,32)         -152.2793         estimate D2E/DX2                !
 ! D71   D(12,7,30,28)         147.5308         estimate D2E/DX2                !
 ! D72   D(12,7,30,32)          -3.4084         estimate D2E/DX2                !
 ! D73   D(4,8,11,50)            0.1601         estimate D2E/DX2                !
 ! D74   D(4,8,11,54)         -143.254          estimate D2E/DX2                !
 ! D75   D(16,8,11,50)         140.6303         estimate D2E/DX2                !
 ! D76   D(16,8,11,54)          -2.7838         estimate D2E/DX2                !
 ! D77   D(4,8,16,14)           -2.7653         estimate D2E/DX2                !
 ! D78   D(4,8,16,18)          142.5704         estimate D2E/DX2                !
 ! D79   D(11,8,16,14)        -146.936          estimate D2E/DX2                !
 ! D80   D(11,8,16,18)          -1.6003         estimate D2E/DX2                !
 ! D81   D(5,9,13,15)           -4.8428         estimate D2E/DX2                !
 ! D82   D(5,9,13,43)         -148.3155         estimate D2E/DX2                !
 ! D83   D(35,9,13,15)         148.6735         estimate D2E/DX2                !
 ! D84   D(35,9,13,43)           5.2009         estimate D2E/DX2                !
 ! D85   D(5,9,35,33)           -4.8046         estimate D2E/DX2                !
 ! D86   D(5,9,35,37)          149.3982         estimate D2E/DX2                !
 ! D87   D(13,9,35,33)        -157.1996         estimate D2E/DX2                !
 ! D88   D(13,9,35,37)          -2.9967         estimate D2E/DX2                !
 ! D89   D(6,10,49,47)           5.4491         estimate D2E/DX2                !
 ! D90   D(6,10,49,51)         154.7382         estimate D2E/DX2                !
 ! D91   D(53,10,49,47)       -141.7044         estimate D2E/DX2                !
 ! D92   D(53,10,49,51)          7.5847         estimate D2E/DX2                !
 ! D93   D(6,10,53,19)          -6.5859         estimate D2E/DX2                !
 ! D94   D(6,10,53,55)        -159.4197         estimate D2E/DX2                !
 ! D95   D(49,10,53,19)        140.0999         estimate D2E/DX2                !
 ! D96   D(49,10,53,55)        -12.7339         estimate D2E/DX2                !
 ! D97   D(8,11,50,48)          -5.448          estimate D2E/DX2                !
 ! D98   D(8,11,50,52)        -154.7348         estimate D2E/DX2                !
 ! D99   D(54,11,50,48)        141.7039         estimate D2E/DX2                !
 ! D100  D(54,11,50,52)         -7.5829         estimate D2E/DX2                !
 ! D101  D(8,11,54,20)           6.5849         estimate D2E/DX2                !
 ! D102  D(8,11,54,56)         159.4185         estimate D2E/DX2                !
 ! D103  D(50,11,54,20)       -140.0993         estimate D2E/DX2                !
 ! D104  D(50,11,54,56)         12.7343         estimate D2E/DX2                !
 ! D105  D(7,12,14,16)           4.8418         estimate D2E/DX2                !
 ! D106  D(7,12,14,46)         148.3157         estimate D2E/DX2                !
 ! D107  D(36,12,14,16)       -148.6758         estimate D2E/DX2                !
 ! D108  D(36,12,14,46)         -5.2019         estimate D2E/DX2                !
 ! D109  D(7,12,36,34)           4.8048         estimate D2E/DX2                !
 ! D110  D(7,12,36,38)        -149.3992         estimate D2E/DX2                !
 ! D111  D(14,12,36,34)        157.201          estimate D2E/DX2                !
 ! D112  D(14,12,36,38)          2.997          estimate D2E/DX2                !
 ! D113  D(9,13,15,6)         -148.0896         estimate D2E/DX2                !
 ! D114  D(9,13,15,17)          -3.7731         estimate D2E/DX2                !
 ! D115  D(43,13,15,6)          -0.7293         estimate D2E/DX2                !
 ! D116  D(43,13,15,17)        143.5872         estimate D2E/DX2                !
 ! D117  D(9,13,43,2)          146.2708         estimate D2E/DX2                !
 ! D118  D(9,13,43,39)          -2.3474         estimate D2E/DX2                !
 ! D119  D(15,13,43,2)          -1.5679         estimate D2E/DX2                !
 ! D120  D(15,13,43,39)       -150.1861         estimate D2E/DX2                !
 ! D121  D(12,14,16,8)         148.0895         estimate D2E/DX2                !
 ! D122  D(12,14,16,18)          3.7743         estimate D2E/DX2                !
 ! D123  D(46,14,16,8)           0.7282         estimate D2E/DX2                !
 ! D124  D(46,14,16,18)       -143.587          estimate D2E/DX2                !
 ! D125  D(12,14,46,4)        -146.2705         estimate D2E/DX2                !
 ! D126  D(12,14,46,42)          2.3476         estimate D2E/DX2                !
 ! D127  D(16,14,46,4)           1.5692         estimate D2E/DX2                !
 ! D128  D(16,14,46,42)        150.1873         estimate D2E/DX2                !
 ! D129  D(6,15,17,1)          148.7502         estimate D2E/DX2                !
 ! D130  D(6,15,17,19)          -2.1618         estimate D2E/DX2                !
 ! D131  D(13,15,17,1)           8.8687         estimate D2E/DX2                !
 ! D132  D(13,15,17,19)       -142.0433         estimate D2E/DX2                !
 ! D133  D(8,16,18,3)         -148.7497         estimate D2E/DX2                !
 ! D134  D(8,16,18,20)           2.1618         estimate D2E/DX2                !
 ! D135  D(14,16,18,3)          -8.8697         estimate D2E/DX2                !
 ! D136  D(14,16,18,20)        142.0418         estimate D2E/DX2                !
 ! D137  D(1,17,19,21)          -1.122          estimate D2E/DX2                !
 ! D138  D(1,17,19,53)        -151.5072         estimate D2E/DX2                !
 ! D139  D(15,17,19,21)        148.7971         estimate D2E/DX2                !
 ! D140  D(15,17,19,53)         -1.588          estimate D2E/DX2                !
 ! D141  D(3,18,20,22)           1.1212         estimate D2E/DX2                !
 ! D142  D(3,18,20,54)         151.5062         estimate D2E/DX2                !
 ! D143  D(16,18,20,22)       -148.7978         estimate D2E/DX2                !
 ! D144  D(16,18,20,54)          1.5872         estimate D2E/DX2                !
 ! D145  D(17,19,21,23)          0.6782         estimate D2E/DX2                !
 ! D146  D(17,19,21,57)       -142.2165         estimate D2E/DX2                !
 ! D147  D(53,19,21,23)        151.9292         estimate D2E/DX2                !
 ! D148  D(53,19,21,57)          9.0344         estimate D2E/DX2                !
 ! D149  D(17,19,53,10)          5.896          estimate D2E/DX2                !
 ! D150  D(17,19,53,55)        154.2678         estimate D2E/DX2                !
 ! D151  D(21,19,53,10)       -144.7563         estimate D2E/DX2                !
 ! D152  D(21,19,53,55)          3.6156         estimate D2E/DX2                !
 ! D153  D(18,20,22,24)         -0.6786         estimate D2E/DX2                !
 ! D154  D(18,20,22,58)        142.2172         estimate D2E/DX2                !
 ! D155  D(54,20,22,24)       -151.9289         estimate D2E/DX2                !
 ! D156  D(54,20,22,58)         -9.0332         estimate D2E/DX2                !
 ! D157  D(18,20,54,11)         -5.8947         estimate D2E/DX2                !
 ! D158  D(18,20,54,56)       -154.2657         estimate D2E/DX2                !
 ! D159  D(22,20,54,11)        144.7576         estimate D2E/DX2                !
 ! D160  D(22,20,54,56)         -3.6134         estimate D2E/DX2                !
 ! D161  D(19,21,23,25)          0.7192         estimate D2E/DX2                !
 ! D162  D(19,21,23,61)       -149.6077         estimate D2E/DX2                !
 ! D163  D(57,21,23,25)        147.6723         estimate D2E/DX2                !
 ! D164  D(57,21,23,61)         -2.6546         estimate D2E/DX2                !
 ! D165  D(19,21,57,59)        148.5913         estimate D2E/DX2                !
 ! D166  D(19,21,57,83)         -1.9408         estimate D2E/DX2                !
 ! D167  D(23,21,57,59)          1.1617         estimate D2E/DX2                !
 ! D168  D(23,21,57,83)       -149.3704         estimate D2E/DX2                !
 ! D169  D(20,22,24,26)         -0.7171         estimate D2E/DX2                !
 ! D170  D(20,22,24,62)        149.608          estimate D2E/DX2                !
 ! D171  D(58,22,24,26)       -147.6713         estimate D2E/DX2                !
 ! D172  D(58,22,24,62)          2.6538         estimate D2E/DX2                !
 ! D173  D(20,22,58,60)       -148.5979         estimate D2E/DX2                !
 ! D174  D(20,22,58,84)          1.9329         estimate D2E/DX2                !
 ! D175  D(24,22,58,60)         -1.1676         estimate D2E/DX2                !
 ! D176  D(24,22,58,84)        149.3632         estimate D2E/DX2                !
 ! D177  D(21,23,25,1)          -1.6344         estimate D2E/DX2                !
 ! D178  D(21,23,25,27)       -149.121          estimate D2E/DX2                !
 ! D179  D(61,23,25,1)         145.9928         estimate D2E/DX2                !
 ! D180  D(61,23,25,27)         -1.4938         estimate D2E/DX2                !
 ! D181  D(21,23,61,59)          2.894          estimate D2E/DX2                !
 ! D182  D(21,23,61,63)        117.9983         estimate D2E/DX2                !
 ! D183  D(21,23,61,89)       -119.4909         estimate D2E/DX2                !
 ! D184  D(25,23,61,59)       -147.2613         estimate D2E/DX2                !
 ! D185  D(25,23,61,63)        -32.157          estimate D2E/DX2                !
 ! D186  D(25,23,61,89)         90.3538         estimate D2E/DX2                !
 ! D187  D(22,24,26,3)           1.6319         estimate D2E/DX2                !
 ! D188  D(22,24,26,28)        149.1202         estimate D2E/DX2                !
 ! D189  D(62,24,26,3)        -145.9932         estimate D2E/DX2                !
 ! D190  D(62,24,26,28)          1.4952         estimate D2E/DX2                !
 ! D191  D(22,24,62,60)         -2.8876         estimate D2E/DX2                !
 ! D192  D(22,24,62,64)       -117.9961         estimate D2E/DX2                !
 ! D193  D(22,24,62,90)        119.4946         estimate D2E/DX2                !
 ! D194  D(26,24,62,60)        147.2655         estimate D2E/DX2                !
 ! D195  D(26,24,62,64)         32.157          estimate D2E/DX2                !
 ! D196  D(26,24,62,90)        -90.3522         estimate D2E/DX2                !
 ! D197  D(1,25,27,29)          -1.4289         estimate D2E/DX2                !
 ! D198  D(1,25,27,65)        -116.2473         estimate D2E/DX2                !
 ! D199  D(1,25,27,85)         121.2694         estimate D2E/DX2                !
 ! D200  D(23,25,27,29)        148.5218         estimate D2E/DX2                !
 ! D201  D(23,25,27,65)         33.7033         estimate D2E/DX2                !
 ! D202  D(23,25,27,85)        -88.7799         estimate D2E/DX2                !
 ! D203  D(3,26,28,30)           1.4294         estimate D2E/DX2                !
 ! D204  D(3,26,28,66)         116.2467         estimate D2E/DX2                !
 ! D205  D(3,26,28,88)        -121.2678         estimate D2E/DX2                !
 ! D206  D(24,26,28,30)       -148.5232         estimate D2E/DX2                !
 ! D207  D(24,26,28,66)        -33.706          estimate D2E/DX2                !
 ! D208  D(24,26,28,88)         88.7795         estimate D2E/DX2                !
 ! D209  D(25,27,29,5)           0.0268         estimate D2E/DX2                !
 ! D210  D(25,27,29,31)       -150.1161         estimate D2E/DX2                !
 ! D211  D(65,27,29,5)         115.7909         estimate D2E/DX2                !
 ! D212  D(65,27,29,31)        -34.352          estimate D2E/DX2                !
 ! D213  D(85,27,29,5)        -122.0238         estimate D2E/DX2                !
 ! D214  D(85,27,29,31)         87.8333         estimate D2E/DX2                !
 ! D215  D(25,27,65,63)        -31.629          estimate D2E/DX2                !
 ! D216  D(25,27,65,67)        142.6969         estimate D2E/DX2                !
 ! D217  D(29,27,65,63)       -141.2057         estimate D2E/DX2                !
 ! D218  D(29,27,65,67)         33.1202         estimate D2E/DX2                !
 ! D219  D(85,27,65,63)         93.4253         estimate D2E/DX2                !
 ! D220  D(85,27,65,67)        -92.2488         estimate D2E/DX2                !
 ! D221  D(26,28,30,7)          -0.0268         estimate D2E/DX2                !
 ! D222  D(26,28,30,32)        150.1164         estimate D2E/DX2                !
 ! D223  D(66,28,30,7)        -115.7908         estimate D2E/DX2                !
 ! D224  D(66,28,30,32)         34.3524         estimate D2E/DX2                !
 ! D225  D(88,28,30,7)         122.0227         estimate D2E/DX2                !
 ! D226  D(88,28,30,32)        -87.8341         estimate D2E/DX2                !
 ! D227  D(26,28,66,64)         31.6299         estimate D2E/DX2                !
 ! D228  D(26,28,66,68)       -142.6985         estimate D2E/DX2                !
 ! D229  D(30,28,66,64)        141.2062         estimate D2E/DX2                !
 ! D230  D(30,28,66,68)        -33.1221         estimate D2E/DX2                !
 ! D231  D(88,28,66,64)        -93.4251         estimate D2E/DX2                !
 ! D232  D(88,28,66,68)         92.2465         estimate D2E/DX2                !
 ! D233  D(5,29,31,33)           0.1608         estimate D2E/DX2                !
 ! D234  D(5,29,31,69)        -148.1409         estimate D2E/DX2                !
 ! D235  D(27,29,31,33)        148.0311         estimate D2E/DX2                !
 ! D236  D(27,29,31,69)         -0.2706         estimate D2E/DX2                !
 ! D237  D(7,30,32,34)          -0.1628         estimate D2E/DX2                !
 ! D238  D(7,30,32,70)         148.1436         estimate D2E/DX2                !
 ! D239  D(28,30,32,34)       -148.0335         estimate D2E/DX2                !
 ! D240  D(28,30,32,70)          0.2729         estimate D2E/DX2                !
 ! D241  D(29,31,33,35)         -6.4063         estimate D2E/DX2                !
 ! D242  D(29,31,33,73)       -155.4928         estimate D2E/DX2                !
 ! D243  D(69,31,33,35)        144.5672         estimate D2E/DX2                !
 ! D244  D(69,31,33,73)         -4.5193         estimate D2E/DX2                !
 ! D245  D(29,31,69,67)         35.2341         estimate D2E/DX2                !
 ! D246  D(29,31,69,71)        151.5461         estimate D2E/DX2                !
 ! D247  D(29,31,69,86)        -85.9507         estimate D2E/DX2                !
 ! D248  D(33,31,69,67)       -115.4508         estimate D2E/DX2                !
 ! D249  D(33,31,69,71)          0.8612         estimate D2E/DX2                !
 ! D250  D(33,31,69,86)        123.3644         estimate D2E/DX2                !
 ! D251  D(30,32,34,36)          6.4093         estimate D2E/DX2                !
 ! D252  D(30,32,34,74)        155.4955         estimate D2E/DX2                !
 ! D253  D(70,32,34,36)       -144.5682         estimate D2E/DX2                !
 ! D254  D(70,32,34,74)          4.518          estimate D2E/DX2                !
 ! D255  D(30,32,70,68)        -35.2366         estimate D2E/DX2                !
 ! D256  D(30,32,70,72)       -151.5529         estimate D2E/DX2                !
 ! D257  D(30,32,70,87)         85.9431         estimate D2E/DX2                !
 ! D258  D(34,32,70,68)        115.4525         estimate D2E/DX2                !
 ! D259  D(34,32,70,72)         -0.8638         estimate D2E/DX2                !
 ! D260  D(34,32,70,87)       -123.3679         estimate D2E/DX2                !
 ! D261  D(31,33,35,9)           8.5428         estimate D2E/DX2                !
 ! D262  D(31,33,35,37)       -146.0238         estimate D2E/DX2                !
 ! D263  D(73,33,35,9)         153.0764         estimate D2E/DX2                !
 ! D264  D(73,33,35,37)         -1.4902         estimate D2E/DX2                !
 ! D265  D(31,33,73,71)          6.4813         estimate D2E/DX2                !
 ! D266  D(31,33,73,75)        152.3679         estimate D2E/DX2                !
 ! D267  D(35,33,73,71)       -142.7584         estimate D2E/DX2                !
 ! D268  D(35,33,73,75)          3.1282         estimate D2E/DX2                !
 ! D269  D(32,34,36,12)         -8.5448         estimate D2E/DX2                !
 ! D270  D(32,34,36,38)        146.0227         estimate D2E/DX2                !
 ! D271  D(74,34,36,12)       -153.0785         estimate D2E/DX2                !
 ! D272  D(74,34,36,38)          1.489          estimate D2E/DX2                !
 ! D273  D(32,34,74,72)         -6.4764         estimate D2E/DX2                !
 ! D274  D(32,34,74,76)       -152.3654         estimate D2E/DX2                !
 ! D275  D(36,34,74,72)        142.763          estimate D2E/DX2                !
 ! D276  D(36,34,74,76)         -3.126          estimate D2E/DX2                !
 ! D277  D(9,35,37,39)          -1.9934         estimate D2E/DX2                !
 ! D278  D(9,35,37,77)        -155.1786         estimate D2E/DX2                !
 ! D279  D(33,35,37,39)        151.6108         estimate D2E/DX2                !
 ! D280  D(33,35,37,77)         -1.5743         estimate D2E/DX2                !
 ! D281  D(12,36,38,42)          1.9947         estimate D2E/DX2                !
 ! D282  D(12,36,38,78)        155.1793         estimate D2E/DX2                !
 ! D283  D(34,36,38,42)       -151.6105         estimate D2E/DX2                !
 ! D284  D(34,36,38,78)          1.5741         estimate D2E/DX2                !
 ! D285  D(35,37,39,43)          4.8252         estimate D2E/DX2                !
 ! D286  D(35,37,39,79)       -147.0392         estimate D2E/DX2                !
 ! D287  D(77,37,39,43)        158.232          estimate D2E/DX2                !
 ! D288  D(77,37,39,79)          6.3676         estimate D2E/DX2                !
 ! D289  D(35,37,77,75)          3.0823         estimate D2E/DX2                !
 ! D290  D(35,37,77,81)        143.328          estimate D2E/DX2                !
 ! D291  D(39,37,77,75)       -150.6103         estimate D2E/DX2                !
 ! D292  D(39,37,77,81)        -10.3645         estimate D2E/DX2                !
 ! D293  D(36,38,42,46)         -4.8272         estimate D2E/DX2                !
 ! D294  D(36,38,42,80)        147.0378         estimate D2E/DX2                !
 ! D295  D(78,38,42,46)       -158.2333         estimate D2E/DX2                !
 ! D296  D(78,38,42,80)         -6.3682         estimate D2E/DX2                !
 ! D297  D(36,38,78,76)         -3.0816         estimate D2E/DX2                !
 ! D298  D(36,38,78,81)       -143.3262         estimate D2E/DX2                !
 ! D299  D(42,38,78,76)        150.6102         estimate D2E/DX2                !
 ! D300  D(42,38,78,81)         10.3657         estimate D2E/DX2                !
 ! D301  D(37,39,43,2)        -146.9865         estimate D2E/DX2                !
 ! D302  D(37,39,43,13)         -2.7387         estimate D2E/DX2                !
 ! D303  D(79,39,43,2)           6.2516         estimate D2E/DX2                !
 ! D304  D(79,39,43,13)        150.4994         estimate D2E/DX2                !
 ! D305  D(37,39,79,40)        140.3911         estimate D2E/DX2                !
 ! D306  D(37,39,79,82)          0.8417         estimate D2E/DX2                !
 ! D307  D(43,39,79,40)        -12.6505         estimate D2E/DX2                !
 ! D308  D(43,39,79,82)       -152.1998         estimate D2E/DX2                !
 ! D309  D(44,40,41,45)          0.0034         estimate D2E/DX2                !
 ! D310  D(44,40,41,80)       -148.9102         estimate D2E/DX2                !
 ! D311  D(79,40,41,45)        148.9094         estimate D2E/DX2                !
 ! D312  D(79,40,41,80)         -0.0041         estimate D2E/DX2                !
[...]
 Alpha virt. eigenvalues --    1.35413   1.35868   1.35957   1.36302   1.36725
 Alpha virt. eigenvalues --    1.37208   1.38018   1.38445   1.39009   1.39857
 Alpha virt. eigenvalues --    1.40470   1.40630   1.41400   1.41489   1.42415
 Alpha virt. eigenvalues --    1.42572   1.42710   1.43324   1.43923   1.44320
 Alpha virt. eigenvalues --    1.45626   1.45687   1.46749   1.46819   1.47255
 Alpha virt. eigenvalues --    1.47791   1.47825   1.48377   1.48918   1.49872
 Alpha virt. eigenvalues --    1.50590   1.51329   1.51666   1.52164   1.53324
 Alpha virt. eigenvalues --    1.53660   1.53874   1.54497   1.54580   1.55234
 Alpha virt. eigenvalues --    1.55387   1.55582   1.56195   1.56707   1.56985
 Alpha virt. eigenvalues --    1.57556   1.57975   1.58665   1.59344   1.59764
 Alpha virt. eigenvalues --    1.60341   1.60805   1.61104   1.61691   1.61983
 Alpha virt. eigenvalues --    1.62374   1.63099   1.63119   1.63813   1.64141
 Alpha virt. eigenvalues --    1.64352   1.64431   1.64814   1.65175   1.65390
 Alpha virt. eigenvalues --    1.65573   1.65681   1.65824   1.66119   1.66369
 Alpha virt. eigenvalues --    1.67041   1.67121   1.67424   1.67487   1.67682
 Alpha virt. eigenvalues --    1.68355   1.68370   1.68704   1.68783   1.69162
 Alpha virt. eigenvalues --    1.69347   1.69654   1.69800   1.69867   1.70508
 Alpha virt. eigenvalues --    1.70642   1.70712   1.70838   1.71143   1.71277
 Alpha virt. eigenvalues --    1.71649   1.71883   1.72164   1.72572   1.72592
 Alpha virt. eigenvalues --    1.72715   1.73074   1.73313   1.73413   1.73982
 Alpha virt. eigenvalues --    1.74280   1.74442   1.74547   1.74691   1.75124
 Alpha virt. eigenvalues --    1.75139   1.75368   1.75373   1.75535   1.75892
 Alpha virt. eigenvalues --    1.76442   1.76525   1.76585   1.77029   1.77491
 Alpha virt. eigenvalues --    1.77546   1.78036   1.78356   1.78947   1.79011
 Alpha virt. eigenvalues --    1.79067   1.79327   1.79397   1.79814   1.79929
 Alpha virt. eigenvalues --    1.80074   1.80115   1.80330   1.81231   1.81497
 Alpha virt. eigenvalues --    1.81738   1.81984   1.82480   1.82776   1.83200
 Alpha virt. eigenvalues --    1.83763   1.83924   1.84429   1.84484   1.84756
 Alpha virt. eigenvalues --    1.85335   1.85647   1.85896   1.86487   1.86840
 Alpha virt. eigenvalues --    1.87071   1.87573   1.87614   1.88088   1.88556
 Alpha virt. eigenvalues --    1.88897   1.89628   1.89665   1.89845   1.90428
 Alpha virt. eigenvalues --    1.90467   1.91185   1.92085   1.92383   1.92760
 Alpha virt. eigenvalues --    1.93046   1.93313   1.93711   1.93947   1.94081
 Alpha virt. eigenvalues --    1.94191   1.94481   1.95238   1.95867   1.95934
 Alpha virt. eigenvalues --    1.96432   1.96731   1.96862   1.97363   1.97504
 Alpha virt. eigenvalues --    1.97836   1.98073   1.98255   1.98670   1.98845
 Alpha virt. eigenvalues --    1.99097   1.99290   1.99458   1.99948   2.00088
 Alpha virt. eigenvalues --    2.00544   2.00838   2.00858   2.01375   2.01644
 Alpha virt. eigenvalues --    2.01696   2.01857   2.02356   2.02444   2.02844
 Alpha virt. eigenvalues --    2.02857   2.03367   2.03594   2.03787   2.03998
 Alpha virt. eigenvalues --    2.04152   2.04898   2.05064   2.05270   2.05747
 Alpha virt. eigenvalues --    2.05947   2.06736   2.07012   2.07926   2.08166
 Alpha virt. eigenvalues --    2.08320   2.08384   2.09418   2.09632   2.09874
 Alpha virt. eigenvalues --    2.10307   2.10616   2.11126   2.11474   2.11501
 Alpha virt. eigenvalues --    2.11992   2.12181   2.12767   2.13256   2.13364
 Alpha virt. eigenvalues --    2.14414   2.14572   2.15463   2.15839   2.15928
 Alpha virt. eigenvalues --    2.17270   2.17372   2.17609   2.18130   2.18432
 Alpha virt. eigenvalues --    2.18546   2.19326   2.19509   2.19701   2.20073
 Alpha virt. eigenvalues --    2.20902   2.20905   2.21501   2.21695   2.21884
 Alpha virt. eigenvalues --    2.22646   2.23623   2.23623   2.23946   2.24503
 Alpha virt. eigenvalues --    2.24597   2.25043   2.25237   2.25548   2.26265
 Alpha virt. eigenvalues --    2.26829   2.26963   2.27012   2.27580   2.28240
 Alpha virt. eigenvalues --    2.28274   2.29136   2.29518   2.29764   2.30046
 Alpha virt. eigenvalues --    2.30160   2.30404   2.31075   2.32276   2.32597
 Alpha virt. eigenvalues --    2.32790   2.33043   2.34007   2.34296   2.34559
 Alpha virt. eigenvalues --    2.35231   2.35762   2.37107   2.37558   2.37618
 Alpha virt. eigenvalues --    2.38569   2.38734   2.39055   2.39572   2.39670
 Alpha virt. eigenvalues --    2.40396   2.40482   2.40754   2.41995   2.42130
 Alpha virt. eigenvalues --    2.42295   2.42483   2.42976   2.43431   2.44050
 Alpha virt. eigenvalues --    2.44257   2.45578   2.46421   2.46759   2.47205
 Alpha virt. eigenvalues --    2.48036   2.48164   2.48611   2.49196   2.50189
 Alpha virt. eigenvalues --    2.50764   2.50845   2.52152   2.52157   2.52189
 Alpha virt. eigenvalues --    2.53206   2.53828   2.54086   2.54159   2.54436
 Alpha virt. eigenvalues --    2.54799   2.55341   2.55381   2.55606   2.56065
 Alpha virt. eigenvalues --    2.56583   2.56592   2.57206   2.57649   2.57967
 Alpha virt. eigenvalues --    2.58152   2.58429   2.58668   2.58680   2.58934
 Alpha virt. eigenvalues --    2.59580   2.59807   2.60251   2.60340   2.60640
 Alpha virt. eigenvalues --    2.61000   2.61184   2.61747   2.62033   2.62121
 Alpha virt. eigenvalues --    2.62347   2.63284   2.63634   2.64039   2.64189
 Alpha virt. eigenvalues --    2.65045   2.65139   2.65389   2.65914   2.66687
 Alpha virt. eigenvalues --    2.66807   2.67036   2.67083   2.67093   2.68361
 Alpha virt. eigenvalues --    2.68508   2.68926   2.68961   2.69780   2.69933
 Alpha virt. eigenvalues --    2.70102   2.70423   2.70514   2.70860   2.71633
 Alpha virt. eigenvalues --    2.71855   2.72635   2.72971   2.73530   2.73765
 Alpha virt. eigenvalues --    2.74165   2.74514   2.75289   2.75525   2.75797
 Alpha virt. eigenvalues --    2.76249   2.76408   2.76860   2.77150   2.77363
 Alpha virt. eigenvalues --    2.77795   2.77870   2.78305   2.78591   2.79001
 Alpha virt. eigenvalues --    2.80071   2.81077   2.81206   2.81469   2.81880
 Alpha virt. eigenvalues --    2.83005   2.83129   2.83537   2.83875   2.83936
 Alpha virt. eigenvalues --    2.84206   2.85650   2.86297   2.86429   2.86676
 Alpha virt. eigenvalues --    2.86910   2.87588   2.88235   2.88703   2.88798
 Alpha virt. eigenvalues --    2.89139   2.89847   2.90747   2.90748   2.91385
 Alpha virt. eigenvalues --    2.92198   2.92647   2.92739   2.93096   2.93554
 Alpha virt. eigenvalues --    2.93555   2.94734   2.95173   2.95250   2.96723
 Alpha virt. eigenvalues --    2.96995   2.98102   2.98993   2.99987   3.00203
 Alpha virt. eigenvalues --    3.01090   3.02402   3.03590   3.04212   3.04744
 Alpha virt. eigenvalues --    3.05355   3.06798   3.08536   3.09140   3.10222
 Alpha virt. eigenvalues --    3.12261   3.12344   3.15835   3.18516   3.19162
 Alpha virt. eigenvalues --    3.19480   3.21741   3.22548   3.23572   3.25015
 Alpha virt. eigenvalues --    3.25184   3.27230   3.29588   3.31691   3.31696
 Alpha virt. eigenvalues --    3.34697   3.36336   3.36559   3.37657   3.38973
 Alpha virt. eigenvalues --    3.41544   3.43158   3.44798   3.48701   3.49192
 Alpha virt. eigenvalues --    3.51284   3.51828   3.54625   3.58915   3.61877
 Alpha virt. eigenvalues --    4.01057   4.01350   4.01454   4.02218   4.03116
 Alpha virt. eigenvalues --    4.03741   4.04579   4.04626   4.05681   4.06644
 Alpha virt. eigenvalues --    4.06838   4.07543   4.08070   4.08208   4.08953
 Alpha virt. eigenvalues --    4.09182   4.10214   4.11095   4.11680   4.11939
 Alpha virt. eigenvalues --    4.12290   4.13377   4.14967   4.16650   4.16954
 Alpha virt. eigenvalues --    4.17452   4.18944   4.19129   4.20174   4.20724
 Alpha virt. eigenvalues --    4.20758   4.21921   4.22322   4.23699   4.24434
 Alpha virt. eigenvalues --    4.24812   4.25967   4.27003   4.27273   4.27719
 Alpha virt. eigenvalues --    4.28156   4.28397   4.29052   4.29517   4.29776
 Alpha virt. eigenvalues --    4.31529   4.32318   4.34911   4.35084   4.36239
 Alpha virt. eigenvalues --    4.38676   4.39930   4.41144   4.41424   4.41602
 Alpha virt. eigenvalues --    4.41987   4.43974   4.45947   4.47088   4.47889
 Alpha virt. eigenvalues --    4.48480   4.49825   4.50881   4.52688   4.53554
 Alpha virt. eigenvalues --    4.58017   4.58616   4.60142   4.60378   4.62317
 Alpha virt. eigenvalues --    4.62698   4.64127   4.65571   4.66671   4.69496
 Alpha virt. eigenvalues --    4.71743   4.78383   4.80217   4.82396   4.82859
 Alpha virt. eigenvalues --    4.86712   4.89411   4.90729   4.93249   4.95856
 Alpha virt. eigenvalues --    4.98435   5.05794   5.09747   5.10135   5.17950
 Alpha virt. eigenvalues --    5.18204   5.26707
          Condensed to atoms (all electrons):
 Mulliken charges:
               1
     1  C    0.006672
     2  C   -0.028982
     3  C    0.006672
     4  C   -0.028983
     5  C    0.006888
     6  C   -0.027216
     7  C    0.006888
     8  C   -0.027216
     9  C    0.048815
    10  C    0.040591
    11  C    0.040591
    12  C    0.048815
    13  C   -0.030570
    14  C   -0.030570
    15  C   -0.022039
    16  C   -0.022039
    17  C    0.045709
    18  C    0.045709
    19  C    0.068890
    20  C    0.068891
    21  C   -0.009870
    22  C   -0.009870
    23  C    0.088648
    24  C    0.088648
    25  C    0.087078
    26  C    0.087078
    27  C   -0.376605
    28  C   -0.376605
    29  C    0.086989
    30  C    0.086988
    31  C    0.086276
    32  C    0.086276
    33  C    0.004060
    34  C    0.004060
    35  C    0.031553
    36  C    0.031553
    37  C    0.048975
    38  C    0.048975
    39  C    0.057417
    40  C   -0.031742
    41  C   -0.031741
    42  C    0.057417
    43  C   -0.032301
    44  C    0.063570
    45  C    0.063570
    46  C   -0.032301
    47  C    0.038001
    48  C    0.038002
    49  C    0.002837
    50  C    0.002837
    51  C    0.093278
    52  C    0.093277
    53  C    0.047723
    54  C    0.047723
    55  C   -0.364817
    56  C   -0.364817
    57  C    0.038916
    58  C    0.038917
    59  C    0.090267
    60  C    0.090267
    61  C   -0.377001
    62  C   -0.377001
    63  C    0.125395
    64  C    0.125394
    65  C    0.128897
    66  C    0.128897
    67  C    0.125579
    68  C    0.125579
    69  C   -0.372272
    70  C   -0.372272
    71  C    0.091749
    72  C    0.091749
    73  C    0.026398
    74  C    0.026398
    75  C   -0.016792
    76  C   -0.016792
    77  C   -0.023197
    78  C   -0.023197
    79  C   -0.027067
    80  C   -0.027067
    81  C   -0.005809
    82  C   -0.018227
    83  C    0.126237
    84  C    0.126236
    85  Cl   0.021305
    86  Cl   0.012792
    87  Cl   0.012792
    88  Cl   0.021305
    89  Cl   0.019687
    90  Cl   0.019687
    91  Cl  -0.008702
    92  Cl  -0.008702
 Sum of Mulliken charges =  -0.00000
 Mulliken charges with hydrogens summed into heavy atoms:
               1
     1  C    0.006672
     2  C   -0.028982
     3  C    0.006672
     4  C   -0.028983
     5  C    0.006888
     6  C   -0.027216
     7  C    0.006888
     8  C   -0.027216
     9  C    0.048815
    10  C    0.040591
    11  C    0.040591
    12  C    0.048815
    13  C   -0.030570
    14  C   -0.030570
    15  C   -0.022039
    16  C   -0.022039
    17  C    0.045709
    18  C    0.045709
    19  C    0.068890
    20  C    0.068891
    21  C   -0.009870
    22  C   -0.009870
    23  C    0.088648
    24  C    0.088648
    25  C    0.087078
    26  C    0.087078
    27  C   -0.376605
    28  C   -0.376605
    29  C    0.086989
    30  C    0.086988
    31  C    0.086276
    32  C    0.086276
    33  C    0.004060
    34  C    0.004060
    35  C    0.031553
    36  C    0.031553
    37  C    0.048975
    38  C    0.048975
    39  C    0.057417
    40  C   -0.031742
    41  C   -0.031741
    42  C    0.057417
    43  C   -0.032301
    44  C    0.063570
    45  C    0.063570
    46  C   -0.032301
    47  C    0.038001
    48  C    0.038002
    49  C    0.002837
    50  C    0.002837
    51  C    0.093278
    52  C    0.093277
    53  C    0.047723
    54  C    0.047723
    55  C   -0.364817
    56  C   -0.364817
    57  C    0.038916
    58  C    0.038917
    59  C    0.090267
    60  C    0.090267
    61  C   -0.377001
    62  C   -0.377001
    63  C    0.125395
    64  C    0.125394
    65  C    0.128897
    66  C    0.128897
    67  C    0.125579
    68  C    0.125579
    69  C   -0.372272
    70  C   -0.372272
    71  C    0.091749
    72  C    0.091749
    73  C    0.026398
    74  C    0.026398
    75  C   -0.016792
    76  C   -0.016792
    77  C   -0.023197
    78  C   -0.023197
    79  C   -0.027067
    80  C   -0.027067
    81  C   -0.005809
    82  C   -0.018227
    83  C    0.126237
    84  C    0.126236
    85  Cl   0.021305
    86  Cl   0.012792
    87  Cl   0.012792
    88  Cl   0.021305
    89  Cl   0.019687
    90  Cl   0.019687
    91  Cl  -0.008702
    92  Cl  -0.008702
 Electronic spatial extent (au):  <R**2>=          50955.6405
 Charge=             -0.0000 electrons
 Dipole moment (field-independent basis, Debye):
    X=             -1.8329    Y=              5.4399    Z=              0.0000  Tot=              5.7404
 Quadrupole moment (field-independent basis, Debye-Ang):
   XX=           -587.1859   YY=           -573.1868   ZZ=           -558.5416
   XY=              4.8798   XZ=             -0.0000   YZ=              0.0000
 Traceless Quadrupole moment (field-independent basis, Debye-Ang):
   XX=            -14.2145   YY=             -0.2154   ZZ=             14.4298
   XY=              4.8798   XZ=             -0.0000   YZ=              0.0000
 Octapole moment (field-independent basis, Debye-Ang**2):
  XXX=             59.1456  YYY=            -89.5865  ZZZ=              0.0002  XYY=             19.1912
  XXY=             36.0275  XXZ=             -0.0000  XZZ=             -0.8087  YZZ=            -15.9241
  YYZ=              0.0001  XYZ=             -0.0000
 Hexadecapole moment (field-independent basis, Debye-Ang**3):
 XXXX=         -29575.1917 YYYY=         -23701.3005 ZZZZ=         -20564.8223 XXXY=           -271.5912
 XXXZ=              0.0006 YYYX=            -43.8771 YYYZ=              0.0001 ZZZX=              0.0001
 ZZZY=              0.0000 XXYY=          -8672.6601 XXZZ=          -8357.0300 YYZZ=          -7414.1116
 XXYZ=              0.0004 YYXZ=             -0.0000 ZZXY=             43.8587
 N-N= 2.056857108221D+04 E-N=-5.728651429799D+04  KE= 6.841413082632D+03
 No NMR shielding tensors so no spin-rotation constants.
 Leave Link  601 at Mon Jun 27 12:01:07 2022, MaxMem=  1342177280 cpu:              24.0 elap:               1.2
 (Enter /home/mkliu/g16/l9999.exe)
 1\1\GINC-NODE05\FOpt\RB3LYP\6-31G(d,p)\C84Cl8\MKLIU\27-Jun-2022\0\\#P 
 opt b3lyp/6-31G(d, p) empiricaldispersion=GD3\\force\\0,1\C,8.29639531
 21,18.8947847481,10.525051603\C,12.3137015756,20.1455704553,8.93878097
 1\C,8.2929584194,26.8562351688,10.5250784659\C,12.3113424771,25.608929
 5566,8.9387995469\C,7.974722411,18.9435215204,9.122305966\C,11.8815779
 027,19.5635450305,10.1800915665\C,7.9713277352,26.8072303171,9.1223327
 946\C,11.8787163427,26.1905729269,10.1801138927\C,8.9809268483,19.0891
 670077,8.1219909981\C,12.1243615656,20.2254364094,11.3767994557\C,12.1
 220714567,25.528883374,11.376817124\C,8.9776573662,26.6624605265,8.122
 0169654\C,10.3185893861,19.0104070341,8.5761617663\C,10.3152511936,26.
 7423721249,8.5761881421\C,10.6386596972,18.8956707277,9.9800703417\C,1
 0.6352221885,26.8573750246,9.9800972137\C,9.6405156351,18.9374842596,1
 0.9846926571\C,9.6371149137,26.8146932691,10.9847191736\C,9.9219427556
 ,19.6194502654,12.2432664727\C,9.9191307863,26.1329620078,12.243288132
 6\C,8.8200053107,20.2336829416,12.9241441034\C,8.8177242965,25.5177737
 014,12.9241614406\C,7.5010834883,20.1682636682,12.4203290748\C,7.49874
 64883,25.5820579728,12.4203473713\C,7.2435502418,19.5057434322,11.2490
 214382\C,7.2406414732,26.2443630449,11.2490441904\C,6.1247927658,19.93
 26209087,10.3241599203\C,6.1222528859,25.8165261723,10.3241799633\C,6.
 6897185956,19.5308278067,8.9796301835\C,6.6868316913,26.2188158913,8.9
 796529233\C,6.3805356239,20.2011398344,7.841984721\C,6.3782272604,25.5
 482455049,7.8420029047\C,7.341553682,20.3130476722,6.7877978673\C,7.33
 9341735,25.4371742152,6.7878155942\C,8.6787627646,19.8498647361,6.9227
 418048\C,8.676150177,25.9015106752,6.9227626121\C,9.7440161997,20.5814
 298557,6.2357716271\C,9.742034725,25.1708701708,6.2357875142\C,11.0906
 921541,20.5701081826,6.8044357153\C,12.781337283,22.1595128498,7.71533
 93644\C,12.7807173186,23.5954004784,7.7153441634\C,11.088700339,25.183
 350727,6.8044515363\C,11.359478779,19.756797103,7.9353390474\C,12.9337
 883666,21.4214768755,8.914121056\C,12.9325306877,24.3335594482,8.91413
 108\C,11.3567844455,25.9968856504,7.9353603017\C,13.1628515568,22.1518
 071596,10.165505115\C,13.1622248747,23.6034189332,10.1655101273\C,12.8
 249456993,21.4988552846,11.3765904349\C,12.8237552856,24.2560703372,11
 .3765997775\C,12.4475803386,22.195021692,12.5538181981\C,12.4469918237
 ,23.5595708275,12.5538235161\C,11.1904486889,20.201486294,12.434187476
 1\C,11.1881383047,25.552019912,12.434204817\C,11.4661900499,21.3734448
 98,13.3718223575\C,11.4648921874,24.3802943321,13.3718328418\C,8.98198
 2645,21.4906772985,13.6093028074\C,8.9807870367,24.2609147138,13.60931
 08055\C,7.7527249114,22.1956715535,13.5450943212\C,7.7521390607,23.554
 859718,13.5450965117\C,6.7016326137,21.3953916824,12.8115933826\C,6.70
 03560172,24.3542370887,12.8116030463\C,6.2253935565,22.1667066173,11.5
 616565323\C,6.224782673,23.5825200463,11.5616608958\C,5.9322101374,21.
 4632908119,10.3736079485\C,5.9309919648,24.2856903555,10.3736174242\C,
 5.6172341167,22.1689041538,9.1876900515\C,5.6166249228,23.5798137042,9
 .1876947505\C,5.441793269,21.3926185438,7.8613668537\C,5.4405142551,24
 .3559560905,7.8613769232\C,5.9561290995,22.1954520201,6.6879107899\C,5
 .9555439624,23.5535747813,6.6879166508\C,7.0211370661,21.4830108,6.030
 3829737\C,7.019935356,24.2669399808,6.0303927902\C,8.0224780471,22.154
 6711299,5.3461271891\C,8.0218559144,23.5961490788,5.3461326713\C,9.382
 1099249,21.6985827459,5.4366632414\C,9.3810933354,24.0534107582,5.4366
 714781\C,11.9320329135,21.7063106081,6.6472640275\C,11.9310219187,24.0
 478763508,6.6472720988\C,10.2185602392,22.8763583651,5.3657709872\C,11
 .4587510941,22.8768916541,5.9693709775\C,10.2152898175,22.1742597939,1
 3.680689578\C,10.214683693,23.5783968953,13.6806936049\Cl,4.5473609081
 ,19.0786458323,10.7245582751\Cl,3.6725219338,20.9243010148,7.652449145
 9\Cl,3.6708391659,24.8227466369,7.6524601741\Cl,4.5440836649,26.669135
 22,10.7245842199\Cl,5.2594669179,20.9902473188,13.8779825231\Cl,5.2578
 416186,24.7581269884,13.8779969303\Cl,12.2176132397,20.7777826642,14.9
 658755492\Cl,12.2157979138,24.9765954032,14.9658899599\\Version=ES64L-
 G16RevA.03\State=1-A\HF=-6882.6312073\RMSD=4.874e-09\RMSF=1.602e-05\Di
 pole=1.8014169,0.0007726,-1.3621609\Quadrupole=-10.6426983,10.7282268,
 -0.0855285,-0.0092278,-3.5186192,-0.0014794\PG=C01 [X(C84Cl8)]\\@


      HUMANKIND PERIODICALLY GOES THROUGH A SPEEDUP OF ITS AFFAIRS, 
      THEREBY EXPERIENCING THE RACE BETWEEN THE RENEWABLE VITALITY
      OF THE LIVING, AND THE BECKONING VITIATION OF DECADENCE.
      IN THIS PERIODIC RACE, ANY PAUSE BECOMES A LUXURY.
      ONLY THEN CAN ONE REFLECT THAT ALL IS PERMITTED;
      ALL IS POSSIBLE.

                              -- THE APOCRYPHA OF MUAD'DIB
                                 CHILDREN OF DUNE, BY FRANK HERBERT
 Job cpu time:       1 days 10 hours 47 minutes  5.3 seconds.
 Elapsed time:       0 days  1 hours 27 minutes  4.8 seconds.
 File lengths (MBytes):  RWF=   1225 Int=      0 D2E=      0 Chk=    154 Scr=      1
 Normal termination of Gaussian 16 at Mon Jun 27 12:01:09 2022.
