63
 energy: -142.080478764391 gnorm: 0.135271227369 xtb: 6.4.1 (a3dbbd7)
C        -1.29585809763920    0.00401118881931    3.54517689231029
C        -0.36796043466059   -1.17243305044266    3.30515820987539
C         0.98298838984909   -0.72191219210780    3.27512267957929
C         0.98156472691728    0.71960753564614    3.26971969840148
C        -0.37066843430553    1.17924059866277    3.30150764324135
C         2.33648296598357   -2.58548060321166    0.57950289371033
C         3.18657767566203   -1.41946403917212    0.57781419536533
C         2.94957050634668   -0.69854930588343    1.80123308089156
C         1.95308396825138   -1.41752165469557    2.55613481597303
C         1.57961582984989   -2.57968580834158    1.80518673258983
C         3.18767024138397    1.40991878537575    0.57593180017933
C         2.33807592119235    2.57402574463448    0.57591940987423
C         1.57683795447400    2.56605672116665    1.79975339077111
C         1.95304946478205    1.40835201085528    2.55205927541471
C         2.95072023090319    0.68875745027160    1.80098024590342
C        -0.36516779392141    3.42666371311492    0.57921714402649
C        -1.72924376731069    3.01648005687427    0.58287705229366
C        -2.09463355901587    2.46231282969886    1.94730853737491
C        -0.73027134368917    2.28553619224850    2.58224921046650
C         0.24829448370074    2.97593693088527    1.80334175247540
C        -3.37466967439567    0.70300551329579    0.57574930039426
C        -3.39003092771629   -0.73268815670587    0.56838248256510
C        -2.76818811346571   -1.16356142396752    1.78871572205038
C        -2.38904763717889    0.02437925858140    2.53264263708558
C        -2.74834472581071    1.12995086235998    1.81420011509538
C        -1.73481952354600   -3.00995345707075    0.57938225067925
C        -0.36149853487188   -3.44686666226009    0.58178847329193
C         0.25217194576597   -2.99475012297255    1.80551622011247
C        -0.72930832450935   -2.27346636848304    2.56467955460776
C        -1.97147545437730   -2.28746259180062    1.79868366143107
C        -0.24419850633136   -3.01431906314620   -1.82647673825261
C         0.74940205395547   -2.29291975806330   -2.58286291039202
C         1.97453700920709   -2.29239152825096   -1.82543977569151
C         1.74139873391846   -3.01127177396538   -0.59946235539016
C         0.36858334361035   -3.45436466601281   -0.59762914030018
C         2.79442417375665   -1.17031401238235   -1.82833550582627
C         2.41574661868216   -0.00512369138436   -2.58546959698227
C         2.79806943058290    1.16104826437995   -1.83045397159780
C         3.41356646756867    0.71553904959985   -0.60565027126811
C         3.41126633543504   -0.72579612437446   -0.60436594375932
C         1.98256115237360    2.28538932475628   -1.82964816243890
C         0.75350030248264    2.28551308222168   -2.58573232043658
C        -0.23508280223273    3.00436687434747   -1.82344140510130
C         0.37359850933878    3.44286488634390   -0.60220138875814
C         1.74684322375821    3.00246743965493   -0.60372642363152
C        -1.55566653240424    2.56818250404503   -1.80941223602174
C        -1.93859434660526    1.40592010808590   -2.57168095899201
C        -2.93551210472019    0.68461262540438   -1.82146846795257
C        -3.16898901543324    1.39767486955451   -0.59605965569985
C        -2.30435127708354    2.57332623889815   -0.58497549494069
C        -2.94114405324375   -0.70773319319533   -1.83440725651199
C        -1.94505174587464   -1.42387954866205   -2.59102123509086
C        -1.56548890453788   -2.59170746569988   -1.83211639417485
C        -2.32839595521473   -2.59312664308342   -0.60918315809929
C        -3.17773883520354   -1.43218193780650   -0.61434027481289
C        -0.98775846768414   -0.72638522805960   -3.31322849835342
C        -0.98659864734294    0.71557045446948   -3.30737103344774
C         0.38544609972999    1.16109326157285   -3.31071431262535
C         1.23106807690940   -0.00470839623161   -3.31198800118088
C         0.38446650877846   -1.17000629315169   -3.31255499434049
Cl       -1.95494402211016   -0.00808767691631    5.23350834623694
Cl       -3.13453400293270    3.62205440046694    2.87428256889563
Cl        2.97128955865734   -3.48320139496587   -2.75525492748182
63
 energy: -142.104420262378 gnorm: 0.057554368645 xtb: 6.4.1 (a3dbbd7)
C        -1.29685405212131    0.00495667320735    3.54620686628350
C        -0.36971470082927   -1.17180468685881    3.30626394512574
C         0.98132408202638   -0.72115689121981    3.27532822192887
C         0.98071733497697    0.72026625080626    3.27035513915158
C        -0.37131975336858    1.17972195522793    3.30187267905535
C         2.32474349013990   -2.57871572943968    0.58331007829199
C         3.18420213491057   -1.41444331762297    0.57959643684955
C         2.94807460860629   -0.69716858608794    1.80031579308701
C         1.95083930611679   -1.41679382785981    2.55629171770776
C         1.57546359596474   -2.58065638270115    1.81068205443025
C         3.18917412584836    1.41780769204675    0.57949372903128
C         2.33737316559445    2.57976628459814    0.57837918469525
C         1.57573291795596    2.56866568298928    1.80147475071893
C         1.95265563176053    1.40975504990594    2.55261594669568
C         2.95116306785947    0.69292910161924    1.80265350246771
C        -0.36618150866281    3.42812624839312    0.58033400705946
C        -1.73025900714172    3.01735477569975    0.58373066979633
C        -2.09536354942887    2.46313788391405    1.94799319492782
C        -0.73127829178712    2.28643461827104    2.58310611657808
C         0.24725554293871    2.97744037273379    1.80438711515965
C        -3.37603024100511    0.70410456527029    0.57675581283883
C        -3.39246177786728   -0.73120495409500    0.57002143616711
C        -2.77053217264762   -1.16207164860342    1.79053631560973
C        -2.39026104469301    0.02553804094513    2.53392937316866
C        -2.74927406225952    1.13106957134219    1.81524657749097
C        -1.73927864797986   -3.00912071589171    0.58228710481374
C        -0.36676147984452   -3.44700263865834    0.58887875337198
C         0.24730880056659   -2.99716857996118    1.81059568847758
C        -0.73309655910919   -2.27317573388876    2.56774023275183
C        -1.97521502763249   -2.28688519220516    1.80166019762817
C        -0.24869870659321   -3.00485328174134   -1.82179674896555
C         0.73426707785917   -2.28770518263627   -2.58045943520623
C         2.03383890118638   -2.36540877740608   -1.88170650787213
C         1.73114449633655   -3.00953682889137   -0.58696221253470
C         0.36469224622205   -3.44519230446073   -0.59173430252437
C         2.81409998522893   -1.15423346762163   -1.83237223854098
C         2.41379801205690    0.00303509770306   -2.57367908143298
C         2.80148910815034    1.17390366390260   -1.82641875786503
C         3.41621769018124    0.72893665409910   -0.60318470863693
C         3.40365562931314   -0.71360083792292   -0.60399924944432
C         1.98303293903875    2.29414658208505   -1.82817461086187
C         0.75366140838204    2.28984699532773   -2.58449915568943
C        -0.23543535084125    3.00577836520597   -1.82266979015287
C         0.37229484714029    3.44559742130279   -0.60079406354411
C         1.74613177060941    3.00828829834234   -0.60133338857576
C        -1.55649610002321    2.56874572101276   -1.80875533565714
C        -1.93961816688583    1.40615806390065   -2.57032415745210
C        -2.93715366409916    0.68506079043295   -1.82041471572281
C        -3.16986506105341    1.39843311655791   -0.59514706882552
C        -2.30490940245112    2.57378527654269   -0.58440773347573
C        -2.94561486850924   -0.70699864204028   -1.83291772850074
C        -1.95243842895968   -1.42450352965176   -2.59120035257228
C        -1.57401376639099   -2.58951036713792   -1.83179593655250
C        -2.33331340889523   -2.59213926247461   -0.60699237486757
C        -3.18216817820672   -1.43132252502127   -0.61271894770444
C        -0.99461302644186   -0.72535183191642   -3.31335593709196
C        -0.98798498713828    0.71561673832440   -3.30553274804280
C         0.38552924073352    1.16131731045322   -3.30845156034309
C         1.22960064793197   -0.00021735841529   -3.30838429973063
C         0.37598538009774   -1.16556476488568   -3.30220882781807
Cl       -1.95532715867213   -0.00772665543423    5.23459314786664
Cl       -3.13580306487729    3.62279964493166    2.87510670258673
Cl        3.04910436912093   -3.58874506051863   -2.83229733199885
63
 energy: -142.110245860063 gnorm: 0.012975511350 xtb: 6.4.1 (a3dbbd7)
C        -1.29895723435020    0.00723963935388    3.54780247347642
C        -0.37222705980830   -1.17000109332168    3.30793554351412
C         0.97901467472809   -0.71901246656233    3.27548978462558
C         0.97847232947494    0.72240668504935    3.27170274621124
C        -0.37331291386542    1.18190750845342    3.30330878529907
C         2.32033782133077   -2.57788375074467    0.57809818559648
C         3.18542955085428   -1.41388909883334    0.57983118497698
C         2.94499016889767   -0.69565317787346    1.79650114646144
C         1.94742190322784   -1.41387637662420    2.55405178751181
C         1.57086965988242   -2.57497670512901    1.80600401958532
C         3.18643505938957    1.42116009546608    0.58129446001739
C         2.33619120426582    2.58482236120330    0.58094997887264
C         1.57372670449187    2.57214226858856    1.80364196748475
C         1.95082809635104    1.41169894798319    2.55349023327445
C         2.94941445614526    0.69640640081616    1.80418382211225
C        -0.36819692116974    3.43104549736770    0.58256874432179
C        -1.73239127373236    3.01988255141136    0.58600829831806
C        -2.09738602948359    2.46525846790489    1.94989017387347
C        -0.73354241184213    2.28914654297146    2.58526804426129
C         0.24520288280622    2.98034923557223    1.80652203679433
C        -3.37880207289469    0.70637085684174    0.57895755314467
C        -3.39577551656605   -0.72869656069803    0.57246738435593
C        -2.77382584009260   -1.15952851751029    1.79306063100485
C        -2.39313952970778    0.02802632320419    2.53631365739313
C        -2.75191312155106    1.13355588868160    1.81762855108958
C        -1.74094644219044   -3.00597746103097    0.58401959657557
C        -0.36765554606534   -3.44171950567688    0.59055255096218
C         0.24348216266329   -2.99383151325101    1.81063697678128
C        -0.73672829004988   -2.27183962122159    2.57088128060757
C        -1.97858770496359   -2.28466411141189    1.80404095323481
C        -0.24415336553645   -2.99408617704960   -1.82032003994617
C         0.73392306620160   -2.29130315597709   -2.58449477644602
C         2.08331382696149   -2.43065159767302   -1.93032510799939
C         1.73259501155861   -3.01429214413771   -0.58700392101582
C         0.36921509666268   -3.43388982794520   -0.59038628824284
C         2.81419256914841   -1.14995159249304   -1.83092616096280
C         2.41027181751687   -0.00118322131570   -2.56535106976689
C         2.79754133101027    1.17559861641340   -1.82227563549804
C         3.41121610535879    0.73147303927857   -0.60133210463332
C         3.39429241772388   -0.71357221413323   -0.60752601466208
C         1.98075950804181    2.29708493984929   -1.82519960063160
C         0.75231134659550    2.29297607524262   -2.58201525790971
C        -0.23673859517253    3.00743726846979   -1.82061682928405
C         0.37037802845866    3.44909004901465   -0.59835239843078
C         1.74484059766102    3.01344565353483   -0.59892092590248
C        -1.55826728078995    2.57057059392207   -1.80649504790187
C        -1.94061516499877    1.40731019739982   -2.56752683555209
C        -2.93946657734183    0.68668499926406   -1.81833044417689
C        -3.17153959307904    1.40032568814506   -0.59294410264040
C        -2.30640706381532    2.57556481311033   -0.58228040031603
C        -2.94981243652432   -0.70524996062448   -1.83099884904208
C        -1.95401863513879   -1.42281437854417   -2.58672079720814
C        -1.57454771988527   -2.58489262525186   -1.82960089734864
C        -2.33502400779907   -2.58916143019245   -0.60519270897140
C        -3.18551224362784   -1.42929412744827   -0.61035551491301
C        -0.99268624019918   -0.72434046127345   -3.30492948332515
C        -0.98793268151126    0.71593975291281   -3.30065554049460
C         0.38663199048437    1.15972363849954   -3.30376054905579
C         1.23027242345714    0.00074827902561   -3.30913860272601
C         0.37711240083165   -1.16877660425435   -3.29635539880737
Cl       -1.95624373571680   -0.00601898968311    5.23649217717479
Cl       -3.13829855447855    3.62500910053063    2.87710974397739
Cl        3.11120393020442   -3.66082856377119   -2.88931998546893
63
 energy: -142.110541908233 gnorm: 0.007742006384 xtb: 6.4.1 (a3dbbd7)
C        -1.30031800701135    0.00860140362343    3.54898074670514
C        -0.37351511650705   -1.16867940328337    3.30820607364923
C         0.97776751617279   -0.71786116998085    3.27477345256972
C         0.97721285445306    0.72346515197994    3.27236139437856
C        -0.37451291737397    1.18318585514280    3.30424915014558
C         2.32221449673261   -2.58047461339064    0.57465229823127
C         3.18741098038898   -1.41514611288945    0.58028435559953
C         2.94403228964713   -0.69523074090179    1.79502508697703
C         1.94547783351273   -1.41227537615227    2.55163000373687
C         1.56925087648192   -2.57196133835966    1.80152311631794
C         3.18443586479204    1.42103636281820    0.58138458036484
C         2.33541755664532    2.58580209381687    0.58177106804464
C         1.57286979652469    2.57340038706719    1.80460161999805
C         1.94975418762513    1.41229811611765    2.55392989880255
C         2.94813089410309    0.69703241968500    1.80468512912228
C        -0.36917017432705    3.43255908753610    0.58361833356305
C        -1.73358082374362    3.02140925845517    0.58726368080816
C        -2.09865397957401    2.46672729666521    1.95113468094477
C        -0.73473717508740    2.29069164872832    2.58649332953564
C         0.24429382559688    2.98181962467839    1.80766890939617
C        -3.38062191349272    0.70767694525901    0.58031124046379
C        -3.39743738059124   -0.72746502921228    0.57368587694956
C        -2.77548178553577   -1.15836940431480    1.79442280332542
C        -2.39491654103017    0.02936453798771    2.53778788595531
C        -2.75358916970103    1.13502621210792    1.81908297438195
C        -1.74045605945980   -3.00351501288967    0.58419887080749
C        -0.36694078180115   -3.43832023614113    0.58903953187215
C         0.24257108358049   -2.99123346958749    1.80909182519589
C        -0.73785893335126   -2.27063793359688    2.57154004911008
C        -1.97970984128238   -2.28329011140555    1.80480415979939
C        -0.24075563612240   -2.99208719781928   -1.82143501259183
C         0.73903481714861   -2.29766436162962   -2.59045497895087
C         2.09446228707398   -2.44772438086289   -1.94223963276220
C         1.73832377886340   -3.02105734817881   -0.59156705259023
C         0.37263118091016   -3.43170651744730   -0.59152364091524
C         2.81069610508712   -1.15287124691989   -1.83029766548167
C         2.40948026240939   -0.00545739651510   -2.56481775417788
C         2.79428342676002    1.17348732387410   -1.82079459335873
C         3.40751553584283    0.72965791219977   -0.60075149501401
C         3.39225871905701   -0.71698041062914   -0.60952548116513
C         1.97938496783967    2.29653037014057   -1.82379607481430
C         0.75131487316340    2.29345163374610   -2.58088474565367
C        -0.23756146438725    3.00790801109901   -1.81958720620821
C         0.36951223114195    3.45040876150219   -0.59736825323898
C         1.74404286675122    3.01446935047266   -0.59811701741641
C        -1.55922541486035    2.57145502458063   -1.80520297037032
C        -1.94056781582671    1.40754185938311   -2.56563183513163
C        -2.94017328266571    0.68758884687478   -1.81681696266629
C        -3.17277958546943    1.40152598211376   -0.59164035531614
C        -2.30743589568135    2.57668846349741   -0.58101511021607
C        -2.95070243466252   -0.70423131910741   -1.82988432641581
C        -1.95292361859035   -1.42178599889700   -2.58418315366730
C        -1.57224203365173   -2.58283135323227   -1.82792579166905
C        -2.33429165333485   -2.58695120005015   -0.60449468791450
C        -3.18635721175429   -1.42805136925978   -0.60924127657216
C        -0.98978806139749   -0.72463384783551   -3.30029275353760
C        -0.98703982457077    0.71550126811745   -3.29729882501156
C         0.38716718110879    1.15910862354709   -3.30213007264725
C         1.23080604265875    0.00057822370394   -3.31141668263102
C         0.38006001718587   -1.17211846670083   -3.29763319938310
Cl       -1.95692287873396   -0.00389866836587    5.23802435973887
Cl       -3.13968975969618    3.62680407020969    2.87847137451098
Cl        3.12537916045433   -3.66974614734957   -2.89967606990246
63
 energy: -142.110630596463 gnorm: 0.004592292067 xtb: 6.4.1 (a3dbbd7)
C        -1.30085028727838    0.00906008487488    3.54955632810641
C        -0.37402271838921   -1.16820931808368    3.30839121799288
C         0.97734912925175   -0.71752919726379    3.27454303565374
C         0.97687321750510    0.72372205843070    3.27274599440145
C        -0.37485361891425    1.18353538744909    3.30463639536368
C         2.32324059007451   -2.58161605234878    0.57322537357263
C         3.18893306614912   -1.41590917578208    0.58135206212993
C         2.94408289949009   -0.69519085785343    1.79489598041912
C         1.94455309338681   -1.41157287012976    2.55035870093910
C         1.56836853778019   -2.57054192942015    1.79921707355669
C         3.18372542830520    1.42067993416160    0.58133841945634
C         2.33527252477281    2.58579219730298    0.58190848954586
C         1.57282592252557    2.57365631694312    1.80489823932095
C         1.94954348400768    1.41229878253185    2.55418285710703
C         2.94779661984370    0.69705575848781    1.80515880686793
C        -0.36929586412052    3.43288913423268    0.58376053237537
C        -1.73386202083078    3.02178602507034    0.58752541710784
C        -2.09887431626657    2.46703024416609    1.95138938681958
C        -0.73497262987781    2.29103776762781    2.58681557048643
C         0.24422964425226    2.98212069152484    1.80791932708795
C        -3.38144347299473    0.70806019592938    0.58077043981363
C        -3.39832236697964   -0.72712068380380    0.57412835464633
C        -2.77631768199263   -1.15814009013442    1.79506630537440
C        -2.39562217178122    0.02969179455551    2.53837509836317
C        -2.75415502019850    1.13539105514796    1.81954943649440
C        -1.74013222137334   -3.00216620657582    0.58425814346840
C        -0.36669101591580   -3.43623390060734    0.58815088564667
C         0.24221040182942   -2.99002832072275    1.80849760729836
C        -0.73839002530637   -2.27019909756082    2.57207884134642
C        -1.98022853310754   -2.28285958963629    1.80533947593365
C        -0.23922755591871   -2.99062042910632   -1.82176389038501
C         0.74204796127076   -2.30080536416425   -2.59353019369187
C         2.09860473419184   -2.45462353047296   -1.94688112116269
C         1.74155643548195   -3.02431044783815   -0.59410926406602
C         0.37420489912600   -3.43017167017332   -0.59182489255168
C         2.80689519619559   -1.15456411960452   -1.82902071181485
C         2.40869182031318   -0.00797707430841   -2.56484737510295
C         2.79229439238350    1.17205525783031   -1.81996037525830
C         3.40526509546953    0.72839378739975   -0.60042406132441
C         3.39111691636934   -0.71925578554003   -0.61028742443818
C         1.97887969267034    2.29604064721610   -1.82341752356542
C         0.75078572717335    2.29364298701986   -2.58078427885333
C        -0.23786798499937    3.00798047739043   -1.81947675837048
C         0.36935790509673    3.45076830624352   -0.59728027458536
C         1.74387013696618    3.01450726645038   -0.59803543324216
C        -1.55963449761254    2.57176465141693   -1.80493795948539
C        -1.94058201945410    1.40758261193680   -2.56505355174367
C        -2.94046373612321    0.68795469314881   -1.81622385851171
C        -3.17338433430556    1.40198500189665   -0.59122901898235
C        -2.30782076798187    2.57703520088529   -0.58069203289504
C        -2.95130363839550   -0.70374898028879   -1.82952214536986
C        -1.95252179417035   -1.42126672681002   -2.58318268828205
C        -1.57096992917342   -2.58158257560250   -1.82676108651581
C        -2.33382947781806   -2.58574314304816   -0.60414389240983
C        -3.18691612999420   -1.42751887759771   -0.60894139433008
C        -0.98839716928146   -0.72493999085541   -3.29800307155241
C        -0.98655671285174    0.71516310523094   -3.29568141895832
C         0.38727351814354    1.15909654824563   -3.30201378246727
C         1.23074221031903    0.00095077305957   -3.31331759562289
C         0.38139763935950   -1.17350115700672   -3.29836592920025
Cl       -1.95722655588391   -0.00290619145245    5.23872881120497
Cl       -3.13997528669779    3.62738459387257    2.87887356130618
Cl        3.12995905472260   -3.66671504006262   -2.90086998085761
63
 energy: -142.110670065933 gnorm: 0.002456733423 xtb: 6.4.1 (a3dbbd7)
C        -1.30083069488670    0.00903702871134    3.54963052774545
C        -0.37405647518664   -1.16824177782900    3.30843124728328
C         0.97742952801484   -0.71766318850608    3.27460885541355
C         0.97701091474995    0.72356474583566    3.27284466222367
C        -0.37472679715094    1.18343598785541    3.30463644949763
C         2.32325532585486   -2.58171217813490    0.57299760826336
C         3.18966149032823   -1.41623107656657    0.58225386787276
C         2.94450815130782   -0.69541799935127    1.79527981518403
C         1.94437630515921   -1.41155621975021    2.55004885730592
C         1.56798289704438   -2.57026053942180    1.79853352964899
C         3.18381772977979    1.42041089931325    0.58128428373993
C         2.33542977047122    2.58544923439825    0.58174809127949
C         1.57308838584903    2.57345256143818    1.80480919583753
C         1.94975705825173    1.41204506429779    2.55421281742892
C         2.94797072091293    0.69683681063532    1.80547863675083
C        -0.36902523025757    3.43265683789852    0.58353128350083
C        -1.73364985862560    3.02159086551086    0.58733906141288
C        -2.09856571898202    2.46680400117766    1.95116253748591
C        -0.73474769923821    2.29082850973712    2.58665250226695
C         0.24451539734799    2.98188188624841    1.80771722797726
C        -3.38149111496016    0.70797987434861    0.58073967665308
C        -3.39857759955083   -0.72717877264234    0.57414801460157
C        -2.77653618057872   -1.15826984815155    1.79520819233646
C        -2.39565103262602    0.02959597739902    2.53840456524410
C        -2.75405499107921    1.13527453745494    1.81948552680010
C        -1.74007139807138   -3.00179243196883    0.58428975792482
C        -0.36680505557037   -3.43549329693697    0.58789926357077
C         0.24208848862246   -2.98987389621161    1.80854019414655
C        -0.73857812572211   -2.27024568618702    2.57241615568233
C        -1.98039306456601   -2.28292202884688    1.80562244138498
C        -0.23897301549055   -2.98965138167298   -1.82158429581262
C         0.74293397059725   -2.30143205773915   -2.59417418967057
C         2.10000514504624   -2.45684269323071   -1.94840053446668
C         1.74239051631198   -3.02485989882911   -0.59481121831241
C         0.37449741043352   -3.42917849307856   -0.59160876545637
C         2.80387331277268   -1.15493262420430   -1.82762831956089
C         2.40794130092032   -0.00899569182694   -2.56468197136891
C         2.79154372373204    1.17148217967646   -1.81960691328079
C         3.40438022982376    0.72790938492218   -0.60032475312043
C         3.39025813914796   -0.72019672509592   -0.61034268652795
C         1.97891247307701    2.29581759410697   -1.82358859754619
C         0.75061943137243    2.29367907579029   -2.58114000129855
C        -0.23781810295644    3.00783658666803   -1.81974786915717
C         0.36954285449416    3.45063147749716   -0.59752059858400
C         1.74400840195553    3.01419849278934   -0.59824372879731
C        -1.55965678484147    2.57172188722739   -1.80515084544313
C        -1.94063712146446    1.40753368082375   -2.56523053919446
C        -2.94049059869142    0.68795289938078   -1.81617633153809
C        -3.17343535016526    1.40198852618132   -0.59128599427177
C        -2.30775615386237    2.57696204866160   -0.58082023525140
C        -2.95169458196207   -0.70368562568058   -1.82956327610006
C        -1.95264700008765   -1.42118460678776   -2.58310217095055
C        -1.57069121135830   -2.58117757146838   -1.82623306356051
C        -2.33373584526869   -2.58541932353525   -0.60404380082681
C        -3.18722238473928   -1.42744693152597   -0.60902280341096
C        -0.98811568421941   -0.72519119444143   -3.29733206000497
C        -0.98646537768580    0.71495896208405   -3.29540219223824
C         0.38718236299912    1.15921252429494   -3.30255239021388
C         1.23042887924355    0.00135463569877   -3.31434072708131
C         0.38152233436818   -1.17369914668013   -3.29831554890362
Cl       -1.95726276631881   -0.00267655209765    5.23875852963790
Cl       -3.13969380869531    3.62739970532415    2.87875422234897
Cl        3.13036051330770   -3.65951008116273   -2.89843799288992
63
 energy: -142.110682213566 gnorm: 0.001345841365 xtb: 6.4.1 (a3dbbd7)
C        -1.30061986531055    0.00888086108613    3.54947440553520
C        -0.37391035511147   -1.16842721176066    3.30837705800447
C         0.97764037803551   -0.71788479981180    3.27473745823246
C         0.97723701394428    0.72336229909461    3.27276548792595
C        -0.37450688209293    1.18326270368462    3.30448808562401
C         2.32285249063216   -2.58148653752435    0.57333344344037
C         3.18960944277068   -1.41626469123601    0.58247131345779
C         2.94479852057221   -0.69567713841741    1.79557795677980
C         1.94461341699781   -1.41186674558408    2.55035223592526
C         1.56801297493021   -2.57061997324463    1.79889293903499
C         3.18416103656800    1.42033049364132    0.58127094919299
C         2.33561311172068    2.58522730743419    0.58158298639606
C         1.57328627514420    2.57321657387596    1.80461666995866
C         1.94999479016237    1.41184643877160    2.55410388408398
C         2.94822451655173    0.69664419060270    1.80552202396412
C        -0.36877545596056    3.43239974142795    0.58333014754714
C        -1.73339394988721    3.02135413058548    0.58712807093510
C        -2.09825838561726    2.46658245289556    1.95091658214683
C        -0.73450725031034    2.29059215100697    2.58642100451921
C         0.24474553001761    2.98163064301307    1.80747960035521
C        -3.38122475605902    0.70783537444125    0.58057015903416
C        -3.39843379758513   -0.72728708930776    0.57402935272615
C        -2.77639560264133   -1.15837858043732    1.79508094180501
C        -2.39543728472125    0.02947429242186    2.53823733934533
C        -2.75378880605576    1.13513297324680    1.81929095775353
C        -1.74020305102842   -3.00206123354278    0.58430821757912
C        -0.36701322568115   -3.43584382275682    0.58807520363189
C         0.24209233364394   -2.99024671576475    1.80879246415347
C        -0.73855300709213   -2.27044356278389    2.57244998593520
C        -1.98035986148964   -2.28309709062394    1.80562713224990
C        -0.23937444337622   -2.98960242638872   -1.82138219270005
C         0.74235185610814   -2.30082802946243   -2.59354457604340
C         2.10009051911963   -2.45662230540972   -1.94834550796802
C         1.74172806516456   -3.02418556946674   -0.59433532372713
C         0.37411807398751   -3.42913920148583   -0.59136646966188
C         2.80288555878260   -1.15448791783468   -1.82695622355575
C         2.40761650111949   -0.00879934734178   -2.56445540898057
C         2.79180814154879    1.17161696163814   -1.81969080440449
C         3.40464413505994    0.72804433680579   -0.60040339833596
C         3.38994048198375   -0.72000564498544   -0.61008558604599
C         1.97911779662594    2.29583175870984   -1.82387742822573
C         0.75070001905413    2.29361083411367   -2.58144930809197
C        -0.23764461567200    3.00768166937113   -1.81998355523437
C         0.36974281324998    3.45039378925827   -0.59771006772138
C         1.74418434250034    3.01398271676187   -0.59842656992152
C        -1.55951261713842    2.57158106295076   -1.80539755371552
C        -1.94066951880644    1.40747431713833   -2.56556369770201
C        -2.94041002336141    0.68781232397174   -1.81634790385727
C        -3.17322284346190    1.40184096192574   -0.59146697600419
C        -2.30755133087800    2.57680808790398   -0.58102284690715
C        -2.95177341446466   -0.70383289689871   -1.82970571422153
C        -1.95291777762596   -1.42134981356566   -2.58340122034359
C        -1.57103116724255   -2.58142954951585   -1.82633493397960
C        -2.33389815101781   -2.58566453316971   -0.60409725075411
C        -3.18724769544341   -1.42757627705446   -0.60915518591024
C        -0.98844102599236   -0.72529163243317   -3.29769298915799
C        -0.98661738243483    0.71492328993571   -3.29587057190844
C         0.38708026037095    1.15922248462497   -3.30301639627874
C         1.23022627431816    0.00141468254639   -3.31438438141130
C         0.38108837358314   -1.17345499331534   -3.29803450572747
Cl       -1.95710986194128   -0.00288890242539    5.23854813844032
Cl       -3.13937163581460    3.62730882906399    2.87855056981239