62
 energy: -137.536007873567 gnorm: 0.042260795983 xtb: 6.4.1 (a3dbbd7)
C        -1.30343332369639    0.00620186776288    3.54380135435595
C        -0.37882377538457   -1.16554634554888    3.32445725424801
C         0.98822950062623   -0.73130008285103    3.26571995786284
C         0.97496480189956    0.70928240631630    3.25839515242551
C        -0.37144589071152    1.16587194497301    3.30376468915905
C         2.35892115754174   -2.58345587329100    0.57346131001052
C         3.16466266629277   -1.41430139382127    0.56156905349619
C         2.90890874972659   -0.69757713779773    1.79327527620674
C         1.95816192106616   -1.41885697254354    2.55774396952813
C         1.70796016810701   -2.76356177244039    1.92433442326552
C         3.16524736671964    1.41420602467198    0.56568235731697
C         2.32529653178453    2.58775404306310    0.56332310676441
C         1.56747655097774    2.57651483829243    1.78395445254724
C         1.93205544451883    1.41108850654715    2.53051136280716
C         2.91341032863589    0.69552224089944    1.78118592356816
C        -0.36465855718188    3.44751295480648    0.58303257063897
C        -1.73906705261933    3.00135002806018    0.58483898545020
C        -1.96690184181785    2.29518479177395    1.80253527951305
C        -0.73277062179602    2.27075211850071    2.56936447811017
C         0.24619582118857    2.99139289332147    1.80009065400763
C        -3.39808598308041    0.72257342993599    0.56801555433229
C        -3.40149755864747   -0.70703605165512    0.57105480122644
C        -2.77463584398482   -1.14002998676175    1.81393165763334
C        -2.42122159809474    0.01168096291833    2.55579892143427
C        -2.77312713466096    1.15893681585733    1.81101030161587
C        -1.73300461116563   -2.96662059069773    0.59185607845022
C        -0.34042353095440   -3.40179502581054    0.60796363663715
C         0.23986629961395   -2.98361486721464    1.81240094675757
C        -0.73137500083926   -2.26686910283911    2.58043196425212
C        -1.96837193371238   -2.27121809907873    1.80279163914054
C        -0.23813054894745   -2.99851792636076   -1.80096596720726
C         0.75244411488442   -2.27304687077227   -2.56647781454320
C         1.97632331652435   -2.27025557456117   -1.81303109413998
C         1.76054422490982   -2.99866137291573   -0.59226950813694
C         0.37503720401089   -3.43654272568328   -0.59717591391427
C         2.78764510465964   -1.14649738833324   -1.83614406449907
C         2.40922746882521    0.01765785669307   -2.59238598114673
C         2.78439678165218    1.18517429375200   -1.83941167593100
C         3.39083762661308    0.72758620762568   -0.61450091362118
C         3.38918950892703   -0.70734091139401   -0.61423938767115
C         1.96628736291686    2.30127373210542   -1.83537711504944
C         0.73907951721221    2.29651303835371   -2.58489257565956
C        -0.24918334911602    3.01560278542409   -1.82819562514558
C         0.35909614402876    3.45079911873909   -0.59729998408597
C         1.73217477983787    3.01691073955309   -0.60791089313825
C        -1.56675231351137    2.58336004827010   -1.82042763675758
C        -1.94630959605896    1.42031332982849   -2.58200175948114
C        -2.93843245805579    0.69843429740813   -1.82795469958438
C        -3.17286033396460    1.41778916538693   -0.60162810209401
C        -2.32650812727032    2.58629905936262   -0.60430734026164
C        -2.94018631420186   -0.68778789432232   -1.82692617612964
C        -1.93731446286987   -1.40886290966236   -2.57372626138850
C        -1.56512785294349   -2.56996832778579   -1.81239574154600
C        -2.32307527231316   -2.56719814955524   -0.59664243351801
C        -3.17930326609499   -1.40511586038925   -0.60206712876577
C        -0.98843909178571   -0.71248790751083   -3.30086326115021
C        -0.99095340672623    0.72545439012462   -3.30241003251081
C         0.37780762897031    1.17224089744693   -3.31229171564840
C         1.22458371517507    0.01220130328719   -3.31038414510014
C         0.38295526853451   -1.15684736571532   -3.29423436750382
Cl       -2.02817786509167    0.02781053028113    5.22838088636278
Cl        2.47099572132608   -4.15208806867171    2.84197746714153
62
 energy: -137.539004591005 gnorm: 0.019770437610 xtb: 6.4.1 (a3dbbd7)
C        -1.29948170480652   -0.00022712096873    3.52228292954900
C        -0.37399569639957   -1.17734507264763    3.31210935912573
C         0.98690269478875   -0.72674691778965    3.26974017830675
C         0.97022146392350    0.71669384520979    3.25803280480456
C        -0.37598731837029    1.17228146712836    3.29783696359298
C         2.35046450974005   -2.58732988946497    0.57370058643388
C         3.15870954857722   -1.41585692711308    0.56942765779120
C         2.90921866767197   -0.69486873419511    1.79974631718576
C         1.96304940767410   -1.41652322480445    2.56977752821646
C         1.70402127819569   -2.76025803368046    1.93049476602059
C         3.17294386428692    1.42065736968040    0.57429055326517
C         2.33078521805239    2.59376494624065    0.57263930480873
C         1.57140563375080    2.58848568213413    1.79513660331561
C         1.93836625201125    1.42136966810516    2.54159871547901
C         2.92116260117576    0.70221192865973    1.79315908636813
C        -0.36456262143897    3.45658431018517    0.58027846766699
C        -1.73905937550304    3.00753278528009    0.58473811959095
C        -1.97773835478471    2.30335161083955    1.80676593101489
C        -0.74051992625369    2.27983348691184    2.56247057921064
C         0.24589212421257    3.00259522048885    1.79909305055933
C        -3.40579038158080    0.72762200845514    0.56922645665018
C        -3.41009312015887   -0.70548975278485    0.57036673861223
C        -2.78453888161563   -1.13926401481623    1.80921251858960
C        -2.43196907381516    0.01034507574968    2.55168470442533
C        -2.78171658983185    1.16177012922757    1.80879344660136
C        -1.73939139343398   -2.97362880630854    0.59355206839147
C        -0.34780643418306   -3.41117775559574    0.60433022226921
C         0.24165647156841   -3.00418907143984    1.80824762857696
C        -0.72899825243751   -2.27461885869103    2.56156642666869
C        -1.97967995625987   -2.27799156974559    1.80353315308839
C        -0.24191570614735   -3.00327917307724   -1.80163468664714
C         0.74937417860672   -2.27805251439402   -2.56943210388899
C         1.97630708782831   -2.27821450247895   -1.81962527269508
C         1.75045062133643   -3.00082779782092   -0.59585324099515
C         0.36921721246989   -3.45069604042318   -0.60181820436847
C         2.79334195639301   -1.15381330403528   -1.83337491336904
C         2.41423308719172    0.01058804534706   -2.59023395933312
C         2.79027569009420    1.17806263174693   -1.83329341975098
C         3.39891609028526    0.72765390785740   -0.60625053365910
C         3.39504016538203   -0.71180493198556   -0.60844919868419
C         1.97052107120748    2.29782478232904   -1.83092386888835
C         0.74267140353824    2.29658320391866   -2.58540685572476
C        -0.24672220704489    3.01931440295758   -1.83028082056235
C         0.36371305164964    3.45934563930123   -0.60087007226879
C         1.73676069438089    3.02011194161885   -0.60481600565259
C        -1.56759666861152    2.58651396389360   -1.82381753091540
C        -1.94811940025719    1.42176615034722   -2.58394137077931
C        -2.94571525870760    0.70224946063340   -1.83096334164951
C        -3.17912858231688    1.42306381252942   -0.60478568066479
C        -2.32745794651177    2.58912489501462   -0.60471927679399
C        -2.94957137870859   -0.68517635681200   -1.83021967770990
C        -1.94792384880963   -1.40921222543134   -2.57609054422233
C        -1.57495388698134   -2.57060347871465   -1.81142777730555
C        -2.33260383779975   -2.56781211962276   -0.59947158914192
C        -3.18752327362798   -1.40323727525470   -0.60421459834819
C        -0.99288557443187   -0.71524631473783   -3.30363627201741
C        -0.99193208072349    0.72465166980295   -3.30670716900220
C         0.37948881831793    1.17065585180517   -3.31313286843778
C         1.22630034988548    0.00753569578427   -3.30980137411373
C         0.38091953275984   -1.16021066217133   -3.29882235650078
Cl       -1.96116342557315   -0.01296037303614    5.22855167242174
Cl        2.51459569057845   -4.11523866378343    2.85974619642631
62
 energy: -137.539624736040 gnorm: 0.006569509391 xtb: 6.4.1 (a3dbbd7)
C        -1.30094786107686   -0.00230801587640    3.51084799120208
C        -0.37251918427302   -1.18102222770142    3.29976697214415
C         0.98309517611427   -0.72240270088902    3.26870516200249
C         0.96625238136435    0.72103921668114    3.25782102385099
C        -0.37901502383578    1.17455625478904    3.29219838237880
C         2.34466956902155   -2.58942549480010    0.57357521830309
C         3.15316389927197   -1.41618260735754    0.57274104658816
C         2.90736309840046   -0.69450478106433    1.80136321635759
C         1.96109572440704   -1.41428631824029    2.57165958258292
C         1.69829131510312   -2.75959769453081    1.93309622828900
C         3.17458019911213    1.42289532434420    0.57834196006571
C         2.33214896387541    2.59523664611833    0.57767795155258
C         1.57283354988023    2.59273070334462    1.80176019602830
C         1.94255383471418    1.42587630537571    2.54901524244858
C         2.92493823489910    0.70455051154582    1.79987916372618
C        -0.36473826469847    3.45944047544705    0.57856405225728
C        -1.73886394666774    3.01132579703891    0.58320059735450
C        -1.98275848935239    2.30764794849809    1.80830423364740
C        -0.74541372511346    2.28356059726990    2.55691655145392
C         0.24572718266587    3.00666024128982    1.79751588829795
C        -3.40917882861820    0.73188637347498    0.56905117075387
C        -3.41389355292701   -0.70379610647551    0.56897617448159
C        -2.78871212960326   -1.13554428430040    1.80516367269189
C        -2.44084774631910    0.01101013022184    2.55192226332463
C        -2.78511190046213    1.16378923860848    1.80509335016786
C        -1.74237500203085   -2.97571877339382    0.59543704970009
C        -0.35349982109148   -3.41426268391195    0.60400346633649
C         0.24068419241196   -3.01894317308589    1.81019666782780
C        -0.72948382709832   -2.27810198236357    2.55219170444744
C        -1.98541511495972   -2.27912241085526    1.80373265027755
C        -0.24336917362988   -3.00598105118456   -1.80124582468872
C         0.74756531348174   -2.27986236755464   -2.56932377974747
C         1.97520458436927   -2.28150934363106   -1.82160860091892
C         1.74424217852508   -3.00114542524412   -0.59649884245536
C         0.36515457171079   -3.45660318172066   -0.60333614973141
C         2.79496595314172   -1.15704853633688   -1.83034401327596
C         2.41598719757891    0.00657724078452   -2.58830787951383
C         2.79197138870085    1.17403451491231   -1.82961925953416
C         3.40067894767932    0.72727493081235   -0.60193358408817
C         3.39808241549602   -0.71441697569938   -0.60558369271549
C         1.97185786875491    2.29503703915776   -1.82764308193736
C         0.74430500868682    2.29560309427509   -2.58494847526454
C        -0.24516529556609    3.02068635379102   -1.83115887051385
C         0.36604082649492    3.46260985568001   -0.60293891644201
C         1.73808913820892    3.02022953459502   -0.60277343113516
C        -1.56703006932289    2.58772291743309   -1.82628256766279
C        -1.94766401737643    1.42277614539364   -2.58543707533824
C        -2.94803046830656    0.70476750569528   -1.83333217977889
C        -3.18159645850463    1.42635868593279   -0.60783280095697
C        -2.32729699854906    2.59064358405420   -0.60549753009014
C        -2.95242580237436   -0.68297200800090   -1.83297116576334
C        -1.95201462114191   -1.40861155755585   -2.57797801126761
C        -1.57970941805157   -2.57037975509779   -1.81054993524635
C        -2.33594358807845   -2.56647780512830   -0.60209979957600
C        -3.19024539503157   -1.40100584098081   -0.60617162073685
C        -0.99414367194363   -0.71646587645870   -3.30506835990953
C        -0.99167738121209    0.72419286571854   -3.30937254512052
C         0.38070610008429    1.16939275273061   -3.31243681404028
C         1.22711546622771    0.00480045243164   -3.30854618169925
C         0.38052241832330   -1.16178630689952   -3.30060582893338
Cl       -1.90784712507618   -0.05098831095045    5.23663598476661
Cl        2.54743148399523   -4.08619553479762    2.87420815371196
62
 energy: -137.539682960818 gnorm: 0.003039490823 xtb: 6.4.1 (a3dbbd7)
C        -1.30210445983493   -0.00170870971130    3.50902052109745
C        -0.37266477756325   -1.18063854922841    3.29557730035316
C         0.98142315590938   -0.72106204580353    3.26825680141357
C         0.96476596891274    0.72198768417142    3.25809999900977
C        -0.37992801226509    1.17528979232021    3.29162552766496
C         2.34364522826069   -2.58975770397746    0.57365629124336
C         3.15181145963791   -1.41612613851064    0.57321236655355
C         2.90633357858776   -0.69478964984224    1.80130140632478
C         1.95892612092924   -1.41326416903585    2.57063914282907
C         1.69598911539382   -2.75912127443707    1.93296929347878
C         3.17340887644168    1.42247568198093    0.57872501367387
C         2.33134365081585    2.59457439112233    0.57805508741716
C         1.57220329877919    2.59234908138554    1.80243902260813
C         1.94264224975756    1.42606676210162    2.55027237841389
C         2.92466133376983    0.70442167081937    1.80099537706396
C        -0.36502607980987    3.45897133025967    0.57806362124923
C        -1.73899943884058    3.01211629674191    0.58198542929386
C        -1.98313655222318    2.30821967108640    1.80802977095747
C        -0.74655682471028    2.28412567000096    2.55610266610391
C         0.24540211817021    3.00645473117017    1.79678042046561
C        -3.40870320665531    0.73309658533665    0.56863834917454
C        -3.41316862087815   -0.70318274772516    0.56862567760075
C        -2.78837980185788   -1.13387531618282    1.80473476356066
C        -2.44294126775191    0.01181503345924    2.55382295070700
C        -2.78502907591172    1.16450033124463    1.80371084494652
C        -1.74222409860139   -2.97500296653380    0.59561576981439
C        -0.35485853107843   -3.41408546586968    0.60428868656793
C         0.23998613854761   -3.02229265464252    1.81207742720106
C        -0.73058948991663   -2.27952660717425    2.55260952291381
C        -1.98545626345464   -2.27833713076594    1.80362657818423
C        -0.24354499278636   -3.00634823238938   -1.80117941716955
C         0.74721898537711   -2.27980043375497   -2.56880665992936
C         1.97451004529929   -2.28164747795223   -1.82116341625977
C         1.74322716323834   -3.00092013430377   -0.59583773118010
C         0.36408103513297   -3.45653412660038   -0.60336259756112
C         2.79446979485764   -1.15741468853728   -1.82924952481726
C         2.41579703916931    0.00581447596635   -2.58756536834293
C         2.79156598890673    1.17332203895980   -1.82876981044428
C         3.39977361626087    0.72678454644186   -0.60118787585886
C         3.39819163468416   -0.71512808018701   -0.60501355810962
C         1.97171646185226    2.29423373976696   -1.82688465489746
C         0.74454110995486    2.29501413297773   -2.58477786661779
C        -0.24484875936550    3.02058831740217   -1.83137083076652
C         0.36618401715769    3.46251372472151   -0.60341349840292
C         1.73768337458654    3.01956122885565   -0.60254376003447
C        -1.56654424931881    2.58782965979834   -1.82716984429084
C        -1.94707121455751    1.42313475050611   -2.58599867367197
C        -2.94773134208547    0.70540325306155   -1.83410917413660
C        -3.18138925874903    1.42697967559135   -0.60886284047561
C        -2.32720104465861    2.59100852245099   -0.60616629518204
C        -2.95190144454575   -0.68227408356720   -1.83376074677160
C        -1.95190207843090   -1.40806423868668   -2.57871329298051
C        -1.58022952153376   -2.57013773907197   -1.81056629705501
C        -2.33555752560161   -2.56561865755390   -0.60312725065932
C        -3.18950094885480   -1.40002876707599   -0.60655981578373
C        -0.99390948019434   -0.71642398116716   -3.30535187474035
C        -0.99131605600966    0.72418078653492   -3.30988691214831
C         0.38107603153465    1.16898974841725   -3.31195802840840
C         1.22722670495574    0.00421353801264   -3.30795626656095
C         0.38077599504735   -1.16198620549043   -3.30072560504959
Cl       -1.89163181092688   -0.06386382739852    5.23974148009164
Cl        2.55384921745159   -4.07883094413040    2.87685615126571
62
 energy: -137.539697189547 gnorm: 0.001152731932 xtb: 6.4.1 (a3dbbd7)
C        -1.30295997128322   -0.00106359570041    3.50878613951129
C        -0.37276163057632   -1.17991489385717    3.29310498242036
C         0.98076945139960   -0.72054223704652    3.26823795133236
C         0.96407736302060    0.72233097568570    3.25842215911645
C        -0.38043986831622    1.17568635972261    3.29194302615561
C         2.34347316906608   -2.58970043578059    0.57384394554520
C         3.15169140852689   -1.41610762529553    0.57331590369466
C         2.90604331917529   -0.69499185730578    1.80123806046285
C         1.95774094360218   -1.41268802890425    2.56976031841462
C         1.69507086617870   -2.75884084724344    1.93278029363794
C         3.17255010426502    1.42197695811832    0.57863347254220
C         2.33071297027091    2.59400469069540    0.57773869045750
C         1.57159118311414    2.59177383289139    1.80214005429120
C         1.94216926859411    1.42582064374164    2.55033957082627
C         2.92402302296751    0.70419071756234    1.80114619684068
C        -0.36517835118260    3.45847166813436    0.57782025918935
C        -1.73910298703736    3.01232344441000    0.58117011536137
C        -1.98304869695785    2.30821449989006    1.80761811411508
C        -0.74690881225023    2.28416126750756    2.55602510136464
C         0.24518269519781    3.00605490790212    1.79639346025067
C        -3.40798262997234    0.73353962492905    0.56828109026381
C        -3.41222699728046   -0.70289084260504    0.56857586723939
C        -2.78808286777866   -1.13312793805492    1.80519184338320
C        -2.44385515077840    0.01239889606854    2.55548484400393
C        -2.78484415534557    1.16495625475324    1.80303683789300
C        -1.74187640963134   -2.97404425794764    0.59557677608989
C        -0.35529224671432   -3.41352157560627    0.60452705320610
C         0.23972106015244   -3.02324633533135    1.81321244703247
C        -0.73158886015617   -2.28060306270538    2.55409892983104
C        -1.98520080257021   -2.27768502543480    1.80362182578729
C        -0.24360422426882   -3.00629470376735   -1.80112012598483
C         0.74718183782936   -2.27963787711575   -2.56849368549501
C         1.97422981937492   -2.28149066465472   -1.82072574153371
C         1.74311384447839   -3.00064634542898   -0.59522872379511
C         0.36361638178080   -3.45573246110114   -0.60315999428413
C         2.79408352799052   -1.15742021502147   -1.82888198564007
C         2.41558862368964    0.00566635872893   -2.58726287846509
C         2.79123992856226    1.17324000852076   -1.82852799679856
C         3.39917984312483    0.72645769526514   -0.60105607106333
C         3.39801621983296   -0.71543373950332   -0.60486179972502
C         1.97160659587635    2.29399274385793   -1.82675622708598
C         0.74464003811955    2.29474364932030   -2.58482410875575
C        -0.24475082726792    3.02044281688605   -1.83150649048471
C         0.36610571392025    3.46226870060640   -0.60360736347252
C         1.73735423735168    3.01915651716205   -0.60265644705674
C        -1.56627083561828    2.58789742725020   -1.82767797886984
C        -1.94674906988381    1.42332928747083   -2.58630308602336
C        -2.94740250157678    0.70564487809908   -1.83448485407038
C        -3.18108292242266    1.42714537687868   -0.60935299089103
C        -2.32719232047995    2.59116524092409   -0.60663665963433
C        -2.95139059264173   -0.68198429845640   -1.83400006734015
C        -1.95154230175165   -1.40774672962283   -2.57903134443901
C        -1.58021391378387   -2.57002174872901   -1.81055544592258
C        -2.33509816962798   -2.56514747916640   -0.60353099574788
C        -3.18882254269166   -1.39950595659607   -0.60654220843876
C        -0.99371093528914   -0.71631156881586   -3.30536447580264
C        -0.99109855032353    0.72419188508376   -3.30997301791577
C         0.38123678538914    1.16881195350373   -3.31173453640229
C         1.22727614239592    0.00401947107777   -3.30768637586457
C         0.38101482228003   -1.16203996449033   -3.30064815103019
Cl       -1.88458157898755   -0.07085901581555    5.24058982090898
Cl        2.55494481732707   -4.07659332018549    2.87765282780089
62
 energy: -137.539699049681 gnorm: 0.000551104044 xtb: 6.4.1 (a3dbbd7)
C        -1.30328499339785   -0.00085823613319    3.50913453749197
C        -0.37266302118028   -1.17957177875581    3.29210776354127
C         0.98082890277437   -0.72049996214288    3.26834118211580
C         0.96398750573664    0.72243674668808    3.25858064233549
C        -0.38065764353450    1.17587670071834    3.29234371318028
C         2.34356790347608   -2.58962023084776    0.57401304735444
C         3.15205608914488   -1.41617870770790    0.57334022977594
C         2.90624575530851   -0.69500366264059    1.80132261892567
C         1.95765092732905   -1.41252921392985    2.56951038966016
C         1.69512031060366   -2.75877252119609    1.93282252983738
C         3.17242192233632    1.42183629787615    0.57856496976978
C         2.33062425762723    2.59393222109903    0.57746653690998
C         1.57139530966591    2.59169553711292    1.80176113037896
C         1.94179369525633    1.42574326232704    2.55005375663081
C         2.92365845270004    0.70417685444878    1.80101250071512
C        -0.36518170559743    3.45842301060243    0.57772839813350
C        -1.73911657086010    3.01229312551086    0.58092743997223
C        -1.98299454344618    2.30809107238435    1.80736537806682
C        -0.74685241006643    2.28409419328905    2.55609152873161
C         0.24511197306955    3.00604101446131    1.79632544435713
C        -3.40771124565117    0.73352122760635    0.56809015361287
C        -3.41195226339291   -0.70281927896937    0.56861304178385
C        -2.78827375365892   -1.13307918598219    1.80570211271059
C        -2.44410438916388    0.01260896309792    2.55606629135862
C        -2.78489095199864    1.16514096294134    1.80289267385887
C        -1.74182501265220   -2.97352539704389    0.59554947064191
C        -0.35527067285872   -3.41316734024716    0.60461926100726
C         0.23973370283183   -3.02305495205413    1.81336661065685
C        -0.73211026275423   -2.28112794019497    2.55496688503036
C        -1.98531085214531   -2.27747947655374    1.80366356921765
C        -0.24363991252405   -3.00616379645715   -1.80105893020695
C         0.74727386938754   -2.27962928400153   -2.56847126272219
C         1.97428803313111   -2.28144050460076   -1.82060295069090
C         1.74327671353348   -3.00057315977341   -0.59501150312391
C         0.36353623717562   -3.45523650600545   -0.60298727927642
C         2.79404881032971   -1.15739470005126   -1.82896365372938
C         2.41560087006241    0.00574495436357   -2.58726982522817
C         2.79123838935109    1.17334637985696   -1.82856526251552
C         3.39917178957453    0.72637136176267   -0.60109159485539
C         3.39787200141478   -0.71547547804100   -0.60484779714921
C         1.97166064879028    2.29405733345405   -1.82690549845013
C         0.74471225622354    2.29474515945917   -2.58495618292456
C        -0.24474337944804    3.02041195730124   -1.83159758261208
C         0.36606044146026    3.46225385193579   -0.60366703345997
C         1.73733783402896    3.01916057908705   -0.60280540647386
C        -1.56623042252030    2.58797719302902   -1.82785137816844
C        -1.94672940888403    1.42337741833232   -2.58641928149543
C        -2.94734330351906    0.70567942563402   -1.83458284775311
C        -3.18103823795121    1.42716576261369   -0.60945893047493
C        -2.32722121971666    2.59122012835364   -0.60680805590864
C        -2.95132399627799   -0.68194793043136   -1.83394312824283
C        -1.95144348834537   -1.40769639253981   -2.57901712448421
C        -1.58013591376118   -2.57002886355085   -1.81047547918529
C        -2.33506879161813   -2.56509466823379   -0.60348107737968
C        -3.18877874273146   -1.39939248515887   -0.60643529801653
C        -0.99369084092406   -0.71628814133758   -3.30527971830779
C        -0.99104413133234    0.72417317979578   -3.30991764716071
C         0.38127249388802    1.16877887019134   -3.31174862143351
C         1.22733418603287    0.00400707521260   -3.30768861233982
C         0.38112033000329   -1.16208034984920   -3.30056798416337
Cl       -1.88305047686603   -0.07353965510736    5.24026938601931
Cl        2.55406522693914   -4.07686791564967    2.87797990508736
62
 energy: -137.539697042487 gnorm: 0.001306618645 xtb: 6.4.1 (a3dbbd7)
C        -1.30361683166648   -0.00065918098963    3.50949542297005
C        -0.37255105189695   -1.17923261719118    3.29107133375136
C         0.98089062563608   -0.72044967411818    3.26844051292500
C         0.96389482182841    0.72255590545216    3.25874103808412
C        -0.38088765138195    1.17608123190259    3.29274974936076
C         2.34365719356687   -2.58954728148692    0.57418759246331
C         3.15242522930460   -1.41625670605300    0.57337059579345
C         2.90645734484948   -0.69501120934527    1.80141663296604
C         1.95757257763433   -1.41236596297018    2.56926916157017
C         1.69517091193203   -2.75870076178082    1.93287545713658
C         3.17230510950274    1.42170378439453    0.57850608343050
C         2.33054725994292    2.59387426939855    0.57720122911579
C         1.57120585287840    2.59163759704416    1.80138493943562
C         1.94141503680065    1.42567849518689    2.54977019272621
C         2.92329291211206    0.70417183899178    1.80088343641867
C        -0.36518308450840    3.45839021635683    0.57763060725646
C        -1.73912847948262    3.01226709504835    0.58068539921999
C        -1.98294815949359    2.30797160185573    1.80710683628458
C        -0.74679482189657    2.28403258591766    2.55614667878606
C         0.24504010436951    3.00604557861472    1.79625769504687
C        -3.40744815722334    0.73350130288505    0.56789409730100
C        -3.41169408985333   -0.70274408270912    0.56864838195706
C        -2.78848977093641   -1.13303064326992    1.80622043009036
C        -2.44437165921855    0.01282192613141    2.55663811851863
C        -2.78494587559419    1.16532884698926    1.80274282453136
C        -1.74178747321942   -2.97300581865741    0.59553001062790
C        -0.35525048647110   -3.41281316470812    0.60471401649018
C         0.23974255452335   -3.02286920933307    1.81350810550166
C        -0.73264221978937   -2.28166479624150    2.55583172127750
C        -1.98544693945686   -2.27727984925562    1.80370935202808
C        -0.24367734135846   -3.00603317873431   -1.80099410173241
C         0.74736903939278   -2.27962792809657   -2.56845408259691
C         1.97435197280814   -2.28139824712582   -1.82048439483895
C         1.74343748934186   -3.00050588811059   -0.59479849067912
C         0.36345501094964   -3.45474697973421   -0.60281366455512
C         2.79402160704123   -1.15737454820792   -1.82904781779167
C         2.41562165665475    0.00582187191750   -2.58727824707362
C         2.79124521431861    1.17344928387392   -1.82860080413697
C         3.39917333380406    0.72628566709813   -0.60112009984074
C         3.39772528291385   -0.71551706023074   -0.60482732614444
C         1.97172082915628    2.29412224642255   -1.82705742182029
C         0.74478961965986    2.29474876267983   -2.58509162604908
C        -0.24473376298353    3.02038408377219   -1.83169366047886
C         0.36601881767104    3.46224853676362   -0.60373160553904
C         1.73732956970504    3.01917335735975   -0.60295397433245
C        -1.56619126460762    2.58806145955242   -1.82802984427376
C        -1.94671321441387    1.42342549993551   -2.58654147141399
C        -2.94728997015072    0.70571694984063   -1.83468551212991
C        -3.18100250267882    1.42719350365010   -0.60956952479655
C        -2.32725033794031    2.59127991756094   -0.60698264638969
C        -2.95126854097197   -0.68190948889437   -1.83388499779853
C        -1.95135332043923   -1.40764730454933   -2.57899783002757
C        -1.58006207805707   -2.57003637880713   -1.81038943874345
C        -2.33505398964710   -2.56504769139856   -0.60342577948458
C        -3.18875358017541   -1.39927827547923   -0.60633056464800
C        -0.99367414396203   -0.71626798604381   -3.30519321013621
C        -0.99098861097552    0.72415185453901   -3.30986486261025
C         0.38131021849340    1.16874447322623   -3.31176669296407
C         1.22739649929730    0.00399264189674   -3.30769469030003
C         0.38122651090246   -1.16212457846573   -3.30048693631553
Cl       -1.88140860210917   -0.07634265245724    5.23993192753936
Cl        2.55318208597660   -4.07712913645490    2.87834788997402
62
 energy: -137.539699391597 gnorm: 0.000205306597 xtb: 6.4.1 (a3dbbd7)
C        -1.30326504803095   -0.00094161982605    3.50930612992781
C        -0.37257004900300   -1.17964118799254    3.29213743644868
C         0.98092831546045   -0.72051863829711    3.26833233011211
C         0.96405636588320    0.72246951758792    3.25857490359291
C        -0.38067388462512    1.17591401112458    3.29238116392084