62
 energy: -137.539699440776 gnorm: 0.000084054500 xtb: 6.4.1 (a3dbbd7)
C        -1.30328094797497   -0.00094021298931    3.50935726778183
C        -0.37256002394050   -1.17965888623561    3.29214344848778
C         0.98090206067003   -0.72049256560471    3.26830310904782
C         0.96404710801083    0.72248365951481    3.25857581870976
C        -0.38067510679285    1.17593596934901    3.29238834151059
C         2.34357273344573   -2.58967865416671    0.57403113901886
C         3.15209512630853   -1.41622186760054    0.57334490171700
C         2.90632359766480   -0.69496848132663    1.80136376042094
C         1.95783847613873   -1.41256976239449    2.56963850790118
C         1.69522052965274   -2.75879558514785    1.93290229327313
C         3.17255348581975    1.42192767355860    0.57861393697435
C         2.33074596776965    2.59407269641158    0.57753339558422
C         1.57150097723719    2.59185564604981    1.80179998626608
C         1.94181926325109    1.42582250584972    2.55005217565702
C         2.92370261682101    0.70423495245207    1.80099480405366
C        -0.36515877715738    3.45855306420272    0.57772318411237
C        -1.73909701747614    3.01229218498411    0.58102366981781
C        -1.98301787133626    2.30810172672638    1.80736447055711
C        -0.74678074734301    2.28410568804810    2.55603623418830
C         0.24513205789519    3.00616651913434    1.79636833385173
C        -3.40781610385366    0.73345667095884    0.56810072829928
C        -3.41213002723337   -0.70282788778721    0.56861656484395
C        -2.78843317961609   -1.13314873458301    1.80572484641263
C        -2.44410661286085    0.01257235259522    2.55582366168366
C        -2.78491889946823    1.16510145972748    1.80292679470646
C        -1.74192908231658   -2.97361665004065    0.59562270825008
C        -0.35520819011661   -3.41319553293035    0.60463216944043
C         0.23973475139643   -3.02297972517100    1.81318921699523
C        -0.73207181253171   -2.28107486517042    2.55484936918063
C        -1.98547155719577   -2.27758385448356    1.80370663194447
C        -0.24362323318124   -3.00616912436527   -1.80103879693770
C         0.74730578970883   -2.27967773344901   -2.56853248797070
C         1.97435519776272   -2.28148889098051   -1.82066348158114
C         1.74329744164816   -3.00063152498111   -0.59509896460951
C         0.36360621288041   -3.45535458322985   -0.60300229945775
C         2.79412271709386   -1.15740686375907   -1.82901971780156
C         2.41565760349218    0.00576480591338   -2.58731649962753
C         2.79130466700064    1.17334418612729   -1.82859949512586
C         3.39925732405643    0.72641477242808   -0.60108271992729
C         3.39786089338585   -0.71542539132876   -0.60483583454562
C         1.97168995186256    2.29408917051892   -1.82694655206490
C         0.74471769107871    2.29478932250433   -2.58497069257443
C        -0.24475147482210    3.02043825019063   -1.83161106794117
C         0.36607826450414    3.46231464753426   -0.60367110956427
C         1.73740526665103    3.01924721233112   -0.60279446443510
C        -1.56626906828538    2.58798876760398   -1.82781735044394
C        -1.94678452491157    1.42335418569315   -2.58642025000825
C        -2.94739559103080    0.70566989739640   -1.83456204893508
C        -3.18111160675756    1.42719107013604   -0.60942881184343
C        -2.32721734573537    2.59122816059814   -0.60677412083963
C        -2.95142208352195   -0.68196678061924   -1.83389920071163
C        -1.95150836461092   -1.40773153133609   -2.57894009361911
C        -1.58014280584877   -2.57003884489124   -1.81043932893697
C        -2.33516962450468   -2.56517925558891   -0.60340082249901
C        -3.18893839424168   -1.39944320204079   -0.60644399160064
C        -0.99372112831618   -0.71630931288094   -3.30526690058874
C        -0.99106118786599    0.72416180863919   -3.30992298935593
C         0.38126002488129    1.16879882405953   -3.31180432384292
C         1.22734372270395    0.00403194341977   -3.30774641954989
C         0.38110092759806   -1.16208313629532   -3.30055886128764
Cl       -1.88322040036401   -0.07347629347176    5.23985973487685
Cl        2.55382462322999   -4.07712995444883    2.87811464359909
