62
 energy: -137.479269875464 gnorm: 0.186792375734 xtb: 6.4.1 (a3dbbd7)
C        -1.23626340000000    0.00000000000000    3.32997640000000
C        -0.38202640000000   -1.17575640000000    3.32997640000000
C         1.00015810000000   -0.72665740000000    3.32997640000000
C         1.00015810000000    0.72665740000000    3.32997640000000
C        -0.38202640000000    1.17575640000000    3.32997640000000
C         2.34433560000000   -2.60145750000000    0.59464210000000
C         3.19857260000000   -1.42570110000000    0.59464210000000
C         2.96246730000000   -0.69904370000000    1.83090550000000
C         1.96230920000000   -1.42570110000000    2.59495830000000
C         1.58028280000000   -2.60145750000000    1.83090550000000
C         3.19857260000000    1.42570110000000    0.59464210000000
C         2.34433560000000    2.60145750000000    0.59464210000000
C         1.58028280000000    2.60145750000000    1.83090550000000
C         1.96230920000000    1.42570110000000    2.59495830000000
C         2.96246730000000    0.69904370000000    1.83090550000000
C        -0.36750900000000    3.48258920000000    0.59464210000000
C        -1.74969350000000    3.03349030000000    0.59464210000000
C        -1.98579880000000    2.30683290000000    1.83090550000000
C        -0.74953540000000    2.30683290000000    2.59495830000000
C         0.25062270000000    3.03349030000000    1.83090550000000
C        -3.42570570000000    0.72665740000000    0.59464210000000
C        -3.42570570000000   -0.72665740000000    0.59464210000000
C        -2.80757400000000   -1.17575640000000    1.83090550000000
C        -2.42554760000000    0.00000000000000    2.59495830000000
C        -2.80757400000000    1.17575640000000    1.83090550000000
C        -1.74969350000000   -3.03349030000000    0.59464210000000
C        -0.36750900000000   -3.48258920000000    0.59464210000000
C         0.25062270000000   -3.03349030000000    1.83090550000000
C        -0.74953540000000   -2.30683290000000    2.59495830000000
C        -1.98579880000000   -2.30683290000000    1.83090550000000
C        -0.25062270000000   -3.03349030000000   -1.83090550000000
C         0.74953540000000   -2.30683290000000   -2.59495830000000
C         1.98579880000000   -2.30683290000000   -1.83090550000000
C         1.74969350000000   -3.03349030000000   -0.59464210000000
C         0.36750900000000   -3.48258920000000   -0.59464210000000
C         2.80757400000000   -1.17575640000000   -1.83090550000000
C         2.42554760000000    0.00000000000000   -2.59495830000000
C         2.80757400000000    1.17575640000000   -1.83090550000000
C         3.42570570000000    0.72665740000000   -0.59464210000000
C         3.42570570000000   -0.72665740000000   -0.59464210000000
C         1.98579880000000    2.30683290000000   -1.83090550000000
C         0.74953540000000    2.30683290000000   -2.59495830000000
C        -0.25062270000000    3.03349030000000   -1.83090550000000
C         0.36750900000000    3.48258920000000   -0.59464210000000
C         1.74969350000000    3.03349030000000   -0.59464210000000
C        -1.58028280000000    2.60145750000000   -1.83090550000000
C        -1.96230920000000    1.42570110000000   -2.59495830000000
C        -2.96246730000000    0.69904370000000   -1.83090550000000
C        -3.19857260000000    1.42570110000000   -0.59464210000000
C        -2.34433560000000    2.60145750000000   -0.59464210000000
C        -2.96246730000000   -0.69904370000000   -1.83090550000000
C        -1.96230920000000   -1.42570110000000   -2.59495830000000
C        -1.58028280000000   -2.60145750000000   -1.83090550000000
C        -2.34433560000000   -2.60145750000000   -0.59464210000000
C        -3.19857260000000   -1.42570110000000   -0.59464210000000
C        -1.00015810000000   -0.72665740000000   -3.32997640000000
C        -1.00015810000000    0.72665740000000   -3.32997640000000
C         0.38202640000000    1.17575640000000   -3.32997640000000
C         1.23626340000000    0.00000000000000   -3.32997640000000
C         0.38202640000000   -1.17575640000000   -3.32997640000000
Cl       -1.84886636902500    0.00000000000000    5.03315507598844
Cl        4.46886333761594   -1.07334654455079    2.76190945188001
62
 energy: -137.522345413207 gnorm: 0.110700480801 xtb: 6.4.1 (a3dbbd7)
C        -1.25146827474435    0.00185510394557    3.35614307951800
C        -0.37162798305546   -1.18299244309060    3.32511782931659
C         0.98945010241992   -0.72504797487153    3.31233503417417
C         0.99484442001542    0.72869009752663    3.31171933373769
C        -0.36094158407557    1.18240280183559    3.32879227572448
C         2.32260584580663   -2.58276686755584    0.58480075261559
C         3.16179489425606   -1.41783037161866    0.57094484365399
C         3.01466403025910   -0.71217967102784    1.86300954454660
C         1.93236534614683   -1.42240973031445    2.57575837379747
C         1.56488725494076   -2.58349441384847    1.81896210211950
C         3.18060365572048    1.42835368332963    0.59471622931933
C         2.33491442407073    2.60172048149256    0.58913408953106
C         1.57955451034140    2.60323262613665    1.82106490287215
C         1.96532275085762    1.42996904519829    2.57821105101544
C         2.98334369859005    0.73113145216837    1.84587295814827
C        -0.36323681267902    3.46921041448127    0.58963205855233
C        -1.73759377618473    3.01800617123829    0.59223632063345
C        -1.96622604733928    2.29605816379134    1.82117285316638
C        -0.73787639088340    2.29870773260915    2.58004958882062
C         0.25599226496468    3.02589304272950    1.81896727749874
C        -3.42162236687438    0.72002421729018    0.57958624507564
C        -3.42162777857912   -0.72553288474844    0.57691015946705
C        -2.79776187826860   -1.16822043419824    1.80133528974638
C        -2.43331152985090    0.00346276812279    2.54472988414254
C        -2.79428040289998    1.16398880653372    1.80744958971341
C        -1.74349031736077   -3.01885393192427    0.59147616077996
C        -0.36775364074752   -3.46479687875895    0.59150255808937
C         0.24551053084835   -3.02694962665314    1.82492628833480
C        -0.73984691535867   -2.29638744459823    2.58172170982955
C        -1.97689144027266   -2.29430380463249    1.81500647017960
C        -0.25277268697710   -3.02310882215747   -1.82297531384848
C         0.74288769706693   -2.29872514368056   -2.58338746222990
C         1.97388784660627   -2.30063021112843   -1.82714128203371
C         1.73824126148644   -3.02184893628110   -0.59999017604061
C         0.36182940160125   -3.46770423255238   -0.59449013675772
C         2.79245391724557   -1.17101012605860   -1.83029509864034
C         2.41222798640330   -0.00066851384729   -2.58473902225783
C         2.79105351965878    1.17044377674048   -1.82147672621730
C         3.40362082166028    0.72900681320786   -0.59215258087580
C         3.39577921238429   -0.72210338205433   -0.59975826719363
C         1.97198808777847    2.29706431431409   -1.82357537219053
C         0.74269174910654    2.29482680153004   -2.58366934620165
C        -0.25121467932172    3.01833367152880   -1.82340678394124
C         0.36499405215024    3.46894523896579   -0.59447180398091
C         1.74013570219768    3.02454586989833   -0.59462467488641
C        -1.57469626726714    2.58736858936300   -1.82165833552777
C        -1.95518120340004    1.41710643515696   -2.58345429426086
C        -2.95091736297775    0.69395249738053   -1.82558669789889
C        -3.18813602648314    1.41788835337037   -0.59722840707071
C        -2.33280500879948    2.58749003952042   -0.59153497146483
C        -2.95134623959644   -0.69848328562164   -1.82676452069543
C        -1.95509220692519   -1.42167425471294   -2.58432720445624
C        -1.57669878638328   -2.59177745161880   -1.82285328045210
C        -2.33797566132185   -2.59175208875776   -0.59620726689019
C        -3.19083857613580   -1.42396466473610   -0.60147739683628
C        -0.99771017114988   -0.72546141871303   -3.31393962817990
C        -0.99785439130074    0.72127378130720   -3.31484272861548
C         0.37715075869979    1.16791083076130   -3.31532378033306
C         1.22701863909674   -0.00143822830077   -3.31502105453028
C         0.37790306117642   -1.17207832103546   -3.31392890952339
Cl       -1.88410488665955   -0.01631127580454    5.10024798138773
Cl        4.56318081890743   -1.10170333112315    2.80183421639204
62
 energy: -137.543080267700 gnorm: 0.060407562589 xtb: 6.4.1 (a3dbbd7)
C        -1.28899482050980    0.00076198632404    3.47368372651567
C        -0.36207958862372   -1.18535022807020    3.28142843267566
C         0.97491256045217   -0.72616280064185    3.26468451047051
C         0.97623650168809    0.72786903266405    3.27888494836146
C        -0.34144012156994    1.17745628053063    3.28874529021524
C         2.30904064550504   -2.56345651049190    0.57375831039122
C         3.14048063244540   -1.41866077653924    0.55354717325374
C         3.10845222670917   -0.74565381157203    1.91826874585466
C         1.91318149832140   -1.42815954108384    2.55491871921327
C         1.55410299064167   -2.56480843494496    1.80332426095280
C         3.15089282806573    1.42587269817740    0.58496692963596
C         2.32021268606240    2.60012632927305    0.57770343855223
C         1.56856394764334    2.60274635655498    1.80275771835933
C         1.95300670306402    1.42796807737914    2.54666869478555
C         2.93997085007780    0.74954194234059    1.82317805166661
C        -0.36254685501323    3.46161894498895    0.57904766519791
C        -1.72832251854606    3.00421158840636    0.58832341617378
C        -1.95166956756164    2.29088167241046    1.81421389529796
C        -0.73512214082842    2.28949253945567    2.55039562950813
C         0.25416687334425    3.02069265548787    1.79964020430831
C        -3.40902127465215    0.71279184691748    0.56964853850973
C        -3.41499983817328   -0.72220724277957    0.56479984608728
C        -2.78314221810465   -1.15494296980063    1.78142589585047
C        -2.43986890160731    0.00761539999941    2.52067622006158
C        -2.77441525599790    1.14376057555335    1.79769360884575
C        -1.73968999132650   -3.00207649429078    0.58457807652827
C        -0.37044395013744   -3.44858420464372    0.58450406121097
C         0.23951626681492   -3.02065010854417    1.81391798040067
C        -0.73355474052152   -2.28695316554932    2.55449618663301
C        -1.97507859630584   -2.28414122232234    1.79648401038561
C        -0.25436379996753   -3.01137863131242   -1.81712025386057
C         0.73849356488523   -2.28924008936144   -2.57303659347223
C         1.96217981958107   -2.29499382992842   -1.82186774582319
C         1.72861317153341   -3.00967009557303   -0.60672813407608
C         0.35586973312043   -3.45297340186598   -0.59735092627309
C         2.77763932940384   -1.16489185941965   -1.82412493133762
C         2.40257783894055   -0.00249069343011   -2.57293780079495
C         2.77889478088124    1.16429876235595   -1.81132290653281
C         3.38871934243551    0.73085560212372   -0.59285089366539
C         3.37139386418587   -0.72190776629637   -0.59850605524859
C         1.96095762053193    2.28792565121704   -1.81798626430931
C         0.73968831211519    2.28531411310134   -2.57500511122163
C        -0.24895088021033    3.00572666778555   -1.81976448453518
C         0.36312252691715    3.46066144878454   -0.59857271068507
C         1.73093049468301    3.01960006442705   -0.59954682537982
C        -1.56675535236025    2.57495469877747   -1.81357792265055
C        -1.94519947214178    1.41059743669905   -2.57305112705546
C        -2.93675818123026    0.69191013289819   -1.82113860770838
C        -3.17261483552719    1.40911260878508   -0.59746959972416
C        -2.32064375069081    2.57605147771012   -0.59084195653134
C        -2.94037016564708   -0.69563559375287   -1.82496017676115
C        -1.94705241403729   -1.41434730040316   -2.57694178219883
C        -1.57370099257289   -2.57939742444192   -1.81773179288615
C        -2.33384037275129   -2.57964312717163   -0.60329612289059
C        -3.18179335220484   -1.41805575843761   -0.60811380167048
C        -0.99230054933096   -0.72150397479407   -3.30027354071813
C        -0.99101384325800    0.71842261595049   -3.30025762616130
C         0.37669420215623    1.16211099894894   -3.30436881136732
C         1.22135198189017   -0.00152425354399   -3.29992230104778
C         0.37700651555640   -1.16612241575232   -3.29910995325550
Cl       -1.93337817313219   -0.01716964901344    5.25410750639988
Cl        4.69225317348039   -1.12154337480576    2.87236959540792
62
 energy: -137.546733051534 gnorm: 0.031459892654 xtb: 6.4.1 (a3dbbd7)
C        -1.29007839525968   -0.00005210744065    3.48347497674569
C        -0.36850036922695   -1.18098188310950    3.29920119297356
C         0.97984721241432   -0.72597021556481    3.27526511266660
C         0.97385891374571    0.72701941526374    3.28672529569307
C        -0.35415245136323    1.17628598749050    3.31049537288322
C         2.31561396874909   -2.56095567644961    0.57651094227431
C         3.16437109153810   -1.42048553391898    0.56830565430065
C         3.11854366693973   -0.74712551175779    1.92264777753054
C         1.93472689106779   -1.42541137808776    2.56783950151877
C         1.55886523222956   -2.55861663130461    1.80526743235857
C         3.15968556140304    1.42144798628877    0.58790802525655
C         2.32366776307550    2.59659231563321    0.57651599845984
C         1.56928419624989    2.59536414811411    1.80160639684969
C         1.95531788608656    1.41943169485324    2.54900999251843
C         2.95137053495308    0.73578683612359    1.82786538243349
C        -0.36327919847582    3.46158312684403    0.57712217777627
C        -1.72966335286736    3.00349306587724    0.58550609193057
C        -1.95401414618646    2.29046786966314    1.81545298559432
C        -0.74103545599609    2.28861430156243    2.56159815145802
C         0.25204513866614    3.01201645606354    1.79905255280096
C        -3.40634731706302    0.71315973655362    0.56979478717263
C        -3.41446141692348   -0.72271871878692    0.56553347147126
C        -2.78675382270490   -1.15563747560900    1.78927536396575
C        -2.43513836680260    0.00569216911967    2.53878081791371
C        -2.77501485738793    1.14409700297180    1.80336759645684
C        -1.74336911872087   -2.99983728937037    0.58111906368598
C        -0.37246606556369   -3.44331625397603    0.58172674188713
C         0.23921488732895   -3.00519007985258    1.80954521744046
C        -0.73963693550884   -2.28210260764011    2.56199549319394
C        -1.97953162456091   -2.28438190900221    1.79910806260368
C        -0.25742973023459   -3.01298622676258   -1.82342236834203
C         0.73696272061092   -2.29083185253270   -2.57983288997947
C         1.96036880410855   -2.29276536097976   -1.82320406185385
C         1.72786544883429   -3.00517719317987   -0.60466501729185
C         0.35424057743913   -3.45124411607060   -0.60033682063788
C         2.77530281916228   -1.16234477825805   -1.81967544245909
C         2.40114263602737   -0.00147865259380   -2.57510141866020
C         2.77942617322877    1.16552859276757   -1.81381262400211
C         3.39372121323279    0.73035357768016   -0.59341262055522
C         3.38197028218806   -0.72231037666819   -0.59342816402291
C         1.96204765491883    2.29023111691591   -1.82341555235608
C         0.73907756061572    2.28724162206158   -2.58164077151869
C        -0.25026968872977    3.00970306227535   -1.82638586117551
C         0.36294731022748    3.46415916751715   -0.60318268582492
C         1.73257825820703    3.02072548407523   -0.60293368508295
C        -1.56875807808614    2.57675999202171   -1.82002385210326
C        -1.94900771226990    1.41187365668911   -2.58066299477384
C        -2.94211275843831    0.69217333944913   -1.82823495949872
C        -3.17395574457966    1.40872435734847   -0.60127081324814
C        -2.32178405394469    2.57644738641145   -0.59496910418642
C        -2.94778788014473   -0.69705367692690   -1.83321781495539
C        -1.95326167599509   -1.41671647008899   -2.58665558181747
C        -1.57886902415621   -2.58266773496735   -1.82594337688136
C        -2.33928315164663   -2.58203415194695   -0.60861343235837
C        -3.18704547638697   -1.41887507028846   -0.61247559982220
C        -0.99613658260176   -0.72253969743053   -3.30937953951327
C        -0.99427958690572    0.71885203597377   -3.30900072870184
C         0.37492501006911    1.16323803114721   -3.31156950216770
C         1.22036765170917   -0.00155125289746   -3.30565439442141
C         0.37485514145315   -1.16719060776922   -3.30719971734389
Cl       -1.93671064268628   -0.02150168760380    5.24914013367382
Cl        4.69591944352910   -1.11835790047109    2.86762815993616
62
 energy: -137.548144372659 gnorm: 0.019033389576 xtb: 6.4.1 (a3dbbd7)
C        -1.29512280975239   -0.00146732440841    3.50552894799332
C        -0.37347104435839   -1.17708701525081    3.30341933591137
C         0.97996631279473   -0.72639674200969    3.27445004405682
C         0.96681691768320    0.72583726082981    3.28727160172578
C        -0.36390910356252    1.17349215641797    3.31942631327423
C         2.31961093745813   -2.55788601570560    0.57720121224613
C         3.18031900283813   -1.42205935390135    0.57827776257379
C         3.13230334181888   -0.75188639679912    1.92993395528642
C         1.94835254679796   -1.42325202738198    2.57488334021032
C         1.56107473338120   -2.55280028413609    1.80506618304505
C         3.16176032868245    1.41645673683878    0.58741531869130
C         2.32391629375494    2.59272412441439    0.57395346526661
C         1.56736283930301    2.58893981041813    1.79768431381384
C         1.95203023319468    1.41019300303888    2.54488847990129
C         2.94333485212341    0.72204584323587    1.82238561776434
C        -0.36330953445991    3.46076850798161    0.57576105590321
C        -1.73021520429231    3.00371209475041    0.58405395248929
C        -1.95557302188748    2.29132447989683    1.81682042362139
C        -0.74543486409313    2.28710640942241    2.56567161589320
C         0.25059692659437    3.00630349763511    1.79773073579685
C        -3.40050571104740    0.71255180951959    0.57117378547621
C        -3.41171026899337   -0.72251207074347    0.56735278905137
C        -2.78800461139960   -1.15563244771443    1.79597761775880
C        -2.42879783109429    0.00471925553955    2.55084691027094
C        -2.77263690954205    1.14239563535185    1.80951859598608
C        -1.74607887801500   -2.99908062803741    0.57921403236480
C        -0.37341832961866   -3.43732280495343    0.57975364216698
C         0.23933526596915   -2.99313038465386    1.80522616564292
C        -0.74370278669858   -2.27752575554227    2.56302679528617
C        -1.98423994553383   -2.28618164477198    1.80043421289045
C        -0.25849071476563   -3.01410161257316   -1.82730832567333
C         0.73646538806648   -2.29175672381429   -2.58411681023488
C         1.95942300006495   -2.29151411648329   -1.82404140757066
C         1.72733880957805   -3.00125272120344   -0.60336369926913
C         0.35375904252046   -3.44883370626903   -0.60217825634680
C         2.77344073920500   -1.16106744651815   -1.81575875912581
C         2.40029306303702   -0.00115302804991   -2.57496922758854
C         2.78122551453121    1.16656436464475   -1.81622410097859
C         3.39788246090778    0.72986243935738   -0.59569585218431
C         3.38691277054761   -0.72322825040372   -0.58964486689069
C         1.96406339930488    2.29194116937219   -1.82747099057425
C         0.73996121732978    2.28904169213523   -2.58595043034503
C        -0.24962907214332    3.01300585220929   -1.83055084059426
C         0.36387799998180    3.46657407915822   -0.60599651250343
C         1.73413903803681    3.02180445155001   -0.60607560336758
C        -1.56847888834239    2.57845098925127   -1.82315757555030
C        -1.95020421841962    1.41338226544216   -2.58406828216755
C        -2.94341838296235    0.69289541376048   -1.83048425549247
C        -3.17266495383931    1.40825886836502   -0.60190434715927
C        -2.32097471682733    2.57717433036329   -0.59680425855154
C        -2.95099318311851   -0.69752512726490   -1.83633210810759
C        -1.95636210947138   -1.41794103254500   -2.59145412976416
C        -1.58135403118290   -2.58486275488119   -1.83033489531620
C        -2.34235932623602   -2.58408061749930   -0.61156443656796
C        -3.18897906351622   -1.41900167561953   -0.61371721041542
C        -0.99790799112827   -0.72268152357778   -3.31379337267819
C        -0.99533946045417    0.71969575124122   -3.31333663230525
C         0.37476219709128    1.16437564124659   -3.31563450444734
C         1.22023321951998   -0.00143677586107   -3.30806752418124
C         0.37392580180959   -1.16736944426223   -3.31135586950677
Cl       -1.94297491934873   -0.02328476786218    5.25414267601650
Cl        4.70177466076903   -1.10963225724105    2.86792871495121
62
 energy: -137.548704306554 gnorm: 0.011571053923 xtb: 6.4.1 (a3dbbd7)
C        -1.29908950609923   -0.00295489502825    3.52314235130878
C        -0.37600855605567   -1.17565964537020    3.30030225179818
C         0.97814561082214   -0.72726419100970    3.26967912731777
C         0.96126069901292    0.72493814291927    3.28531525641894
C        -0.36862683910555    1.17109550251528    3.31867393316075
C         2.32108638451673   -2.55723140569947    0.57682010967240
C         3.18555006135156   -1.42296933925952    0.58162727896442
C         3.14000178048014   -0.75466641194651    1.93440275746867
C         1.95234233028584   -1.42252977257795    2.57610484978354
C         1.56133535055525   -2.55126594813070    1.80426137645735
C         3.15981784874325    1.41347557699362    0.58526680297758
C         2.32323535742152    2.59116095794626    0.57246424912216
C         1.56540805960690    2.58642649890927    1.79477544511228
C         1.94758047098322    1.40501762376717    2.54046160907884
C         2.92868956539488    0.71290573382791    1.81379789954036
C        -0.36319941637021    3.46124246178386    0.57565598288305
C        -1.73059148069864    3.00550227748041    0.58410794062378
C        -1.95659989698407    2.29313921649778    1.81809513644838
C        -0.74733999426387    2.28703679829093    2.56592744004481
C         0.24997074308878    3.00537541814956    1.79738120076205
C        -3.39621934468600    0.71204036465581    0.57301060803347
C        -3.40946592985257   -0.72203821900229    0.56938319046249
C        -2.78757408473011   -1.15560243457830    1.79982194523282
C        -2.42406499446441    0.00434750522321    2.55597130925351
C        -2.77014943988214    1.14091218562401    1.81369223192127
C        -1.74737390927980   -3.00041905627178    0.57905890758262
C        -0.37362120992660   -3.43549463483987    0.57932948018234
C         0.23960026655921   -2.98933515225878    1.80332521267578
C        -0.74551947451032   -2.27684322177207    2.56215231912472
C        -1.98688747313940   -2.28863767510696    1.80115593955434
C        -0.25817527438102   -3.01474610259278   -1.82837310157146
C         0.73684761537721   -2.29229813844209   -2.58550015019533
C         1.95977283829042   -2.29173322228988   -1.82452415034661
C         1.72740048978130   -3.00045457318475   -0.60288622836453
C         0.35406098375555   -3.44845476652230   -0.60254748542045
C         2.77349759380245   -1.16144832545299   -1.81435984445589
C         2.40115964559053   -0.00136721005733   -2.57496588366437
C         2.78367375039293    1.16714214660903   -1.81840090116500
C         3.40032710105274    0.72928057810131   -0.59810400304154
C         3.38792017857555   -0.72436729266414   -0.58851635736898
C         1.96609512320161    2.29279062375052   -1.82914717816837
C         0.74140532624818    2.29021533622403   -2.58730515241790
C        -0.24840283682039    3.01481506867883   -1.83154495970785
C         0.36490030192700    3.46816007086643   -0.60647029704162
C         1.73530384235652    3.02288490648391   -0.60747523562595
C        -1.56744148974107    2.57975609399236   -1.82346616679508
C        -1.94955959957440    1.41442771330902   -2.58406304896245
C        -2.94234491951425    0.69362796723503   -1.82933389933129
C        -3.17113391948544    1.40836664367624   -0.60057805352453
C        -2.31996099732841    2.57844747779305   -0.59671008805854
C        -2.95073991893042   -0.69719866938789   -1.83548686271051
C        -1.95650228708928   -1.41794897996832   -2.59190801802604
C        -1.58149041197847   -2.58561499893528   -1.83112125378734
C        -2.34288805598290   -2.58517548658969   -0.61191252476897
C        -3.18863832209560   -1.41868949958099   -0.61267561608906
C        -0.99775763172239   -0.72234857073679   -3.31442812448320
C        -0.99471594612710    0.72043768644917   -3.31379290784403
C         0.37581888645802    1.16512532041032   -3.31655015996861
C         1.22126847695204   -0.00135475926360   -3.30864264124977
C         0.37426757857002   -1.16719423125836   -3.31204206746871
Cl       -1.94543023790088   -0.02219654627012    5.25495603941521
Cl        4.69976610615713   -1.09793706666478    2.86777670710979
62
 energy: -137.548878204088 gnorm: 0.005920564323 xtb: 6.4.1 (a3dbbd7)
C        -1.30044926999323   -0.00383284497171    3.53015535291654
C        -0.37629962482770   -1.17615854072931    3.29660420971714
C         0.97680303954413   -0.72822232432423    3.26656049177804
C         0.95947111385067    0.72431343939648    3.28367406223118
C        -0.36884551267928    1.16995119088467    3.31495241858989
C         2.32117466928781   -2.55813649936295    0.57643043056651
C         3.18451542303023   -1.42350876933311    0.58075191088821
C         3.14176636850989   -0.75466759199446    1.93575198732129
C         1.95066688414341   -1.42315046892492    2.57472901441729
C         1.56103219057207   -2.55263657117727    1.80387070561971
C         3.15717792500424    1.41261400534002    0.58363164576834
C         2.32276220692381    2.59130819966499    0.57238650412669
C         1.56472875455183    2.58684105329352    1.79410421278618
C         1.94504014838133    1.40411758992547    2.53838464840309
C         2.91938449893407    0.70977498944565    1.80846332152468
C        -0.36307953241328    3.46218501628198    0.57617662784146
C        -1.73065633201211    3.00692646341541    0.58485215816826
C        -1.95684993998096    2.29431758955021    1.81885074145309
C        -0.74721683604622    2.28775368048695    2.56537423029206
C         0.24997816596018    3.00664855528011    1.79779403282144
C        -3.39497689944734    0.71198489524355    0.57409169110011
C        -3.40868301048338   -0.72167613713318    0.57035046637017
C        -2.78664195985498   -1.15550213171701    1.80047198437484
C        -2.42256581978872    0.00434777323081    2.55590836540902
C        -2.76896477347386    1.14034135123098    1.81492565427124
C        -1.74746064313719   -3.00168266507890    0.57955869803140
C        -0.37351899311030   -3.43663320926642    0.57967824875064
C         0.23977645117743   -2.99095912890970    1.80347445468216
C        -0.74562665367567   -2.27850362603101    2.56166969769665
C        -1.98719419610816   -2.28990590629345    1.80134931094725
C        -0.25771825967888   -3.01476323166421   -1.82787150015584
C         0.73725490967099   -2.29237429753894   -2.58508715939195
C         1.96035806718422   -2.29237136254357   -1.82461949231266
C         1.72770249506918   -3.00133533997240   -0.60296091658441
C         0.35440879509179   -3.44912293562409   -0.60222021879186
C         2.77435738107687   -1.16232540332095   -1.81471346423504
C         2.40232110856265   -0.00175964145372   -2.57533643172857
C         2.78510379199546    1.16703753914249   -1.81936629992818
C         3.40083092167110    0.72868664877597   -0.59915797762847
C         3.38749924934123   -0.72531280586936   -0.58897097344958
C         1.96700093754765    2.29270064897584   -1.82893841570307
C         0.74224124801078    2.29041038750464   -2.58674461609816
C        -0.24769692624496    3.01503628400955   -1.83074894821925
C         0.36537302093481    3.46862522251700   -0.60579344833792
C         1.73571464237438    3.02326983224953   -0.60739799267826
C        -1.56677762079566    2.58023966330759   -1.82256703104577
C        -1.94863839297676    1.41474774923674   -2.58290917691971
C        -2.94117688648573    0.69404412680663   -1.82772909843861
C        -3.17038543179245    1.40873991663603   -0.59924638816733
C        -2.31946028532850    2.57931426161606   -0.59590860865403
C        -2.94956934655472   -0.69665337862306   -1.83388123333849
C        -1.95559398567031   -1.41735494172627   -2.59065889588844
C        -1.58086529264471   -2.58527199834851   -1.83031736548693
C        -2.34224467493510   -2.58509607341696   -0.61122519239897
C        -3.18771284631107   -1.41826162402971   -0.61150092368619
C        -0.99705295999805   -0.72195832541116   -3.31346905739368
C        -0.99389934382678    0.72078870728969   -3.31271114186848
C         0.37671230559884    1.16530522535611   -3.31589114472319
C         1.22215206578084   -0.00137027822521   -3.30838675108531
C         0.37481479483062   -1.16703700443789   -3.31125468156485
Cl       -1.94382051289395   -0.02006576951625    5.25051588662943
Cl        4.69351615714840   -1.08810772367554    2.86715590827760
62
 energy: -137.548922338252 gnorm: 0.002396603429 xtb: 6.4.1 (a3dbbd7)
C        -1.30048788735755   -0.00405721142247    3.53081366744936
C        -0.37576369526323   -1.17696341773891    3.29532488744156
C         0.97655084576450   -0.72881617035147    3.26609363219741
C         0.95991875757416    0.72395956729317    3.28325423118690
C        -0.36762014532734    1.16976297022307    3.31296045402104