108
 energy: -321.388669207563 gnorm: 1.845564752279 xtb: 6.4.1 (a3dbbd7)
C        -1.23626340000000    0.00000000000000    3.32997640000000
C        -0.38202640000000   -1.17575640000000    3.32997640000000
C         1.00015810000000   -0.72665740000000    3.32997640000000
C         1.00015810000000    0.72665740000000    3.32997640000000
C        -0.38202640000000    1.17575640000000    3.32997640000000
C         2.34433560000000   -2.60145750000000    0.59464210000000
C         3.19857260000000   -1.42570110000000    0.59464210000000
C         2.96246730000000   -0.69904370000000    1.83090550000000
C         1.96230920000000   -1.42570110000000    2.59495830000000
C         1.58028280000000   -2.60145750000000    1.83090550000000
C         3.19857260000000    1.42570110000000    0.59464210000000
C         2.34433560000000    2.60145750000000    0.59464210000000
C         1.58028280000000    2.60145750000000    1.83090550000000
C         1.96230920000000    1.42570110000000    2.59495830000000
C         2.96246730000000    0.69904370000000    1.83090550000000
C        -0.36750900000000    3.48258920000000    0.59464210000000
C        -1.74969350000000    3.03349030000000    0.59464210000000
C        -1.98579880000000    2.30683290000000    1.83090550000000
C        -0.74953540000000    2.30683290000000    2.59495830000000
C         0.25062270000000    3.03349030000000    1.83090550000000
C        -3.42570570000000    0.72665740000000    0.59464210000000
C        -3.42570570000000   -0.72665740000000    0.59464210000000
C        -2.80757400000000   -1.17575640000000    1.83090550000000
C        -2.42554760000000    0.00000000000000    2.59495830000000
C        -2.80757400000000    1.17575640000000    1.83090550000000
C        -1.74969350000000   -3.03349030000000    0.59464210000000
C        -0.36750900000000   -3.48258920000000    0.59464210000000
C         0.25062270000000   -3.03349030000000    1.83090550000000
C        -0.74953540000000   -2.30683290000000    2.59495830000000
C        -1.98579880000000   -2.30683290000000    1.83090550000000
C        -0.25062270000000   -3.03349030000000   -1.83090550000000
C         0.74953540000000   -2.30683290000000   -2.59495830000000
C         1.98579880000000   -2.30683290000000   -1.83090550000000
C         1.74969350000000   -3.03349030000000   -0.59464210000000
C         0.36750900000000   -3.48258920000000   -0.59464210000000
C         2.80757400000000   -1.17575640000000   -1.83090550000000
C         2.42554760000000    0.00000000000000   -2.59495830000000
C         2.80757400000000    1.17575640000000   -1.83090550000000
C         3.42570570000000    0.72665740000000   -0.59464210000000
C         3.42570570000000   -0.72665740000000   -0.59464210000000
C         1.98579880000000    2.30683290000000   -1.83090550000000
C         0.74953540000000    2.30683290000000   -2.59495830000000
C        -0.25062270000000    3.03349030000000   -1.83090550000000
C         0.36750900000000    3.48258920000000   -0.59464210000000
C         1.74969350000000    3.03349030000000   -0.59464210000000
C        -1.58028280000000    2.60145750000000   -1.83090550000000
C        -1.96230920000000    1.42570110000000   -2.59495830000000
C        -2.96246730000000    0.69904370000000   -1.83090550000000
C        -3.19857260000000    1.42570110000000   -0.59464210000000
C        -2.34433560000000    2.60145750000000   -0.59464210000000
C        -2.96246730000000   -0.69904370000000   -1.83090550000000
C        -1.96230920000000   -1.42570110000000   -2.59495830000000
C        -1.58028280000000   -2.60145750000000   -1.83090550000000
C        -2.34433560000000   -2.60145750000000   -0.59464210000000
C        -3.19857260000000   -1.42570110000000   -0.59464210000000
C        -1.00015810000000   -0.72665740000000   -3.32997640000000
C        -1.00015810000000    0.72665740000000   -3.32997640000000
C         0.38202640000000    1.17575640000000   -3.32997640000000
C         1.23626340000000    0.00000000000000   -3.32997640000000
C         0.38202640000000   -1.17575640000000   -3.32997640000000
C        -1.76086815247998    0.00000000000000    4.78849957557021
F        -0.76911826531252    0.00000000000000    5.67468926254662
F        -2.50968386795825   -1.06794314680471    5.04863888333743
F        -2.50968386795825    1.06794314680471    5.04863888333743
C         1.42457227037960   -1.03501233722714    4.78849957248258
F         0.62223011468481   -0.45207589682711    5.67468926529602
F         1.40265511061956   -2.33913928186680    5.04863905501621
F         2.65809836182651   -0.61117154425495    5.04863869666890
C         4.03961820246674   -1.67468514775899   -2.62817407948106
F         4.96930660042402   -0.73147479244130   -2.75037763231443
F         3.71458666614023   -2.05683907990834   -3.85992603200073
F         4.62303373288713   -2.71686348978893   -2.04303253910982
C         4.03961820246674    1.67468514775899   -2.62817407948106
F         4.96930660042402    0.73147479244129   -2.75037763231441
F         3.71458666614022    2.05683907990832   -3.85992603200073
F         4.62303373288711    2.71686348978894   -2.04303253910982
C         4.58877084110522   -2.05459160147071    0.86730597290559
F         4.59709252483521   -2.78118520641283    1.98125951001435
F         4.97417519512416   -2.85850196315549   -0.11965482382298
F         5.53562669678859   -1.13053295630600    1.00324569798425
C         2.28376457660886    3.72927671755932    2.62817408867206
F         3.59030321655004    3.51265997057976    2.75037870097715
F         2.14318168460923    4.91533956626619    2.04303190988612
F         1.79618325340524    3.84739782561575    3.85992562899767
C         2.50473491433418    4.35941144902977   -0.86730593917895
F         2.08438487052912    4.95213043104453   -1.98125838386969
F         3.81390519137296    4.16837996597314   -1.00324768478856
F         2.34400857369757    5.23632280881804    0.11965581818547
C         4.25247495652193    1.01957928511255    2.62817407757680
F         4.45020405360858    2.32910962270745    2.75037677428972
F         5.33704498641440    0.51936149478961    2.04303305824600
F         4.21414295278388    0.51936236815950    3.85992636334023
C        -4.25247495652193    1.01957928511255   -2.62817407757680
F        -4.45020405360863    2.32910962270744   -2.75037677428969
F        -4.21414295278388    0.51936236815955   -3.85992636334025
F        -5.33704498641440    0.51936149478958   -2.04303305824604
C         0.34440953624153    4.35941144868709    2.62817404748705
F        -0.83992598883967    4.95213069234126    2.75037577510431
F         1.15529636597892    5.23632261667420    2.04303359185445
F         0.80829780400759    4.16837989546168    3.85992670963205
C         1.76086815247998    0.00000000000000   -4.78849957557021
F         0.76911826531252    0.00000000000000   -5.67468926254662
F         2.50968386795825    1.06794314680471   -5.04863888333743
F         2.50968386795825   -1.06794314680471   -5.04863888333743
C        -1.08016271022039   -3.32439912180418    3.71645041587937
F        -1.46215754230407   -4.50005299330749    3.22571838851551
F        -0.03290491502764   -3.55721032900471    4.50254840735999
F        -2.06425285383526   -2.89718320022386    4.50255037491024
108
 energy: -322.350823315568 gnorm: 1.507939759760 xtb: 6.4.1 (a3dbbd7)
C        -1.24006723774873    0.00171128170161    3.33437532121146
C        -0.38063225635776   -1.16947977796652    3.33502284990805
C         1.00323733292318   -0.72660998408937    3.33552130542464
C         0.99142901146444    0.73669986607380    3.33548024872321
C        -0.36956004793481    1.17922934947999    3.33412304818763
C         2.33021472081522   -2.60473106031351    0.59451865114830
C         3.21525829091436   -1.43816107975310    0.60099186845903
C         2.95224822080588   -0.71379287158467    1.84204452534852
C         1.97248236400594   -1.42478982934996    2.56985011698922
C         1.58031868644047   -2.60304321142096    1.82505037739008
C         3.19006125055404    1.42492074747437    0.58401826042958
C         2.35333899229126    2.58730951998739    0.59836252100807
C         1.58119381475123    2.56938844516801    1.81551405823553
C         1.95478354423768    1.42320970234735    2.59969554284232
C         2.97068390393822    0.70491061865564    1.83697472374168
C        -0.37745876835230    3.47887196983365    0.58536714621742
C        -1.75289996003471    3.02982082773358    0.59667100267585
C        -1.98652101119106    2.30741515064955    1.82756841424047
C        -0.75810310229754    2.30275701454914    2.59469057295163
C         0.23034736486627    3.01255123503632    1.81497052240350
C        -3.42402130199365    0.72625537224519    0.59422134483055
C        -3.42475176867621   -0.72638442976432    0.59353098823506
C        -2.80548668649108   -1.17329387904902    1.82546331695383
C        -2.43787378835678    0.00246610808189    2.57448793070838
C        -2.80705882449432    1.17020503261344    1.82910619573258
C        -1.74850164228820   -3.03033873487041    0.59502333419342
C        -0.36628594979380   -3.47997341379307    0.59521915863336
C         0.25621591260772   -3.03194922759424    1.81662233342669
C        -0.75471076375409   -2.31840123959100    2.60490896775526
C        -1.99193105611617   -2.30915971636802    1.81734604445631
C        -0.25143336134592   -3.03361462655485   -1.82894023852513
C         0.74910110605074   -2.30806762630545   -2.58938783973545
C         1.96712858925275   -2.31627033572593   -1.83353838639821
C         1.74342600726848   -3.03206596616554   -0.59491276499509
C         0.36697956521500   -3.48171588587349   -0.59517446869142
C         2.82107593169147   -1.18019887000239   -1.83374195717740
C         2.42363917099324   -0.00022782105691   -2.58397511587546
C         2.82614847391442    1.17947484263129   -1.83536470526374
C         3.42063084010193    0.71605449954858   -0.58418869131691
C         3.41700910319244   -0.70682506385059   -0.59483153747023
C         1.96648064521369    2.30555621491127   -1.84290551620879
C         0.74915523397867    2.30684240073579   -2.58795936279056
C        -0.24948998918130    3.03478240287790   -1.82765946721437
C         0.35281822799678    3.47842100179533   -0.60145497664035
C         1.75366921785964    3.05120897996834   -0.60181599725082
C        -1.58205301166222    2.59675682850475   -1.82956816453386
C        -1.94931901649158    1.43245362733855   -2.59345224340045
C        -2.96970751183477    0.70613605463739   -1.83548943281387
C        -3.19081680255609    1.42859551170688   -0.58148395213910
C        -2.34391398048421    2.59823468492322   -0.59553546224216
C        -2.96329442598877   -0.71747146442670   -1.83470092805888
C        -1.96536870123357   -1.42605197056285   -2.58974641469022
C        -1.57999801642885   -2.60107511107917   -1.82867297839995
C        -2.34430004187347   -2.60080223021794   -0.59564098064482
C        -3.19484973331986   -1.42748369190652   -0.59493203105981
C        -0.99393187776064   -0.72747143383395   -3.32881513862990
C        -0.99368559720316    0.72875558699673   -3.32887854422378
C         0.36985297723572    1.18221253078039   -3.33316829486036
C         1.23389281275171    0.00040678087721   -3.33226827158456
C         0.36789855778085   -1.18021809461562   -3.33243501345085
C        -1.78332176771131    0.00372091750722    4.78679609476803
F        -0.87611044829288    0.04220040240863    5.69443213479202
F        -2.52341609857725   -1.05466252606067    5.05537691804984
F        -2.52105654028624    1.07769268109484    5.04637775444161
C         1.44532544034391   -1.04562268565813    4.78714060213411
F         0.73354754238283   -0.48119383368497    5.69398022305572
F         1.42121853790035   -2.33653948241298    5.05483120827412
F         2.67046161004440   -0.61232201426409    5.04911972928264
C         4.03972030188573   -1.69698963310966   -2.63203225847473
F         4.98859485166144   -0.84577683061981   -2.75435043513103
F         3.72269591764184   -2.07268539363888   -3.85648264444370
F         4.61973977602662   -2.73155276309392   -2.05712337594086
C         4.04109828476539    1.69374051969570   -2.63241203000590
F         4.99001864618201    0.84374487596373   -2.75503770308770
F         3.72336603490508    2.07352362676807   -3.85606606536630
F         4.63262089118360    2.71861522401575   -2.04735665253362
C         4.59652939197049   -2.06097918885863    0.87092461378453
F         4.59906969902358   -2.78356124752056    1.98559688625371
F         4.97991962930479   -2.86543932386930   -0.10368493777451
F         5.54297689520883   -1.14453352876792    0.99326038294325
C         2.28965588609512    3.69955636510569    2.61273808636497
F         3.54294922430124    3.61007686499316    2.75316784017303
F         2.21156292711792    4.97347078177112    2.02531728471504
F         1.84856378869175    3.83438764745990    3.93777705326147
C         2.50692350162025    4.35997513579179   -0.88196140702468
F         2.08452520707961    4.95760623683978   -1.98546537374356
F         3.81122469613029    4.18568604404873   -0.99187751193382
F         2.34435268456240    5.25051757882267    0.10973381286522
C         4.26349752326570    0.99662177993814    2.62927008431924
F         4.53419466672235    2.25323274558453    2.75641867433105
F         5.34477845704193    0.52497885856280    2.04969686631967
F         4.21838782072407    0.51753507524448    3.86408611345506
C        -4.25794106070040    1.02135821267104   -2.63176400964298
F        -4.45292023975230    2.33217630776125   -2.75161620594153
F        -4.21550882877870    0.51900678536120   -3.86243729822178
F        -5.34012807365404    0.51909769405608   -2.04254075492183
C         0.30399513162081    4.33471581049611    2.60896217793721
F        -0.84719096998067    4.95816757355792    2.75228380928952
F         1.11982092221811    5.32721620462733    2.01012287261051
F         0.74950390356479    4.18776035884012    3.94050734920747
C         1.75903841536459   -0.00027026660748   -4.79605990260155
F         0.76548728646096   -0.00005420311732   -5.67874444463323
F         2.49987215385696    1.06232229627431   -5.06339790206807
F         2.49985199728684   -1.06252104397542   -5.06338873295891
C        -1.08299229379013   -3.33361759620715    3.71995113324377
F        -1.46407608723852   -4.50580979323412    3.22470484314341
F        -0.04304173666916   -3.57221694489841    4.50144196503854
F        -2.06470164028481   -2.91536935011346    4.50141554657753
108
 energy: -323.331251078884 gnorm: 1.132576357048 xtb: 6.4.1 (a3dbbd7)
C        -1.24544409147339    0.00243526597515    3.35931326773750
C        -0.37830664206531   -1.15999254298733    3.32377811179163
C         1.01039641589196   -0.72896635837191    3.36612148035802
C         0.97783256897878    0.74721715339737    3.31658486847335
C        -0.35600016745066    1.18274427845607    3.32203658690206
C         2.31391408004293   -2.61042195055358    0.59142473432344
C         3.23767833470056   -1.45422604484500    0.60905758197716
C         2.91978007590643   -0.72951826317423    1.84607584832203
C         1.98373751403968   -1.42151766656674    2.54297908238110
C         1.57931685729067   -2.60226446889465    1.81589894295757
C         3.17735263206940    1.42813016742700    0.57501859337110
C         2.36170943457165    2.56099119731640    0.60054523612473
C         1.59248721273925    2.55423208130834    1.81111254133457
C         1.94532087576400    1.41733497305813    2.60088212860966
C         2.99735614712214    0.71461656012671    1.85437699387754
C        -0.38801867491647    3.47453353438646    0.57237121182122
C        -1.75421890408750    3.02703849734434    0.59859028053692
C        -1.98531086495422    2.30825468037747    1.82462343150594
C        -0.76985338125655    2.29457668420071    2.59034695475526
C         0.21148426859419    3.01517038773071    1.81247567341141
C        -3.42165269886890    0.72653434609961    0.59338345097525
C        -3.42445899778617   -0.72660541975400    0.59196964042691
C        -2.80334828060474   -1.16838601694575    1.81977531340657
C        -2.45047225737191    0.00614919313971    2.55438938037204
C        -2.80705541562097    1.16411929323563    1.82950447672116
C        -1.74750161744317   -3.02505513499543    0.59733098912103
C        -0.36472160150381   -3.47553109405919    0.59676469720796
C         0.26333893011608   -3.03198592339363    1.80121542028084
C        -0.76147653244315   -2.34273213700845    2.61851210614765
C        -1.99763253748605   -2.30232915463336    1.79987584874128
C        -0.25252368948861   -3.03395060364854   -1.82617602513218
C         0.75251635082443   -2.30981007260391   -2.57954283789524
C         1.94353438980125   -2.32600778584967   -1.82963400126897
C         1.73693441745627   -3.03140326491211   -0.59447773434745
C         0.36661154105717   -3.48214467574214   -0.59563944338925
C         2.83930700534174   -1.18421147412186   -1.84549064091783
C         2.41764305016116   -0.00100276343727   -2.57599586984599
C         2.84951372019762    1.18494490597072   -1.84997019993605
C         3.41187257890409    0.69994560680368   -0.57451058756665
C         3.40699376123598   -0.68091848494350   -0.59431475022520
C         1.94150234568677    2.30516160029299   -1.84966119225990
C         0.75085548242804    2.30382578972807   -2.57658723151246
C        -0.24795788431266    3.03685779013926   -1.82410556193780
C         0.33538795756098    3.46804943602703   -0.60316461964128
C         1.76149528330438    3.07601065988628   -0.61108936440092
C        -1.58398917223960    2.59127409897802   -1.82844843756719
C        -1.93555730894052    1.43980793279997   -2.59119374029638
C        -2.99303068694955    0.71586723185715   -1.85022083920487
C        -3.18200754560348    1.43147390047396   -0.56725909127772
C        -2.34367752612280    2.59493476033953   -0.59680054942346
C        -2.94532543661381   -0.73748178423805   -1.82980618985795
C        -1.96936092183154   -1.42563350776030   -2.58320659622216
C        -1.57913352317047   -2.60096221496469   -1.82571599026569
C        -2.34437886385879   -2.60003543518558   -0.59696819300600
C        -3.18971445147162   -1.42983950725507   -0.59379928851871
C        -0.98500707831394   -0.72914555397680   -3.32755457336995
C        -0.98574908400080    0.73096335552610   -3.32404676789774
C         0.35510802718126    1.18711788898120   -3.32618597851482
C         1.23435139765497    0.00084660632178   -3.35900003165785
C         0.34954628253615   -1.18309843638009   -3.32221560595331
C        -1.79372007257921    0.00214310195138    4.79343770246187
F        -0.94572157927610    0.07010136301664    5.70767005882844
F        -2.53403342380048   -1.04114975872394    5.06189823874744
F        -2.52625103544965    1.08442480839823    5.04488098091637
C         1.45430011371435   -1.05259624821646    4.79508542885187
F         0.80494379552408   -0.49941363073049    5.70760897455483
F         1.43708059111111   -2.33203275123063    5.06123063476454
F         2.67621059824705   -0.61232085772490    5.05145179007382
C         4.04549077311516   -1.70597458235802   -2.63770241376397
F         5.00227938384078   -0.92031240586992   -2.75654700719427
F         3.73150801467852   -2.08557328740925   -3.85098266077307
F         4.61682861969970   -2.73959561008306   -2.07257006998960
C         4.04754873303481    1.70063938072264   -2.63843753466546
F         5.00475840199486    0.91693732913429   -2.75829404000371
F         3.73260837475542    2.08741301135597   -3.85045866630560
F         4.64348541698628    2.71336296678514   -2.05244449392309
C         4.60611690574700   -2.06753030346859    0.87469553858758
F         4.60029301079054   -2.78597034964856    1.98993474187297
F         4.98542743613591   -2.87169070889669   -0.08692554649769
F         5.54945342603317   -1.15905196913817    0.98263544409994
C         2.31089531625265    3.64856776802562    2.59511115218671
F         3.51071617592226    3.67866322663448    2.75525480585568
F         2.35104546583480    5.00503886303903    2.01911223538455
F         1.99161415185173    3.78771775519905    4.00952671099961
C         2.51146081975706    4.36234935054289   -0.89655342165782
F         2.08420065854600    4.96146254208106   -1.98897862264736
F         3.80741773348531    4.20268458701833   -0.97957313791158
F         2.34435546964940    5.26320589929768    0.09397902625973
C         4.27361520708679    0.98862026136647    2.63408347430038
F         4.58905719673190    2.20502628103346    2.76103656992368
F         5.34946325626324    0.53663830783205    2.05696625391805
F         4.22090436129123    0.51801029150381    3.86714898258129
C        -4.26706122546588    1.02363597703941   -2.63782082486174
F        -4.45552073809135    2.33555394139784   -2.75314151580089
F        -4.21656203847485    0.51846597770812   -3.86554473935402
F        -5.34355448746005    0.51852187072371   -2.04211103757000
C         0.25115507467382    4.29874262220534    2.58640350852448
F        -0.85139322272621    4.96476902893214    2.75323270106092
F         1.02091388123685    5.44267174261304    1.96803285841772
F         0.60106100930478    4.22998459452922    4.02307925163290
C         1.76012457189065   -0.00019469070299   -4.80995920486574
F         0.76178587586901   -0.00000061692520   -5.68356218405394
F         2.49003345900044    1.05669258057003   -5.07807562113913
F         2.48981524146066   -1.05665643068105   -5.07809498044193
C        -1.08587429659392   -3.34443263574177    3.72602691245023
F        -1.46626153774094   -4.51174815010068    3.22325709834653
F        -0.05353782464022   -3.58735436280519    4.49983589135600
F        -2.06509264381928   -2.93349569897655    4.49934204615757
108
 energy: -323.802814472678 gnorm: 0.477248314886 xtb: 6.4.1 (a3dbbd7)
C        -1.25296395001555    0.00452497657692    3.37930447971337
C        -0.37670345927920   -1.15173479043351    3.31467784244367
C         1.01697344804539   -0.73139352660303    3.39043879163103
C         0.97969421570475    0.75495055335255    3.30439555235628
C        -0.35601420433803    1.19291006455779    3.31438132997971
C         2.29992977091219   -2.61356407927178    0.58762509263425
C         3.26257031649807   -1.47072748376921    0.61642406049213
C         2.89993944754346   -0.73943385312510    1.84723278044307
C         1.98721432182451   -1.41908469054326    2.52074703935582
C         1.57718163989046   -2.60444405570714    1.80696581580322
C         3.15798863643532    1.43563408449461    0.57151793906539
C         2.36596922961106    2.53090453403175    0.59218646943820
C         1.61829649181179    2.58638744772739    1.83536923778683
C         1.92968798093667    1.39848124534253    2.60255696209261
C         3.01996093242995    0.72055523284849    1.87134690431662
C        -0.39833781262710    3.46375880378853    0.55705155718681
C        -1.75360748273513    3.02368030802489    0.60004366718168
C        -1.98506262690543    2.30745112606156    1.82347022983129
C        -0.78104356781747    2.27484386359711    2.58458905185142
C         0.20585195183594    3.05910443617050    1.83418750455400
C        -3.42066940565389    0.72603205720787    0.59170135187590
C        -3.42419018692749   -0.72783421498385    0.58795125482668
C        -2.80158601941672   -1.16586623753844    1.81219377352019
C        -2.45942918107107    0.00846458372291    2.53502940495705
C        -2.80790851847347    1.15816244174679    1.82781235440530
C        -1.74626439002860   -3.02138829789742    0.59768525924571
C        -0.36395947001625   -3.47205638255121    0.59676221760308
C         0.26721578946996   -3.02980756205881    1.78710949299107
C        -0.76805913446229   -2.36250665026687    2.63410582775425
C        -2.00184596176821   -2.29959012657227    1.78583182474506
C        -0.25586135457146   -3.03519879196830   -1.82334521542099
C         0.75242033017144   -2.31135056826026   -2.57313495907375
C         1.92341595908500   -2.33251464477844   -1.82851348715897
C         1.72861646158468   -3.03083347004009   -0.59509807537568
C         0.36394928959202   -3.48294253945481   -0.59624591555349
C         2.85844929753991   -1.19270433552399   -1.85681961743283
C         2.40970466570409   -0.00163672781075   -2.56484129240545
C         2.87204688023616    1.19199473515195   -1.86300067269711
C         3.40568043602585    0.68444385919763   -0.57041515654039
C         3.39039279583148   -0.65933533228005   -0.59016982140603
C         1.92080186404753    2.30061929831158   -1.85397489786379
C         0.74801120788556    2.30274578613574   -2.57011622755828
C        -0.25012476907964    3.03908197972066   -1.82315458910601
C         0.32048706685986    3.45966154232906   -0.60322570908482
C         1.77076815788074    3.10107223289810   -0.62012460191097
C        -1.58431675841161    2.58750435054507   -1.82570200956482
C        -1.92349089755829    1.44330533114468   -2.58790915992765
C        -3.01240089478115    0.72311968052216   -1.86278205362035
C        -3.17159638988397    1.43234716459782   -0.55619777878788
C        -2.34371952569642    2.59186511746568   -0.59857771343971
C        -2.93573306433841   -0.75218252016430   -1.82967511036845
C        -1.97349801459319   -1.42526704887678   -2.57744276679070
C        -1.57825458265867   -2.60214448381827   -1.82214934411514
C        -2.34408784068982   -2.60084902726312   -0.59814508421682
C        -3.18545654995923   -1.43229592336814   -0.59342527507585
C        -0.97879120020522   -0.73109044389642   -3.32640565316674
C        -0.98091492256407    0.73276106102656   -3.32113458792854
C         0.34312160192581    1.19234806188581   -3.32500209204190
C         1.23422262442990    0.00158147374415   -3.37720386858792
C         0.33344766393864   -1.18578749063422   -3.31790424944069
C        -1.81502773009249    0.00845108636753    4.80032489119532
F        -1.00312538763839    0.09884802905896    5.73649068346093
F        -2.55402524778413   -1.02881825524626    5.06597760901019
F        -2.54586200609003    1.09754900768209    5.03528288655940
C         1.47469735515655   -1.06025793933446    4.80226505413511
F         0.86682784878629   -0.51018591506343    5.73667103032182
F         1.45962406521959   -2.33445144919325    5.06487284264378
F         2.69653981391589   -0.61678607011767    5.04638489018668
C         4.05029838243049   -1.72844168847273   -2.64376209967970
F         5.03372638817309   -0.98327452900341   -2.76203053495298
F         3.73553130737514   -2.10616887370399   -3.85146163815754
F         4.60957783081938   -2.76698288920043   -2.08430054650126
C         4.05488676303079    1.72010697183511   -2.64443977803242
F         5.03742934624318    0.97539959319099   -2.76635398205612
F         3.73800753756645    2.10936654328064   -3.84925844773486
F         4.65197635800269    2.72370247324860   -2.05302592583364
C         4.61957987861024   -2.07745555072244    0.87975929540918
F         4.60236422702612   -2.78916641695420    1.99746764886414
F         4.99277783803324   -2.88456952088432   -0.07102065130713
F         5.56045599030069   -1.17492217535417    0.97035038337489
C         2.34199802624064    3.64078014743260    2.60765825452027
F         3.53338880210541    3.73358976203890    2.75700226499235
F         2.48306316551541    4.98066711138160    2.04608539905221
F         2.12849677935196    3.74129537945600    4.01523609889346
C         2.51685264564119    4.37793527671104   -0.90472904889964
F         2.08356072162692    4.96508539230544   -1.99751798679469
F         3.80631928840000    4.22180030715539   -0.96718126739767
F         2.33925800859845    5.27595945103313    0.07016462497395
C         4.28973229443537    0.97597374713157    2.64278916700931
F         4.65542453247387    2.16620227095685    2.76719373901707
F         5.36120454560317    0.53204880566356    2.05972721138966
F         4.22533114469327    0.51018761404183    3.87279098039578
C        -4.27716836143338    1.02681357149272   -2.64398104019528
F        -4.45923399252155    2.33907029590636   -2.75514452004109
F        -4.21850186000548    0.51818026437451   -3.86874076474275
F        -5.34740014175735    0.51822934383099   -2.04199397743374
C         0.19865757473383    4.31944855188037    2.59774166367702
F        -0.88786748870680    4.96803108087375    2.74591702207050
F         0.86894750822617    5.50227796637416    1.95997716351361
F         0.44857460715208    4.28064639738447    4.02832759416218
C         1.75842528056153   -0.00020877631831   -4.82446136899126
F         0.75461172893865   -0.00005267130167   -5.68910076481625
F         2.47951778523153    1.05270414352664   -5.09514668651931
F         2.47897288057885   -1.05273981894878   -5.09540636469977
C        -1.09046446985753   -3.35903525130128    3.73286067720100
F        -1.46935654572737   -4.52085997272544    3.21979643673507
F        -0.06285655717586   -3.60593068679872    4.49962289304411
F        -2.06848930486090   -2.95384177171221    4.49919513491520
108
 energy: -324.029035736990 gnorm: 0.315479790836 xtb: 6.4.1 (a3dbbd7)
C        -1.26716029404946    0.00560233612277    3.40549688618220
C        -0.37926840883323   -1.15055964538030    3.30841424007615
C         1.02294111592335   -0.73841293154626    3.42574430678019
C         0.97744942162355    0.75195771556941    3.28781440306619
C        -0.36691247999372    1.19539109072342    3.30060406939313
C         2.29093826394556   -2.61646445072734    0.57812314578598
C         3.28715138232928   -1.49187944333048    0.61949364691135
C         2.88680286157634   -0.73758298536856    1.83393120742716
C         1.96960425749216   -1.41886744125069    2.51086374879955
C         1.56822311899423   -2.60516259420362    1.79275905866130