180
 energy: -566.711895018690 gnorm: 11.616933808451 xtb: 6.4.1 (a3dbbd7)
C        -1.23626340000000    0.00000000000000    3.32997640000000
C        -0.38202640000000   -1.17575640000000    3.32997640000000
C         1.00015810000000   -0.72665740000000    3.32997640000000
C         1.00015810000000    0.72665740000000    3.32997640000000
C        -0.38202640000000    1.17575640000000    3.32997640000000
C         2.34433560000000   -2.60145750000000    0.59464210000000
C         3.19857260000000   -1.42570110000000    0.59464210000000
C         2.96246730000000   -0.69904370000000    1.83090550000000
C         1.96230920000000   -1.42570110000000    2.59495830000000
C         1.58028280000000   -2.60145750000000    1.83090550000000
C         3.19857260000000    1.42570110000000    0.59464210000000
C         2.34433560000000    2.60145750000000    0.59464210000000
C         1.58028280000000    2.60145750000000    1.83090550000000
C         1.96230920000000    1.42570110000000    2.59495830000000
C         2.96246730000000    0.69904370000000    1.83090550000000
C        -0.36750900000000    3.48258920000000    0.59464210000000
C        -1.74969350000000    3.03349030000000    0.59464210000000
C        -1.98579880000000    2.30683290000000    1.83090550000000
C        -0.74953540000000    2.30683290000000    2.59495830000000
C         0.25062270000000    3.03349030000000    1.83090550000000
C        -3.42570570000000    0.72665740000000    0.59464210000000
C        -3.42570570000000   -0.72665740000000    0.59464210000000
C        -2.80757400000000   -1.17575640000000    1.83090550000000
C        -2.42554760000000    0.00000000000000    2.59495830000000
C        -2.80757400000000    1.17575640000000    1.83090550000000
C        -1.74969350000000   -3.03349030000000    0.59464210000000
C        -0.36750900000000   -3.48258920000000    0.59464210000000
C         0.25062270000000   -3.03349030000000    1.83090550000000
C        -0.74953540000000   -2.30683290000000    2.59495830000000
C        -1.98579880000000   -2.30683290000000    1.83090550000000
C        -0.25062270000000   -3.03349030000000   -1.83090550000000
C         0.74953540000000   -2.30683290000000   -2.59495830000000
C         1.98579880000000   -2.30683290000000   -1.83090550000000
C         1.74969350000000   -3.03349030000000   -0.59464210000000
C         0.36750900000000   -3.48258920000000   -0.59464210000000
C         2.80757400000000   -1.17575640000000   -1.83090550000000
C         2.42554760000000    0.00000000000000   -2.59495830000000
C         2.80757400000000    1.17575640000000   -1.83090550000000
C         3.42570570000000    0.72665740000000   -0.59464210000000
C         3.42570570000000   -0.72665740000000   -0.59464210000000
C         1.98579880000000    2.30683290000000   -1.83090550000000
C         0.74953540000000    2.30683290000000   -2.59495830000000
C        -0.25062270000000    3.03349030000000   -1.83090550000000
C         0.36750900000000    3.48258920000000   -0.59464210000000
C         1.74969350000000    3.03349030000000   -0.59464210000000
C        -1.58028280000000    2.60145750000000   -1.83090550000000
C        -1.96230920000000    1.42570110000000   -2.59495830000000
C        -2.96246730000000    0.69904370000000   -1.83090550000000
C        -3.19857260000000    1.42570110000000   -0.59464210000000
C        -2.34433560000000    2.60145750000000   -0.59464210000000
C        -2.96246730000000   -0.69904370000000   -1.83090550000000
C        -1.96230920000000   -1.42570110000000   -2.59495830000000
C        -1.58028280000000   -2.60145750000000   -1.83090550000000
C        -2.34433560000000   -2.60145750000000   -0.59464210000000
C        -3.19857260000000   -1.42570110000000   -0.59464210000000
C        -1.00015810000000   -0.72665740000000   -3.32997640000000
C        -1.00015810000000    0.72665740000000   -3.32997640000000
C         0.38202640000000    1.17575640000000   -3.32997640000000
C         1.23626340000000    0.00000000000000   -3.32997640000000
C         0.38202640000000   -1.17575640000000   -3.32997640000000
C        -1.76086815247998    0.00000000000000    4.78849957557021
F        -0.76911826531252    0.00000000000000    5.67468926254662
F        -2.50968386795825   -1.06794314680471    5.04863888333743
F        -2.50968386795825    1.06794314680471    5.04863888333743
C        -0.54413818249354   -1.67468516033722    4.78849957845317
F        -0.23767107904745   -0.73147481112462    5.67468925997942
F        -1.79120914301982   -2.05683909935453    5.04863874564184
F         0.24013968171955   -2.71686350152345    5.04863903502921
C         1.42457227037960   -1.03501233722714    4.78849957248258
F         0.62223011468481   -0.45207589682711    5.67468926529602
F         1.40265511061956   -2.33913928186680    5.04863905501621
F         2.65809836182651   -0.61117154425495    5.04863869666890
C         1.42457227037960    1.03501233722714    4.78849957248258
F         0.62223011468481    0.45207589682711    5.67468926529602
F         2.65809836182651    0.61117154425495    5.04863869666891
F         1.40265511061956    2.33913928186680    5.04863905501621
C         3.37204091334889   -3.72927672645244    0.86730596148276
F         4.06564647311728   -3.51265957144659    1.98125763710228
F         4.25569947457670   -3.84739838595791   -0.11965645964809
F         2.78580317558591   -4.91533944031226    1.00324916143779
C         4.58877084110522   -2.05459160147071    0.86730597290559
F         4.59709252483521   -2.78118520641283    1.98125951001435
F         4.97417519512416   -2.85850196315549   -0.11965482382298
F         5.53562669678859   -1.13053295630600    1.00324569798425
C         4.25247495652193   -1.01957928511255    2.62817407757680
F         4.45020405360863   -2.32910962270744    2.75037677428969
F         5.33704498641440   -0.51936149478958    2.04303305824604
F         4.21414295278388   -0.51936236815955    3.85992636334025
C         2.82790274436383   -2.05459160758554    3.71645040671519
F         3.82797483682855   -2.78118494419178    3.22571836876305
F         3.37293748548841   -1.13053297859378    4.50255013394648
F         2.11749631416700   -2.85850222732984    4.50254863174647
C         3.37204091334889    3.72927672645244    0.86730596148276
F         4.06564647311728    3.51265957144659    1.98125763710228
F         4.25569947457670    3.84739838595791   -0.11965645964809
F         2.78580317558591    4.91533944031226    1.00324916143779
C        -0.53602450593361    4.99908416128281    0.86730591619822
F        -1.22448605650957    5.23152837615597    1.98125850960180
F        -1.18149064144157    5.61404773804446   -0.11965571789346
F         0.63540201352706    5.61404743764837    1.00324736766175
C        -2.84103082519036    3.32439911178427    2.62817407941587
F        -2.23127406184888    4.50005340761388    2.75037746012491
F        -4.01248672303644    3.55720929213525    2.04303264409737
F        -3.10404037880940    2.89718378306489    3.85992609894427
C        -4.92005227074660    1.03501232949151    0.86730592957069
F        -5.35386609588658    0.45207588830481    1.98125865327758
F        -5.70437742108406    0.61117153086585   -0.11965558739362
F        -5.14292645153878    2.33913927311179    1.00324714649869
C        -3.49548004549360    0.00000000000000    3.71645041414084
F        -4.73163621497510    0.00000000000000    3.22571838476757
F        -3.39327517264965   -1.06794314680471    4.50254938956302
F        -3.39327517264965    1.06794314680471    4.50254938956303
C        -4.03961820246674    1.67468514775899    2.62817407948106
F        -4.96930660042401    0.73147479244129    2.75037763231445
F        -4.62303373288714    2.71686348978891    2.04303253910981
F        -3.71458666614023    2.05683907990836    3.85992603200072
C        -0.53602450593361   -4.99908416128281    0.86730591619822
F        -1.22448605650957   -5.23152837615597    1.98125850960180
F        -1.18149064144157   -5.61404773804446   -0.11965571789346
F         0.63540201352706   -5.61404743764837    1.00324736766175
C        -2.84103082519036   -3.32439911178427    2.62817407941587
F        -2.23127406184888   -4.50005340761388    2.75037746012491
F        -4.01248672303644   -3.55720929213525    2.04303264409737
F        -3.10404037880940   -2.89718378306488    3.85992609894427
C        -0.34440953624153   -4.35941144868709   -2.62817404748705
F         0.83992598883967   -4.95213069234126   -2.75037577510431
F        -0.80829780400759   -4.16837989546168   -3.85992670963205
F        -1.15529636597892   -5.23632261667420   -2.04303359185445
C         1.08016271022039   -3.32439912180418   -3.71645041587937
F         1.46215754230406   -4.50005299330749   -3.22571838851551
F         0.03290491502765   -3.55721032900471   -4.50254840736000
F         2.06425285383526   -2.89718320022386   -4.50255037491024
C         2.84103082519036   -3.32439911178427   -2.62817407941587
F         2.23127406184888   -4.50005340761388   -2.75037746012495
F         3.10404037880944   -2.89718378306489   -3.85992609894426
F         4.01248672303643   -3.55720929213529   -2.04303264409737
C         4.03961820246674   -1.67468514775899   -2.62817407948106
F         4.96930660042401   -0.73147479244129   -2.75037763231445
F         3.71458666614023   -2.05683907990836   -3.85992603200072
F         4.62303373288714   -2.71686348978891   -2.04303253910981
C         4.03961820246674    1.67468514775899   -2.62817407948106
F         4.96930660042402    0.73147479244129   -2.75037763231441
F         3.71458666614022    2.05683907990832   -3.85992603200073
F         4.62303373288711    2.71686348978894   -2.04303253910982
C         4.92005227074660    1.03501232949151   -0.86730592957069
F         5.35386609588658    0.45207588830481   -1.98125865327758
F         5.14292645153878    2.33913927311179   -1.00324714649869
F         5.70437742108406    0.61117153086585    0.11965558739362
C         4.92005227074660   -1.03501232949151   -0.86730592957069
F         5.35386609588658   -0.45207588830481   -1.98125865327758
F         5.14292645153878   -2.33913927311179   -1.00324714649869
F         5.70437742108406   -0.61117153086585    0.11965558739362
C         1.08016271022039    3.32439912180418   -3.71645041587937
F         1.46215754230407    4.50005299330749   -3.22571838851551
F         2.06425285383526    2.89718320022386   -4.50255037491024
F         0.03290491502764    3.55721032900471   -4.50254840735999
C         2.50473491433418    4.35941144902977   -0.86730593917895
F         2.08438487052912    4.95213043104453   -1.98125838386969
F         3.81390519137296    4.16837996597314   -1.00324768478856
F         2.34400857369757    5.23632280881804    0.11965581818547
C        -4.58877084110522    2.05459160147071   -0.86730597290559
F        -4.59709252483521    2.78118520641283   -1.98125951001435
F        -5.53562669678859    1.13053295630600   -1.00324569798425
F        -4.97417519512416    2.85850196315549    0.11965482382298
C        -2.82790274436383   -2.05459160758554   -3.71645040671519
F        -3.82797483682855   -2.78118494419178   -3.22571836876305
F        -3.37293748548841   -1.13053297859378   -4.50255013394648
F        -2.11749631416700   -2.85850222732984   -4.50254863174647
C        -2.28376457660886   -3.72927671755932   -2.62817408867206
F        -3.59030321655004   -3.51265997057978   -2.75037870097715
F        -1.79618325340527   -3.84739782561575   -3.85992562899768
F        -2.14318168460923   -4.91533956626621   -2.04303190988614
C        -1.42457227037960    1.03501233722714   -4.78849957248258
F        -0.62223011468481    0.45207589682711   -5.67468926529602
F        -2.65809836182651    0.61117154425495   -5.04863869666891
F        -1.40265511061956    2.33913928186680   -5.04863905501621
C         1.76086815247998    0.00000000000000   -4.78849957557021
F         0.76911826531252    0.00000000000000   -5.67468926254662
F         2.50968386795825    1.06794314680471   -5.04863888333743
F         2.50968386795825   -1.06794314680471   -5.04863888333743
180
 energy: -576.194624625206 gnorm: 10.540800810284 xtb: 6.4.1 (a3dbbd7)
C        -1.23091829692435    0.00064227315922    3.32142906449684
C        -0.38188121166589   -1.17592368086629    3.32126000503114
C         0.99527701664743   -0.72351750862576    3.31676536800702
C         0.99959772913690    0.72820710957538    3.32477215702932
C        -0.38269390571803    1.17546028830420    3.33197841062379
C         2.33930801534059   -2.59912261975831    0.59356035651559
C         3.18419516895822   -1.41904644540295    0.59246624138094
C         2.95508813545703   -0.69376078697780    1.82603865616506
C         1.95639780018810   -1.42339882192604    2.58581406281217
C         1.58068217910268   -2.60228742990224    1.83176241468196
C         3.19798802570152    1.42671688678344    0.59648203916566
C         2.34229916860652    2.59640416480019    0.59787517770041
C         1.57965937672481    2.60135267595076    1.83124701923678
C         1.96351398288749    1.42712950955481    2.59325475898734
C         2.96221824349721    0.70117945291177    1.83175758231696
C        -0.36802408997194    3.48302008836532    0.59572909971601
C        -1.75056360222470    3.03375840866799    0.59504490591524
C        -1.97921305743041    2.30550248937759    1.82758543578411
C        -0.74873349892671    2.30950979771006    2.59388976191457
C         0.25076398534656    3.03196375386059    1.83215414562525
C        -3.41553866327752    0.72177422305686    0.59296626487640
C        -3.42640465926355   -0.72756726215850    0.59403868675856
C        -2.80972846895026   -1.17481688294378    1.83148380969626
C        -2.41925621889167    0.00025429091883    2.58500456629226
C        -2.79587729529202    1.17023919381989    1.82172126414168
C        -1.75006415802890   -3.03385750418792    0.59412204537681
C        -0.36860646188899   -3.48288314548084    0.59582668461337
C         0.24942821358845   -3.03250978989760    1.83197769505474
C        -0.74810146344683   -2.30883546036417    2.59292428782770
C        -1.98570343334345   -2.30786253619928    1.83092907947898
C        -0.24845876296049   -3.02792324625425   -1.82456252240233
C         0.74695614914113   -2.29910396126941   -2.59111629919499
C         1.97928258194391   -2.30193937594181   -1.82480972570697
C         1.74972431930748   -3.03485757254659   -0.59644509466383
C         0.36795268759736   -3.48389992820961   -0.59711719738335
C         2.79958458988738   -1.16984024203325   -1.82649159313439
C         2.42780111929708    0.00046185438152   -2.59454100949972
C         2.80306151609005    1.17568635283166   -1.83044985695154
C         3.41921913862800    0.72723367152234   -0.59101202971380
C         3.40939130252697   -0.72264000485653   -0.59180248257000
C         1.98533174636260    2.30796144205588   -1.82985635955802
C         0.74962900673259    2.30838740541095   -2.59625686932680
C        -0.25229029304013    3.03304384794161   -1.82860826148769
C         0.36758987672635    3.48327964255084   -0.59807294415233
C         1.74553880789871    3.03076585200510   -0.59698675154947
C        -1.58005359709039    2.60075161757518   -1.83088973654682
C        -1.96463778987421    1.42713168615356   -2.59160085495797
C        -2.96088009464731    0.69997043063923   -1.83242595666835
C        -3.19196665772766    1.42568078127653   -0.59732998825749
C        -2.34417881719856    2.60116207177836   -0.59636595413787
C        -2.96398849783632   -0.69951709571769   -1.82960789977772
C        -1.96054456556323   -1.42171082605411   -2.59326725578007
C        -1.58086604396466   -2.59578826797511   -1.82535232142296
C        -2.34531531786516   -2.60093806975767   -0.59479013206296
C        -3.19775332330482   -1.42553716691600   -0.59570513408667
C        -0.99925214631626   -0.72697968093188   -3.33057313129029
C        -1.00013323223934    0.72676666017699   -3.33123938034148
C         0.38168202028689    1.17445010235970   -3.33042203987279
C         1.23483378323430    0.00050067079249   -3.33071600104294
C         0.38050667134778   -1.17502416857601   -3.33064665156533
C        -1.77064414545495    0.00237412672279    4.74935194986752
F        -0.79330233212693    0.03700714192937    5.70531689202309
F        -2.53239294347092   -1.03851575456327    5.07729342028174
F        -2.47180109931942    1.08414397265899    5.08777133904049
C        -0.54375160119374   -1.68239187559980    4.76311707082060
F        -0.26243318859826   -0.77387556981856    5.70657207963997
F        -1.75969274076518   -2.11751911529393    5.05533210759455
F         0.18068780735973   -2.75268120022500    5.05457979989187
C         1.42720143083150   -1.04104346001600    4.74570370562391
F         0.65829611425701   -0.46684730812707    5.71146495115190
F         1.43628824799881   -2.32487634920562    5.08160467335982
F         2.65860017148789   -0.64843745517788    5.08177545757966
C         1.43779432509042    1.04097296410717    4.76560078308895
F         0.62152368310239    0.50320643106968    5.70100833997717
F         2.66754846793963    0.68153354051749    5.05224415222420
F         1.40161793150898    2.34359344000899    5.05262084693154
C         3.35503426597540   -3.72439784305369    0.84564308241103
F         4.05420995080849   -3.56702575996554    1.99739258870158
F         4.22092313490539   -3.91136430510231   -0.12931215829468
F         2.78640195571741   -4.92059278093568    1.00580796348051
C         4.56467486514184   -2.03027829320501    0.84606037634571
F         4.64626673148401   -2.80030434512366    1.96325317369529
F         5.01960902001553   -2.84979446679315   -0.09234617057800
F         5.56268496746200   -1.16978996411967    0.98744763046489
C         4.23826976254303   -0.99852803402426    2.61596302539203
F         4.48529361466683   -2.30298883395315    2.78591902236777
F         5.33945174605031   -0.47597958320915    2.09856001454614
F         4.26536602468252   -0.47863762777976    3.83595256908325
C         2.80064022112910   -2.02576431311508    3.71073567000452
F         3.81894507248509   -2.83070998246507    3.26186457796576
F         3.36745489167006   -1.17165944453604    4.53108724665492
F         2.13857188009604   -2.89899010852400    4.49102316601792
C         3.36119572495773    3.71703679813542    0.87166141887139
F         4.06925739829069    3.51416887681847    1.98371405000548
F         4.28606579812554    3.83979160473519   -0.10452094339742
F         2.79060834091759    4.92217259785624    1.03402894805984
C        -0.53660174077702    4.99796108743828    0.86595581767687
F        -1.20856521360384    5.24591976879086    1.97025283090772
F        -1.18213453757543    5.61553264035330   -0.12041575593616
F         0.63565470803510    5.61686123737202    1.00461238179078
C        -2.82775728767221    3.31792159209695    2.61912907829580
F        -2.24809977008568    4.49296624537484    2.76532336061607
F        -4.00106150537438    3.60278727592124    2.03261186472366
F        -3.07708720745586    2.93221029033161    3.88067688065136
C        -4.88770490652833    1.04104025666830    0.84980793376429
F        -5.40120229313963    0.41942895825667    1.95820259266466
F        -5.72514762621004    0.58494914995908   -0.10580186249691
F        -5.19252508570925    2.32217500078537    0.98922816489942
C        -3.46180414997024   -0.00620063650620    3.70384218037452
F        -4.75375936500563   -0.04320300409164    3.25310447009342
F        -3.42808039724260   -1.07939955150619    4.49582662133031
F        -3.42304709179652    1.03899643827612    4.53373515769125
C        -4.00982540667567    1.66636458920967    2.60909162472750
F        -4.98955845578809    0.76450145081960    2.77162726274433
F        -4.64065078638006    2.72858779259780    2.09248821641339
F        -3.75901772777831    2.08857116437783    3.85886875781673
C        -0.53548254400288   -4.99770366813385    0.86806725821840
F        -1.20805947127515   -5.24571331448044    1.96980744771867
F        -1.18253072221822   -5.61697471157105   -0.11899497124165
F         0.63696696421276   -5.61641526732162    1.00314444937411
C        -2.84003388272750   -3.32432554408125    2.62624090115954
F        -2.24845241676706   -4.48985330026144    2.76463946733718
F        -4.01480087583794   -3.55779045877112    2.04296745112329
F        -3.10731032535773   -2.90008005391646    3.86110380332958
C        -0.36788410285545   -4.32554407178569   -2.62267405665231
F         0.83040400632167   -5.00926303823493   -2.72573712987957
F        -0.81908730333531   -4.21689621897510   -3.84181016862998
F        -1.12307161682566   -5.26472690446607   -2.03606744678462
C         1.07294514653408   -3.30245670268216   -3.71455875458535
F         1.46365087449687   -4.50567463363118   -3.27076149314770
F         0.07355365131525   -3.52408572901705   -4.54736419757634
F         2.01152565700193   -2.89764309037474   -4.54659847782254
C         2.83603980281306   -3.28475483573420   -2.62398894579942
F         2.27387039125347   -4.53662901317457   -2.72600466118932
F         3.14320711759576   -2.92389830812697   -3.84631224399156
F         4.00108558564126   -3.61035333532338   -2.03467702711533
C         4.00647021154034   -1.68142133453115   -2.60827156671675
F         4.97520228297097   -0.73968190920390   -2.81344066026663
F         3.73662971609514   -2.03065439982920   -3.88322826064806
F         4.63978177481546   -2.72537884891043   -2.09354526108941
C         4.01883879468916    1.69166279675693   -2.62195186061108
F         4.96934785657771    0.74844841294360   -2.80333346878802
F         3.71940216064611    2.05715423343364   -3.86154793408274
F         4.59871610058709    2.74272930231870   -2.09971040362605
C         4.89990937548020    1.04218392418277   -0.84395315877100
F         5.39465841261898    0.48871165911145   -1.96947641945938
F         5.17613194491281    2.32483080830584   -0.94887569023774
F         5.71382811582584    0.68004453162352    0.12681868489017
C         4.88690428248692   -1.03044014542492   -0.85145661192874
F         5.39613708688505   -0.48463196362652   -1.96740035385154
F         5.19634745248205   -2.32336729825716   -0.99278279040016
F         5.73504985696910   -0.64920907805756    0.10654482266819
C         1.07855617257218    3.32277144170346   -3.71710962017912
F         1.45271768845100    4.49566608241249   -3.24699566519954
F         2.06283733057302    2.90084410298890   -4.50400078559733
F         0.03420541390974    3.55947649423609   -4.50302390976702
C         2.49291912098740    4.35041848918343   -0.87011414239389
F         2.09543849951799    4.96234715398185   -1.96223205792769
F         3.81747071754172    4.17880331482718   -1.03394596853911
F         2.33049999082808    5.25784851748643    0.10489550896825
C        -4.57249115264669    2.05199465269941   -0.87069011098153
F        -4.59948088929808    2.78323907108818   -1.98376225940720
F        -5.54614540964879    1.13313057814016   -1.03883037688121
F        -4.97109297233464    2.89919612428764    0.08575016931902
C        -2.81618007414753   -2.04715623608866   -3.71743924809827
F        -3.85639490822889   -2.74829128107639   -3.24790914913036
F        -3.37676525896225   -1.13184205853594   -4.50370091408860
F        -2.13188996787541   -2.80435074886874   -4.54703804264070
C        -2.25477613312048   -3.71204531623592   -2.62361350729426
F        -3.60956072052083   -3.55535948097932   -2.72531001676889
F        -1.81887174240931   -3.89159564168361   -3.84261098493721
F        -2.18798215997291   -4.92530755622839   -2.02905431384766
C        -1.42452943549808    1.03585869266716   -4.78729982444730
F        -0.64547249147626    0.45894082221856   -5.67698290674314
F        -2.65950959672403    0.61320087364117   -5.05044031839716
F        -1.40519563215914    2.33859235140324   -5.05031672270785
C         1.75896636433402    0.00169978319423   -4.78767908875480
F         0.79242812657849   -0.00799384287148   -5.67668296456893
F         2.51049696527004    1.06493385694490   -5.05187924269444
F         2.51202017774530   -1.06721535258024   -5.05258596490928
180
 energy: -586.144853977609 gnorm: 9.663419012735 xtb: 6.4.1 (a3dbbd7)
C        -1.22658262237886    0.00238404887846    3.31860133230676
C        -0.38140345777169   -1.17670843037000    3.31330487039676
C         0.99062657131032   -0.72221668055515    3.30842665741710
C         0.99914083149997    0.73003397422952    3.32202579881170
C        -0.38326618377537    1.17485331272381    3.33426109243308
C         2.33654002941672   -2.59858079450264    0.59337558486914
C         3.17101149979721   -1.41372117156456    0.58995211342105
C         2.94987445911318   -0.68937447260514    1.82206117857350
C         1.95214949535461   -1.42283986117414    2.57813145991934
C         1.58080379697057   -2.60274381485809    1.83267707968311
C         3.19748391475804    1.42749248116637    0.59844799291580
C         2.34310795267792    2.59514168348604    0.60105292195516
C         1.57817997429309    2.60002517380457    1.83238683787141
C         1.96495214267377    1.42873682716358    2.59105612481066
C         2.96179646110545    0.70317781190000    1.83249038244001
C        -0.36864319744173    3.48643359159584    0.59734694020809
C        -1.75153730982411    3.03313851808778    0.59457266970471
C        -1.97411174500672    2.30607108844278    1.82498863877341
C        -0.74764491909092    2.31197237790727    2.59195664481761
C         0.25096041732462    3.02957442901417    1.83330967811506
C        -3.41170657199269    0.71790648303985    0.59124836998359
C        -3.42734078258293   -0.72814925950245    0.59308341954716
C        -2.81120120238942   -1.17316314654343    1.83220641418202
C        -2.41648435256908   -0.00375859762996    2.57867029898872
C        -2.79094407582197    1.16547565174095    1.81658542049555
C        -1.75041595156301   -3.03366404092152    0.59332391964606
C        -0.36979082560053   -3.48482427163652    0.59714941697555
C         0.24815122776164   -3.03123515454557    1.83305377809115
C        -0.74619592630964   -2.31010202399554    2.59076447999559
C        -1.98614630190121   -2.31027080245870    1.83160213418776
C        -0.24612268530532   -3.02585026142761   -1.81948849559859
C         0.74475510747673   -2.29211172458148   -2.58930251981943
C         1.97649604117070   -2.30241724777108   -1.82157681511151
C         1.75010305111376   -3.03572691453896   -0.59847881168315
C         0.36809222691852   -3.48416022071267   -0.59970887649366
C         2.79562651820459   -1.16449079098872   -1.82429961166656
C         2.43006749132399   -0.00003478013337   -2.59342520684231
C         2.80108446481012    1.17563676991317   -1.83108634962494
C         3.41488834002271    0.72780598352670   -0.58756117415697
C         3.39331777821107   -0.71885101551992   -0.58976963141776
C         1.98496582572854    2.30870591724303   -1.82894671882728
C         0.75004140127048    2.31088979269044   -2.59783401603171
C        -0.25374538287862    3.03256749155183   -1.82567117147068
C         0.36733955075555    3.48183365834057   -0.60165208118171
C         1.74347237574654    3.03063526468129   -0.59980695239153
C        -1.57994090678573    2.59968979353467   -1.83074151174472
C        -1.96706495418701    1.42841598695865   -2.58790636963580
C        -2.95814100159997    0.70064384003314   -1.83409866013290
C        -3.18870324729802    1.42742201031685   -0.60120423465153
C        -2.34297603330764    2.60156517024110   -0.59763417796477
C        -2.96599980100167   -0.69982177008311   -1.82801600631095
C        -1.95973069646593   -1.41781447849399   -2.59256166880480
C        -1.58323053096230   -2.59410327000067   -1.82240663172064
C        -2.34652019246444   -2.59928551085966   -0.59420281627819
C        -3.19609355993499   -1.42537520652996   -0.59705552676802
C        -0.99872231564832   -0.72748891623667   -3.33059833383720
C        -1.00028372569945    0.72706070765115   -3.33462127560856
C         0.38121287017244    1.17291719156141   -3.32992327523004
C         1.23384083219080    0.00099131836182   -3.33318375738251
C         0.37924544063225   -1.17516377086550   -3.32988808284637
C        -1.78533772934163   -0.00846120040298    4.71224784178630
F        -0.81418464346891    0.08675320139677    5.73779666216980
F        -2.53268343611952   -1.00392614590775    5.10807830163144
F        -2.41339586137573    1.10251515461233    5.13157627343618
C        -0.54043267202697   -1.68913863340324    4.74074263844362
F        -0.32428283892199   -0.83318234992703    5.72859086943736
F        -1.73627306907940   -2.15997289856799    5.06078658309144
F         0.13586971833924   -2.77805658473829    5.05486941443887
C         1.42666586670070   -1.05380947364937    4.70270802059744
F         0.73691313934052   -0.48565359662485    5.74878874452760
F         1.44846353544309   -2.28997607907348    5.12250041964040
F         2.65618079736663   -0.67111415655618    5.11838263837409
C         1.45195257204635    1.04637980151891    4.74391123373265
F         0.61316797649850    0.56631800134320    5.72219285039990
F         2.67501963033708    0.73178641312518    5.05251188816872
F         1.40053613481192    2.34530312262151    5.05484728176164
C         3.34122839914431   -3.72143890748490    0.82452850454102
F         4.03018738953126   -3.62498518897781    2.01378924351690
F         4.19412846856279   -3.95522533498483   -0.13278927654415
F         2.78731125757674   -4.92317196880171    1.00763447248780
C         4.54087676950719   -2.00500187774585    0.81990905183990
F         4.71304251594544   -2.83144124056866    1.90817116285287
F         5.04949260161976   -2.85091878031416   -0.05165361789605
F         5.58590525715837   -1.20317319736038    0.98262146775659