63
 energy: -142.083174992639 gnorm: 0.137569442732 xtb: 6.4.1 (a3dbbd7)
C        -1.29585809763920    0.00401118881931    3.54517689231029
C        -0.36796043466059   -1.17243305044266    3.30515820987539
C         0.98298838984909   -0.72191219210780    3.27512267957929
C         0.98156472691728    0.71960753564614    3.26971969840148
C        -0.37066843430553    1.17924059866277    3.30150764324135
C         2.33648296598357   -2.58548060321166    0.57950289371033
C         3.18657767566203   -1.41946403917212    0.57781419536533
C         2.94957050634668   -0.69854930588343    1.80123308089156
C         1.95308396825138   -1.41752165469557    2.55613481597303
C         1.57961582984989   -2.57968580834158    1.80518673258983
C         3.18767024138397    1.40991878537575    0.57593180017933
C         2.33807592119235    2.57402574463448    0.57591940987423
C         1.57683795447400    2.56605672116665    1.79975339077111
C         1.95304946478205    1.40835201085528    2.55205927541471
C         2.95072023090319    0.68875745027160    1.80098024590342
C        -0.36516779392141    3.42666371311492    0.57921714402649
C        -1.72924376731069    3.01648005687427    0.58287705229366
C        -2.09463355901587    2.46231282969886    1.94730853737491
C        -0.73027134368917    2.28553619224850    2.58224921046650
C         0.24829448370074    2.97593693088527    1.80334175247540
C        -3.37466967439567    0.70300551329579    0.57574930039426
C        -3.39003092771629   -0.73268815670587    0.56838248256510
C        -2.76818811346571   -1.16356142396752    1.78871572205038
C        -2.38904763717889    0.02437925858140    2.53264263708558
C        -2.74834472581071    1.12995086235998    1.81420011509538
C        -1.73481952354600   -3.00995345707075    0.57938225067925
C        -0.36149853487188   -3.44686666226009    0.58178847329193
C         0.25217194576597   -2.99475012297255    1.80551622011247
C        -0.72930832450935   -2.27346636848304    2.56467955460776
C        -1.97147545437730   -2.28746259180062    1.79868366143107
C        -0.24419850633136   -3.01431906314620   -1.82647673825261
C         0.74940205395547   -2.29291975806330   -2.58286291039202
C         1.97453700920709   -2.29239152825096   -1.82543977569151
C         1.74139873391846   -3.01127177396538   -0.59946235539016
C         0.36858334361035   -3.45436466601281   -0.59762914030018
C         2.79442417375665   -1.17031401238235   -1.82833550582627
C         2.41574661868216   -0.00512369138436   -2.58546959698227
C         2.79806943058290    1.16104826437995   -1.83045397159780
C         3.41356646756867    0.71553904959985   -0.60565027126811
C         3.41126633543504   -0.72579612437446   -0.60436594375932
C         1.98256115237360    2.28538932475628   -1.82964816243890
C         0.75350030248264    2.28551308222168   -2.58573232043658
C        -0.23508280223273    3.00436687434747   -1.82344140510130
C         0.37359850933878    3.44286488634390   -0.60220138875814
C         1.74684322375821    3.00246743965493   -0.60372642363152
C        -1.55566653240424    2.56818250404503   -1.80941223602174
C        -1.93859434660526    1.40592010808590   -2.57168095899201
C        -2.93551210472019    0.68461262540438   -1.82146846795257
C        -3.16898901543324    1.39767486955451   -0.59605965569985
C        -2.30435127708354    2.57332623889815   -0.58497549494069
C        -2.94114405324375   -0.70773319319533   -1.83440725651199
C        -1.94505174587464   -1.42387954866205   -2.59102123509086
C        -1.56548890453788   -2.59170746569988   -1.83211639417485
C        -2.32839595521473   -2.59312664308342   -0.60918315809929
C        -3.17773883520354   -1.43218193780650   -0.61434027481289
C        -0.98775846768414   -0.72638522805960   -3.31322849835342
C        -0.98659864734294    0.71557045446948   -3.30737103344774
C         0.38544609972999    1.16109326157285   -3.31071431262535
C         1.23106807690940   -0.00470839623161   -3.31198800118088
C         0.38446650877846   -1.17000629315169   -3.31255499434049
Cl       -1.95494402211016   -0.00808767691631    5.23350834623694
Cl       -3.13453400293270    3.62205440046694    2.87428256889563
Cl       -2.94813304994200   -2.15791722204640   -3.90674027481135
63
 energy: -142.107223107496 gnorm: 0.059198846428 xtb: 6.4.1 (a3dbbd7)
C        -1.29519163373996    0.00445227539826    3.54883928587494
C        -0.36723533007167   -1.17160067640125    3.30809706782595
C         0.98343562284951   -0.72094857110829    3.27710966871821
C         0.98194335395532    0.71976975511275    3.27148084966217
C        -0.37034029968904    1.17938526318078    3.30305453768247
C         2.33676595978802   -2.58463332352339    0.58128067978935
C         3.18752903654496   -1.41931172313553    0.57891358987744
C         2.94981905986544   -0.69814505748712    1.80146353167603
C         1.95336330131507   -1.41702601862544    2.55714643084734
C         1.58023694220792   -2.57930832281863    1.80756201716452
C         3.18866639947561    1.41060369882024    0.57670878637097
C         2.33894004235150    2.57469382103043    0.57673879330428
C         1.57706542274538    2.56590029216519    1.80050342026308
C         1.95339010637132    1.40849146911904    2.55223012472682
C         2.95099169090285    0.68918072556526    1.80163399793312
C        -0.36508739886239    3.42690699969950    0.58049610641108
C        -1.72902420398793    3.01640657523302    0.58444577787715
C        -2.09452042087276    2.46275136195057    1.94914372354902
C        -0.73008338677857    2.28544832378354    2.58349983232441
C         0.24836012431978    2.97579100923713    1.80396016105994
C        -3.37841036973200    0.70463792950094    0.58304010862708
C        -3.39212732644450   -0.72811438402718    0.57653325266852
C        -2.76785226757515   -1.16230204222200    1.79453101998329
C        -2.38876272364822    0.02454514478577    2.53761538267996
C        -2.74818818523857    1.13033706475538    1.81841019900026
C        -1.73177372395383   -3.01270187410486    0.58766980419518
C        -0.36089454544363   -3.45040950686035    0.58894776446956
C         0.25298896819085   -2.99527183416984    1.81027811283907
C        -0.72846168512975   -2.27359790724417    2.56939783034206
C        -1.97023551721064   -2.28718052213532    1.80374207668019
C        -0.24129588137686   -3.00741503306833   -1.81377622553009
C         0.75264929792782   -2.28930618009633   -2.57946884500927
C         1.97405130694083   -2.29037846131409   -1.82399389868872
C         1.74130789955964   -3.01033699355107   -0.59694873386332
C         0.37080560668176   -3.45726858309841   -0.59122294685394
C         2.79831484805596   -1.16810773647928   -1.82765135302294
C         2.42326649071740   -0.00086336402973   -2.58564350881992
C         2.80303521360692    1.16451446284777   -1.82930826003812
C         3.41591626608624    0.71682312782153   -0.60439801117208
C         3.41275603965510   -0.72501820456682   -0.60423122757931
C         1.98746090155915    2.28901525463944   -1.82849165250509
C         0.76021271648571    2.29130159855222   -2.58595176500574
C        -0.23171072790947    3.00620981688405   -1.82243097003671
C         0.37468347432656    3.44359100404319   -0.60179212695619
C         1.74875173028930    3.00425470107111   -0.60231786668287
C        -1.55402627028577    2.56659312580862   -1.80865238636159
C        -1.93379691187175    1.40824236388155   -2.56919728870396
C        -2.92814684261280    0.68516952252901   -1.80901771963410
C        -3.17114540727188    1.40091336870653   -0.59005049915098
C        -2.30426277679914    2.57279706985361   -0.58287507662003
C        -2.94142098653084   -0.70065806734751   -1.81959999448615
C        -2.00648753248359   -1.46863081749026   -2.66919576931764
C        -1.55908104617230   -2.59288722110006   -1.81664772496963
C        -2.31933798867812   -2.58685808289093   -0.60267619806383
C        -3.16990716241978   -1.42469243917237   -0.60779661585351
C        -0.97297402151541   -0.71578045227749   -3.33301882920445
C        -0.97348573322224    0.71619751450668   -3.30111667959278
C         0.39740992964715    1.16845465734648   -3.31245173601167
C         1.24212780196095    0.00404578563013   -3.31382875061386
C         0.38896656769262   -1.15816783792213   -3.30601560556402
Cl       -1.95344233513540   -0.00811023859269    5.23722481005689
Cl       -3.13434372993888    3.62280916572188    2.87525016456788
Cl       -3.03434401963508   -2.22137365557627   -4.01161280685500
63
 energy: -142.113175395581 gnorm: 0.013508456036 xtb: 6.4.1 (a3dbbd7)
C        -1.29347352966692    0.00580069831518    3.55325530605464
C        -0.36546319366860   -1.17014790114997    3.31228902497853
C         0.98485194374456   -0.71918269346382    3.28057439735442
C         0.98339379498185    0.72100144222463    3.27471517752005
C        -0.36890229298882    1.18076586754724    3.30650900772470
C         2.33752832101587   -2.58257049318473    0.58349154441285
C         3.18913181010548   -1.41780701350388    0.58154420928790
C         2.95096126368573   -0.69650859068472    1.80329272391959
C         1.95432746578782   -1.41553607933525    2.55921352937635
C         1.58170690879968   -2.57822231920813    1.81080271862069
C         3.19089888273918    1.41224854443340    0.57908214674826
C         2.34096170109198    2.57625380629460    0.57909251941907
C         1.57865513928399    2.56679115477221    1.80303346371228
C         1.95477930254206    1.40967168668942    2.55414052456451
C         2.95247107182829    0.69080754494011    1.80412875960306
C        -0.36339930394966    3.42765296765681    0.58328337299167
C        -1.72706876969207    3.01589912014075    0.58652058909077
C        -2.09345656990470    2.46376864315574    1.95212847203450
C        -0.72885363975267    2.28639276962774    2.58633914200913
C         0.24978590284470    2.97638105023582    1.80608786150055
C        -3.37494078493377    0.70372488654236    0.58690297028990
C        -3.38912340918198   -0.72538440599646    0.57815099208267
C        -2.76561412812524   -1.16012722494733    1.79724263553851
C        -2.38696982478808    0.02512857279216    2.54177423999314
C        -2.74778041110160    1.13135858345544    1.82279465120894
C        -1.72795393574987   -3.00943252795253    0.58943718752334
C        -0.36021723523825   -3.44678485603362    0.59273848297215
C         0.25457083070154   -2.99509514087081    1.81479282097357
C        -0.72696924869705   -2.27224481922027    2.57343754308294
C        -1.96754134075198   -2.28501415364850    1.80577070108320
C        -0.24572996773015   -3.00279914466539   -1.81182665330469
C         0.75370960013870   -2.28941257312168   -2.57982295307387
C         1.97130336176414   -2.28643417620396   -1.82266797501030
C         1.74053749225180   -3.00618197703086   -0.59461833953010
C         0.36932980415977   -3.44897316031301   -0.58909003366305
C         2.80127378923959   -1.16576504712372   -1.82518559064099
C         2.42574336129236    0.00182859652858   -2.58261332077771
C         2.80768611354013    1.16757797511662   -1.82742975005431
C         3.41906312659442    0.71906690011905   -0.60189402416084
C         3.41420234963514   -0.72338312087536   -0.60254627018686
C         1.99184588269028    2.29242233790196   -1.82669305095234
C         0.76373840301090    2.29263788326809   -2.58285776387791
C        -0.22863498613747    3.00751183203529   -1.81968231911489
C         0.37651692498711    3.44420715485291   -0.59985130648303
C         1.75167074950380    3.00643624187718   -0.59971121659590
C        -1.55137435577633    2.56273789436192   -1.80788432497227
C        -1.93319767693322    1.40964548403764   -2.57013146651222
C        -2.92435636891065    0.67926341598660   -1.80671400164222
C        -3.16357491922966    1.39716785511132   -0.58805569609598
C        -2.30119552787713    2.57083322727229   -0.58074613788385
C        -2.94578362511883   -0.70129678005369   -1.82052572684517
C        -2.06210519401738   -1.50941114797974   -2.73582186201539
C        -1.56131152927213   -2.59679746062324   -1.81757216332778
C        -2.30946523602258   -2.57943666365596   -0.60594745725964
C        -3.16079121355913   -1.41744557643619   -0.61092134852923
C        -0.96826573956545   -0.71252734154469   -3.33161506904153
C        -0.97064809822518    0.70905649753858   -3.29419376862156
C         0.40041537859898    1.16881386804314   -3.30728379213441
C         1.24376729420331    0.00649831111518   -3.30873655018243
C         0.38294783669098   -1.15356191536572   -3.29889065779626
Cl       -1.94988928882005   -0.00754247448034    5.24218295659279
Cl       -3.13314356241100    3.62515548927858    2.87643059552610
Cl       -3.09276716981781   -2.26565240785051   -4.09408184122331
63
 energy: -142.113478967576 gnorm: 0.008106413473 xtb: 6.4.1 (a3dbbd7)
C        -1.29274066229459    0.00641895589177    3.55543977549834
C        -0.36453189314303   -1.16960907973012    3.31439282020786
C         0.98579334935902   -0.71848024886396    3.28272503024847
C         0.98436928637027    0.72170607702092    3.27664552068199
C        -0.36801301872058    1.18140447012758    3.30839548641171
C         2.33734037898277   -2.58105055363200    0.58432407012110
C         3.18983210850388   -1.41695765771456    0.58302699575014
C         2.95173917388083   -0.69566378242563    1.80470003016321
C         1.95513243621122   -1.41478517112774    2.56081397070939
C         1.58228203938323   -2.57716389952480    1.81217824037979
C         3.19197301556064    1.41306968778652    0.58040366143191
C         2.34186505888190    2.57714301400811    0.58037474242102
C         1.57956577697829    2.56751347254109    1.80456915423520
C         1.95564558174410    1.41040988142823    2.55558294123144
C         2.95342997847817    0.69169802657271    1.80568740967118
C        -0.36260918898464    3.42792870650138    0.58472771899850
C        -1.72587651061061    3.01479633280459    0.58720485324742
C        -2.09254573450811    2.46409059159588    1.95339302337582
C        -0.72801717893564    2.28686694280355    2.58793670744013
C         0.25059440606330    2.97693148412880    1.80750660926727
C        -3.37221350755465    0.70278604512072    0.58705971932540
C        -3.38598571881026   -0.72541181641075    0.57677181635529
C        -2.76364065234609   -1.15889655255466    1.79709559890178
C        -2.38606739509868    0.02565631944693    2.54316935077308
C        -2.74726159528087    1.13188133129219    1.82412492620297
C        -1.72676427164437   -3.00620621682593    0.58808934522863
C        -0.36004072244032   -3.44377968790585    0.59289696444309
C         0.25531598784901   -2.99435722373141    1.81604519767987
C        -0.72614015390740   -2.27137177930635    2.57469927591352
C        -1.96576688404358   -2.28334126197349    1.80541160215140
C        -0.24870810597164   -3.00352792078044   -1.81503506974724
C         0.75432178946341   -2.29112218231263   -2.58126056000118
C         1.97041207484798   -2.28499688365984   -1.82243125938310
C         1.73923572147327   -3.00311688876796   -0.59390956272172
C         0.36742526146535   -3.44378146632495   -0.58966551954781
C         2.80184106374338   -1.16508306945372   -1.82376284223288
C         2.42518912275027    0.00238445407379   -2.58073286635550
C         2.80864133648168    1.16829773407408   -1.82635084404060
C         3.42022423070441    0.71993962999483   -0.60064496103970
C         3.41460385076309   -0.72273475667642   -0.60136538428317
C         1.99266053786636    2.29319572188690   -1.82567373396418
C         0.76397107419424    2.29192010015383   -2.58101210815969
C        -0.22805057282201    3.00766838761079   -1.81827301219671
C         0.37700282626911    3.44430388011691   -0.59866438198669
C         1.75262180172190    3.00733294533396   -0.59847329848507
C        -1.55056360742207    2.56147018667099   -1.80786163376382
C        -1.93464804663962    1.41068759824469   -2.57167928621852
C        -2.92585359201296    0.67642879839569   -1.80989061412639
C        -3.15947900510544    1.39369222422752   -0.58877818898695
C        -2.29908687289053    2.56854338420478   -0.58019307992140
C        -2.95150574168676   -0.70470592260135   -1.82769008821793
C        -2.07628874901145   -1.51992229320734   -2.75093825278023
C        -1.56624810176742   -2.60145178732393   -1.82479706172627
C        -2.30760018104996   -2.57821824288905   -0.60954348632480
C        -3.15904609225709   -1.41619248291030   -0.61442140850867
C        -0.97048784135932   -0.71420562873947   -3.32792614009178
C        -0.97295499064941    0.70556791334644   -3.29328644369180
C         0.39918671764683    1.16729169825554   -3.30378536414170
C         1.24201186118934    0.00582244078435   -3.30517869419047
C         0.37897032065052   -1.15467494629656   -3.29791045534937
Cl       -1.94676247214422   -0.00632663404574    5.24535404400511
Cl       -3.13083639619984    3.62737320881436    2.87679488807994
Cl       -3.09904898232583   -2.27125649079910   -4.11083805208589
63
 energy: -142.113577386290 gnorm: 0.004687305432 xtb: 6.4.1 (a3dbbd7)
C        -1.29267088994965    0.00647493301196    3.55640953187611
C        -0.36424816614487   -1.16971093359889    3.31541198559407
C         0.98608345189106   -0.71842971328674    3.28365981688464
C         0.98458551040274    0.72180155290972    3.27725346413159
C        -0.36782903845452    1.18145792784597    3.30884262138548
C         2.33726481522578   -2.58061909747299    0.58460116328015
C         3.19014146694977   -1.41681631319223    0.58358424871483
C         2.95202114486933   -0.69550236664749    1.80521914285269
C         1.95551134897840   -1.41467129493260    2.56157035920775
C         1.58255222354587   -2.57679066473503    1.81273665599609
C         3.19217219720831    1.41321363640374    0.58066051306472
C         2.34195024331850    2.57738493403040    0.58061791815328
C         1.57968256078585    2.56768504839300    1.80496976377751
C         1.95572238212554    1.41051094257904    2.55587339288007
C         2.95363147254929    0.69188790322793    1.80611310983071
C        -0.36253733268066    3.42825645279632    0.58526963412661
C        -1.72563075889643    3.01441756039810    0.58739259320320
C        -2.09236358114616    2.46431706242305    1.95384165207364
C        -0.72782489047082    2.28690470018405    2.58836817045154
C         0.25070676614722    2.97721559431443    1.80798237996684
C        -3.37097822982051    0.70250048084901    0.58716030096474
C        -3.38363821161018   -0.72547982384333    0.57604234386757
C        -2.76246597700825   -1.15824215709762    1.79698176915146
C        -2.38610194016919    0.02602739762581    2.54398359152019
C        -2.74738969744298    1.13235159512648    1.82500807209483
C        -1.72598902905245   -3.00413208022701    0.58735836267970
C        -0.35980570480684   -3.44254615264551    0.59292921787208
C         0.25580872221540   -2.99431285781285    1.81671265876474
C        -0.72570427130762   -2.27137334012187    2.57531838566423
C        -1.96472764045036   -2.28249987310160    1.80517204115385
C        -0.24992178066724   -3.00395513534842   -1.81669979086764
C         0.75540148322590   -2.29267898856495   -2.58214864530024
C         1.97045480435222   -2.28481500264307   -1.82254278050516
C         1.73845167307076   -3.00156400096769   -0.59364518379403
C         0.36628957855301   -3.44116551373179   -0.58999199651786
C         2.80222072227657   -1.16511997392538   -1.82321168311451
C         2.42471767096275    0.00242365990886   -2.58000776551967
C         2.80866793461402    1.16835617584019   -1.82606990355026
C         3.42057203275382    0.72009587983043   -0.60036905660818
C         3.41472395671408   -0.72273411322916   -0.60099833706747
C         1.99258187580229    2.29331311749280   -1.82541629108751
C         0.76373208601392    2.29151769758139   -2.58029053283344
C        -0.22813681505048    3.00801864301670   -1.81771078784328
C         0.37688596517957    3.44446828035588   -0.59827474742104
C         1.75273445959354    3.00771813210332   -0.59818963139820
C        -1.55055420500370    2.56149405147731   -1.80801605969827
C        -1.93585813597996    1.41212632247348   -2.57253187463508
C        -2.92673614678308    0.67528645171083   -1.81160099867209
C        -3.15749601949183    1.39168980764772   -0.58917332525672
C        -2.29810376902304    2.56724450708901   -0.57998613579300
C        -2.95435738740559   -0.70653568688244   -1.83195760382139
C        -2.08235343165618   -1.52445346317794   -2.75700003582326
C        -1.56878439337354   -2.60379098318923   -1.82911052515970
C        -2.30618726918809   -2.57739380902544   -0.61121803005690
C        -3.15760672550588   -1.41523619420811   -0.61602760394634
C        -0.97194677147366   -0.71527184129965   -3.32367519268691
C        -0.97483553257629    0.70369189011304   -3.29255457517192
C         0.39819041153764    1.16622868524511   -3.30153617576220
C         1.24068403370793    0.00529271715557   -3.30290013687538
C         0.37663251363235   -1.15581986155993   -3.29718238529993
Cl       -1.94522761852424   -0.00546392606986    5.24684926322630
Cl       -3.12904202118991    3.62924196349528    2.87686734311466
Cl       -3.09590839606046   -2.26966142537270   -4.11515583915756
63
 energy: -142.113617612619 gnorm: 0.002427268123 xtb: 6.4.1 (a3dbbd7)
C        -1.29282671498269    0.00638834832897    3.55651260946999
C        -0.36433116982792   -1.16992907882926    3.31557233215624
C         0.98598883392412   -0.71858131500175    3.28368921592940
C         0.98448072734877    0.72166958415391    3.27708836156354
C        -0.36790611749333    1.18134090819373    3.30859453349188
C         2.33726731795427   -2.58085812828701    0.58454295251644
C         3.19012748051463   -1.41701176140341    0.58351075332939
C         2.95195278710816   -0.69564360428421    1.80510090890769
C         1.95550687738480   -1.41480875307900    2.56160208876799
C         1.58253224065226   -2.57684405441970    1.81274956800609
C         3.19194239109274    1.41305436927043    0.58035060450848
C         2.34168880290900    2.57726158944330    0.58031364603514
C         1.57945817410649    2.56754844652061    1.80471280814401
C         1.95551079279395    1.41035556457979    2.55554858003067
C         2.95344745456890    0.69174803993440    1.80586109029409
C        -0.36281005086046    3.42842696817462    0.58521119220988
C        -1.72593343215007    3.01445109866278    0.58732622839782
C        -2.09254661257432    2.46436000717916    1.95385525427543
C        -0.72791583455953    2.28677962172490    2.58820660286387
C         0.25051686799203    2.97723891156339    1.80783613260874
C        -3.37094164218800    0.70257072304271    0.58731576835994
C        -3.38274934256460   -0.72554748079661    0.57594539220210
C        -2.76215342055184   -1.15807814016012    1.79696084879225
C        -2.38644637133418    0.02614306887872    2.54423290250356
C        -2.74777290305584    1.13258208690516    1.82540861933899
C        -1.72576134234127   -3.00347505491144    0.58728144027422
C        -0.35969497674643   -3.44259216535305    0.59302212834174
C         0.25594860777722   -2.99462443664363    1.81698244880605
C        -0.72563915751739   -2.27169316790685    2.57548664498645
C        -1.96445847861916   -2.28236585164702    1.80514256525928
C        -0.25004455321128   -3.00391654321880   -1.81680898111056
C         0.75617539405932   -2.29352799728836   -2.58237999548934
C         1.97076913821238   -2.28528992591328   -1.82276327578564
C         1.73821758940391   -3.00139916467989   -0.59364886270984
C         0.36586951769103   -3.44064358574386   -0.59000832775448
C         2.80240228604899   -1.16545890457181   -1.82325235763761
C         2.42454572154333    0.00224915636537   -2.58010427213337
C         2.80834538896810    1.16815371517222   -1.82625412224302
C         3.42043228156034    0.71993271131689   -0.60061010426778
C         3.41464070837640   -0.72298310509647   -0.60116905389018
C         1.99220322354383    2.29314246305802   -1.82559342383880
C         0.76342766982896    2.29145878668018   -2.58036618133984
C        -0.22848900056111    3.00831757039448   -1.81773787340164
C         0.37654568272067    3.44453838295292   -0.59841455210315
C         1.75246776512054    3.00771189283494   -0.59841030856934
C        -1.55097928740470    2.56195244021516   -1.80821444435290
C        -1.93646765161235    1.41308063758239   -2.57271258896569
C        -2.92684890531740    0.67512114387514   -1.81176744659542
C        -3.15717910243128    1.39102800429340   -0.58920934549281
C        -2.29810946266730    2.56690104497618   -0.57998318515668
C        -2.95467432016201   -0.70689963097881   -1.83297975859428
C        -2.08404868883117   -1.52574922621022   -2.75881518858570
C        -1.56918132701426   -2.60407976103140   -1.83014481328095
C        -2.30535178176218   -2.57691075105877   -0.61139179722311
C        -3.15674664373336   -1.41465403300323   -0.61619092518765
C        -0.97225493404459   -0.71549261051819   -3.32040290543506
C        -0.97558865461587    0.70303100619740   -3.29182501679954
C         0.39782316894331    1.16581208023847   -3.30076058654703
C         1.24015625889878    0.00513632338932   -3.30212710461089
C         0.37578717339807   -1.15629083405453   -3.29647124282131
Cl       -1.94474404056306   -0.00508352979880    5.24709434861605
Cl       -3.12816709929563    3.63018838215352    2.87686675341337
Cl       -3.08960157401194   -2.26541336561866   -4.11383944619643
63
 energy: -142.113629281883 gnorm: 0.001299480826 xtb: 6.4.1 (a3dbbd7)
C        -1.29290074367825    0.00634520632204    3.55627518391432
C        -0.36444524236852   -1.16998852619332    3.31533404492313
C         0.98585820117078   -0.71866327320438    3.28338519297168
C         0.98438023847179    0.72157605692815    3.27678894336338
C        -0.36797338674044    1.18127352220619    3.30829971351143
C         2.33728148400412   -2.58115531547685    0.58440346574557
C         3.19000498378791   -1.41718219780215    0.58325349523148
C         2.95181060944049   -0.69576546510282    1.80481061071825
C         1.95537930678398   -1.41490964191246    2.56133475376460
C         1.58241540705437   -2.57699111153544    1.81257240024230
C         3.19172290054420    1.41291484246618    0.58003627260000
C         2.34149313462527    2.57709319159216    0.58000908530057
C         1.57928454903864    2.56740727279773    1.80439099071518
C         1.95537587064548    1.41024868761063    2.55523101060616
C         2.95326753928113    0.69161439422635    1.80553073390350
C        -0.36301628379716    3.42839822747822    0.58496163759789
C        -1.72621961061016    3.01456239964156    0.58721246871268
C        -2.09271968899237    2.46429266099407    1.95373143086699
C        -0.72801568662551    2.28669104742319    2.58795468638357
C         0.25036598017973    2.97714815829538    1.80754405317004
C        -3.37136064452276    0.70269468049711    0.58743236080773
C        -3.38307676706676   -0.72558578463576    0.57617263691867
C        -2.76235706836001   -1.15819395320936    1.79701257566593
C        -2.38659470375690    0.02607088455511    2.54411792966351
C        -2.74797104652753    1.13255357564689    1.82538190965150
C        -1.72592630599530   -3.00381537391846    0.58751725441673
C        -0.35973411623963   -3.44304152865151    0.59311100965382
C         0.25585369257094   -2.99483415163241    1.81696128442756
C        -0.72574098701108   -2.27186437450339    2.57541418014131
C        -1.96464523230538   -2.28256910685749    1.80524113508090
C        -0.24981894252284   -3.00380598039064   -1.81627341080814
C         0.75623738886825   -2.29359658590894   -2.58221248477926
C         1.97089715171442   -2.28572377801673   -1.82288152019387
C         1.73833494029686   -3.00189818172249   -0.59373634115912
C         0.36594635385092   -3.44120139003911   -0.58988515886679
C         2.80236497193448   -1.16569746090731   -1.82348269542701
C         2.42458436927786    0.00208641131520   -2.58043613981674
C         2.80812630296552    1.16799630067559   -1.82650269430512
C         3.42019230335897    0.71977766494467   -0.60088226841736
C         3.41451013310670   -0.72314871484344   -0.60144515232443
C         1.99198254782102    2.29298588901275   -1.82582885622095
C         0.76327930768649    2.29155312743590   -2.58068706003849
C        -0.22872522386359    3.00837158449422   -1.81797668147652
C         0.37634512863632    3.44448139064672   -0.59868293777313
C         1.75224708789258    3.00754209376192   -0.59867411356196
C        -1.55133931179240    2.56220553100525   -1.80832026545822
C        -1.93651726268208    1.41316605710293   -2.57254273857175
C        -2.92669596385485    0.67532443822508   -1.81125352310810
C        -3.15766007677814    1.39124800667569   -0.58907486645138
C        -2.29852448754303    2.56714492075967   -0.58005535022613
C        -2.95399808855136   -0.70653952870874   -1.83209805959682
C        -2.08367533372833   -1.52547820147606   -2.75870638463042
C        -1.56863710710954   -2.60354407702220   -1.82925028693358
C        -2.30535361222166   -2.57691964578885   -0.61092345659706
C        -3.15677026935206   -1.41463399993216   -0.61574093020093
C        -0.97187399429112   -0.71521096549222   -3.31933132825627
C        -0.97539961116016    0.70319976730590   -3.29145967983841
C         0.39793525620944    1.16589699666167   -3.30108291854765
C         1.24026896884310    0.00521951963165   -3.30245912716064
C         0.37600360219605   -1.15616251144741   -3.29610711637493
Cl       -1.94488455302135   -0.00510377987074    5.24675160750106
Cl       -3.12822030030772    3.63014709385482    2.87686840610751