63
 energy: -142.064314746620 gnorm: 0.137512142142 xtb: 6.4.1 (a3dbbd7)
C        -1.32333194775417    0.00617886347970    3.59125188963251
C        -0.38909456310608   -1.27772716531095    3.58793274117145
C         0.98734837171535   -0.72675165446744    3.28582848483634
C         0.97037352147027    0.69420630050098    3.25749094477592
C        -0.37633960723915    1.14742685553706    3.29074190055216
C         2.33092254703306   -2.58746567485154    0.56610397604514
C         3.16875994483946   -1.41579758165486    0.56774606192583
C         2.91978889080344   -0.69314490348597    1.79074016083681
C         1.93018806170321   -1.40549148670748    2.54814074589443
C         1.57476788296703   -2.59634073810083    1.79100274817011
C         3.18328087896891    1.41909085132624    0.57258499213333
C         2.33432229320876    2.58580968143883    0.57559918777772
C         1.57332139543398    2.57095369604789    1.79851755002390
C         1.94352282881158    1.40414426944103    2.54285112768194
C         2.93804115459266    0.69543633516321    1.79366637265872
C        -0.36752716666001    3.44413435035873    0.58029879258012
C        -1.74013210357057    3.00741588983283    0.58054459941955
C        -1.97818665379860    2.28654468588757    1.80361199533287
C        -0.73393250395930    2.25581684802015    2.55761528373596
C         0.24647420110131    2.98080949443068    1.80023381740862
C        -3.39591089216029    0.72883802558845    0.57533866561121
C        -3.37932885665645   -0.70504006359254    0.57786353554246
C        -2.74934612856665   -1.12865052488571    1.82052481704193
C        -2.40026274086307   -0.01382700939334    2.55826017594831
C        -2.77435746218519    1.16021035149421    1.80187148511327
C        -1.70577977915925   -3.00504292266898    0.57191390059864
C        -0.34657433486683   -3.46193150719564    0.56452064530943
C         0.25810980605866   -3.00738238851431    1.79111395103090
C        -0.74203335365356   -2.29289841924391    2.55243835495534
C        -1.91196172287597   -2.27950749485726    1.81757326885181
C        -0.23558165862281   -3.01371296632646   -1.83961821271520
C         0.75175047781152   -2.28700579367404   -2.59867644532734
C         1.98089777627659   -2.28868303835222   -1.84308617931945
C         1.74918768154887   -3.01946296828987   -0.62050040464920
C         0.38088379041600   -3.46658963937948   -0.62079308111870
C         2.79204993046375   -1.16413556659148   -1.83875967224219
C         2.41002754086118    0.00666527739579   -2.59106683151125
C         2.78807241943814    1.16926264052202   -1.83130610074559
C         3.40298548527550    0.72369088805355   -0.60835037131266
C         3.40110069057525   -0.71955382898331   -0.60923004493565
C         1.96912615256614    2.29475463280888   -1.82840259178522
C         0.74474441569639    2.29528025280401   -2.58515694980539
C        -0.24988429155059    3.01642431380723   -1.82795956514323
C         0.36353023978106    3.45499162487799   -0.59844520421847
C         1.73735095077191    3.01278425815446   -0.60243935985793
C        -1.56944867307335    2.59059487249377   -1.83048045584010
C        -1.94787757007795    1.42311330884846   -2.58910001301826
C        -2.94122296022124    0.70465889669871   -1.83002690890673
C        -3.17947337159538    1.42642572884929   -0.60816005298080
C        -2.33307692209202    2.59081264516620   -0.60600270171083
C        -2.93172079240255   -0.68656028280689   -1.82266620418654
C        -1.94059925011627   -1.40887980593779   -2.58138532694875
C        -1.55636984787224   -2.57670213587000   -1.82754179967090
C        -2.29848528094837   -2.57416283302738   -0.59738768824741
C        -3.15456863482430   -1.39758782868201   -0.59434922362650
C        -0.98936986995949   -0.71482485845558   -3.31408037280858
C        -0.99159024528376    0.72723605185279   -3.31429029098428
C         0.38014149579772    1.17201579903766   -3.31523274930469
C         1.22728121177112    0.00778684511203   -3.31823795360647
C         0.38205649969615   -1.16057927312445   -3.31917058806611
Cl       -2.09995733548554    0.29360223981566    5.20530702406437
Cl       -0.35034641589922   -2.11046483688082    5.19906768498811
Cl        5.14697895818516   -1.08174246660399   -0.92040277103145
63
 energy: -142.088294583215 gnorm: 0.059553978900 xtb: 6.4.1 (a3dbbd7)
C        -1.32562948830043    0.00626182146591    3.59266031512903
C        -0.39423119730624   -1.27898529392873    3.59149782535401
C         0.98182425604500   -0.72839521481562    3.29228139761446
C         0.96691827843025    0.69297763292742    3.26059948299314
C        -0.37719017684563    1.14616812961546    3.29186841253610
C         2.32025403394739   -2.58103498406500    0.57484400810378
C         3.17183912944502   -1.43024251071082    0.58947715491545
C         2.90569846620912   -0.69815496760232    1.79064380501921
C         1.92177107706821   -1.41124783729997    2.55782785394287
C         1.56713391546126   -2.60070747633694    1.80281044457437
C         3.16916291953302    1.42164767555696    0.56865062404506
C         2.33085624183565    2.59241577764895    0.57390635165767
C         1.57105250836247    2.57105916754857    1.79651686300533
C         1.94208127183809    1.40263208461677    2.54172943491954
C         2.93103986055449    0.69507615397355    1.79471704752982
C        -0.36909675622228    3.44557001358163    0.57954886728431
C        -1.74034249574358    3.00773876756546    0.58047680707786
C        -1.97785535487892    2.28637712090180    1.80449974048119
C        -0.73532928498797    2.25624045353311    2.55766108097744
C         0.24502423130401    2.98091367452090    1.79902932485954
C        -3.39604615089927    0.72872778095589    0.57606186058922
C        -3.37971493322792   -0.70500364026603    0.57824251244836
C        -2.75164302461498   -1.12932290707000    1.82153251438391
C        -2.40150554583913   -0.01400941260229    2.55874438010557
C        -2.77484896169925    1.15981499354004    1.80228619594108
C        -1.70732964533007   -3.00571501347658    0.57329695591120
C        -0.35012987931984   -3.46357955162520    0.56804630705573
C         0.25152928159732   -3.01122720208509    1.79722694146123
C        -0.74734714391926   -2.29444627914656    2.55623984101146
C        -1.91586146996108   -2.28026431431148    1.81942758055594
C        -0.23681923280655   -3.01167770307659   -1.83950405256735
C         0.74695763957466   -2.28653280133019   -2.60369631295720
C         1.96883338494081   -2.28000172018959   -1.84257914794278
C         1.74326112648594   -3.01754408272140   -0.61711102435199
C         0.38014961442703   -3.46485004934526   -0.61930533103857
C         2.77666384727440   -1.16108892510512   -1.84541499530319
C         2.39867833568243    0.00751655725812   -2.58763700523425
C         2.77730452756997    1.17133592600384   -1.82749601249820
C         3.39064919499168    0.73548249248898   -0.60975545088338
C         3.50610741889859   -0.73961004915799   -0.62979754317357
C         1.96381009670966    2.30241592786472   -1.82997660129237
C         0.74060567430945    2.29860326853813   -2.58737451347496
C        -0.25326169104499    3.01962887940724   -1.82947500574131
C         0.36069519770035    3.45876519170627   -0.60041663813219
C         1.73433211779324    3.02035340003707   -0.60586908939858
C        -1.57191922136605    2.59199149868789   -1.83075015514049
C        -1.95058561977043    1.42427168727061   -2.58937003421792
C        -2.94272060014996    0.70554810464667   -1.82975728841162
C        -3.18031875843847    1.42676711593716   -0.60805416937405
C        -2.33421326946948    2.59126244712739   -0.60590277112935
C        -2.93252404840850   -0.68629670693063   -1.82269406976984
C        -1.94221465221655   -1.40773976129475   -2.58160317128352
C        -1.55700561948201   -2.57537019364229   -1.82718651672226
C        -2.29934957990852   -2.57395558945885   -0.59688020062280
C        -3.15461796711225   -1.39760496278460   -0.59390335983873
C        -0.99291208275875   -0.71308379915535   -3.31657247888709
C        -0.99553064008382    0.72921774899062   -3.31654875608627
C         0.37549252500173    1.17469953184769   -3.31799755237923
C         1.21960968388892    0.00885313931732   -3.32344964424373
C         0.37724975445035   -1.15889099278937   -3.32545713656121
Cl       -2.10240973060797    0.29473789177502    5.20603215876773
Cl       -0.35282523100911   -2.11143860281263    5.20206092935586
Cl        5.29045840093863   -1.10758039479040   -0.95291822492613
63
 energy: -142.094276904543 gnorm: 0.013892433037 xtb: 6.4.1 (a3dbbd7)
C        -1.32971152208600    0.00603050739828    3.59470441808428
C        -0.39850127769901   -1.27946657766554    3.59470659712944
C         0.97729187695689   -0.72877093826051    3.29239674606538
C         0.96251465977924    0.69209990553043    3.26116081589849
C        -0.37961226751281    1.14471013449516    3.29205941873267
C         2.31784571017802   -2.57090011302700    0.57373900253293
C         3.16752753808921   -1.43056037494933    0.59251072055611
C         2.89956306825648   -0.69988174841998    1.78084446531222
C         1.91599727427178   -1.41080491900870    2.55613931586528
C         1.56228430197277   -2.59790156686819    1.80331304010527
C         3.16676679065216    1.41840279773250    0.56278789401100
C         2.32537830481724    2.58701220044453    0.57081606068242
C         1.56745178739805    2.56860813634843    1.79402564690622
C         1.94045096377626    1.39882375376134    2.53796358348489
C         2.93029820123007    0.69514923653078    1.79532468624731
C        -0.37225054826783    3.44667137083793    0.57928569398632
C        -1.74250129159914    3.00772711704561    0.58071415041186
C        -1.97957796065451    2.28593544895480    1.80557425025336
C        -0.73869001108686    2.25642555330740    2.55785362749431
C         0.24237377098366    2.98030827911076    1.79831863248258
C        -3.39840988520407    0.72891108954841    0.57743199066567
C        -3.38253723067587   -0.70455608758961    0.57957590283091
C        -2.75527994251846   -1.12957751225075    1.82302327165832
C        -2.40480417926693   -0.01390167871453    2.56005378152313
C        -2.77765152654984    1.15962921638701    1.80332804406085
C        -1.70986487233019   -3.00556880359148    0.57463821466443
C        -0.35398255616633   -3.46349520076299    0.57031116417585
C         0.24699441325063   -3.01057348056005    1.79897175026674
C        -0.75229665748884   -2.29598492441639    2.55982293569820
C        -1.92032959733247   -2.28061674344381    1.82172325549006
C        -0.23837937397510   -3.00731486944278   -1.83700589125024
C         0.74535958921843   -2.27973777814612   -2.59823497767266
C         1.96962158000718   -2.27268505530625   -1.84137615508980
C         1.74247460403462   -3.01830010968176   -0.61637163214527
C         0.38076492146137   -3.46026921616318   -0.61721938933711
C         2.77898135893094   -1.16164629910708   -1.84924621249131
C         2.39322207720227    0.00341001531452   -2.57812445710289
C         2.77221519901650    1.16718683184039   -1.81844772821842
C         3.39494125141553    0.73833651031987   -0.61168241602438
C         3.59875635269788   -0.75569760984736   -0.65064311091388
C         1.95919191592601    2.30206565977257   -1.82784767303231
C         0.73664113956961    2.29942954357033   -2.58676225056972
C        -0.25770477848210    3.02156448166103   -1.83008743645793
C         0.35696875121906    3.46191548381582   -0.60150248847196
C         1.72946440959560    3.02048939756612   -0.60773888160052
C        -1.57646131084893    2.59359912072895   -1.83067672772805
C        -1.95530696733279    1.42587266205629   -2.58929107930635
C        -2.94624764426624    0.70683384573135   -1.82883459528810
C        -3.18357660379207    1.42736180313920   -0.60719153323414
C        -2.33769586506005    2.59185167261759   -0.60539701639049
C        -2.93484182015776   -0.68537160767413   -1.82178290805398
C        -1.94548637046710   -1.40610458051977   -2.58133978376088
C        -1.55890991323132   -2.57334705305682   -1.82593011351245
C        -2.30221772692725   -2.57299112394610   -0.59576079069911
C        -3.15667495187151   -1.39704634849979   -0.59253490952925
C        -0.99744462980683   -0.71128950733744   -3.31821500716452
C        -1.00018480560901    0.73131320833172   -3.31723209495292
C         0.37133741809158    1.17571568203011   -3.31753325232661
C         1.21494173618975    0.00908264131952   -3.32092990978152
C         0.37331286057803   -1.15498830063668   -3.32421913751908
Cl       -2.10710073417465    0.29729852166862    5.20710856412630
Cl       -0.35979822675938   -2.11034238815585    5.20591499787046
Cl        5.39681378097436   -1.13061019493789   -0.97099231362411
63
 energy: -142.094592312990 gnorm: 0.008298163984 xtb: 6.4.1 (a3dbbd7)
C        -1.33123150282945    0.00625615976917    3.59526739803356
C        -0.39995168643282   -1.27966262043411    3.59565337164938
C         0.97599051620253   -0.72887480100049    3.29136362351940
C         0.96092563816718    0.69196636056972    3.26079305903858
C        -0.38067880520011    1.14466591306623    3.29207288183562
C         2.31984555497493   -2.56820418833067    0.57089417020317
C         3.16648898108757   -1.42767813223586    0.58832687779353
C         2.90057982371497   -0.69959367099939    1.77616150300099
C         1.91435334030885   -1.40910524026588    2.55267450932556
C         1.56111726862072   -2.59537314317730    1.80054444128810
C         3.17058824594562    1.41666111311412    0.56099561239091
C         2.32355846412814    2.58221358982588    0.56903010256142
C         1.56581222230818    2.56612632962062    1.79229656277319
C         1.93996419834584    1.39723289208116    2.53665802988133
C         2.93203681979660    0.69589116136857    1.79613903921730
C        -0.37395540416956    3.44660048484790    0.57926161982610
C        -1.74419887294283    3.00796231446038    0.58101799840861
C        -1.98090271775236    2.28589526583480    1.80605977731874
C        -0.74027765887685    2.25663189336523    2.55798947239904
C         0.24119589297521    2.97930996718015    1.79775618110536
C        -3.39999909104360    0.72898497445818    0.57810549190402
C        -3.38437763482402   -0.70448497959539    0.58030360575860
C        -2.75691652536982   -1.12980912845545    1.82366262460486
C        -2.40633775066772   -0.01388220842980    2.56059482936995
C        -2.77933638937467    1.15964136878211    1.80393511334314
C        -1.71092847219896   -3.00535785001755    0.57491902312724
C        -0.35521747966935   -3.46309046464791    0.57050430324995
C         0.24609161358911   -3.00959505904314    1.79857907724295
C        -0.75370066597859   -2.29660705593665    2.56081018257480
C        -1.92187236197436   -2.28085277837943    1.82248865985929
C        -0.23844897925987   -3.00434535008568   -1.83507948009209
C         0.74615244357912   -2.27574811712051   -2.59408223426962
C         1.97409920461374   -2.27217236995175   -1.84174079380177
C         1.74337652934814   -3.02024194658559   -0.61716515104297
C         0.38113512939888   -3.45879100823050   -0.61648353266994
C         2.78814125363481   -1.16385833219319   -1.85160892573692
C         2.39412991303320    0.00134456213801   -2.57516685368607
C         2.77329634069244    1.16512533009386   -1.81569062633582
C         3.40490075554089    0.73724787903356   -0.61337703268146
C         3.62128845528236   -0.75867939052892   -0.65727522060107
C         1.95766871992104    2.29934811152639   -1.82641892419526
C         0.73496105946260    2.29873115722291   -2.58525590323792
C        -0.25970700459676    3.02199210062731   -1.82986397729203
C         0.35530432948435    3.46241181893687   -0.60144750846929
C         1.72756503829752    3.01856180987964   -0.60792547583312
C        -1.57883232700969    2.59448316089695   -1.83050674819653
C        -1.95778146428237    1.42666987395345   -2.58921594824612
C        -2.94850756926993    0.70746509962668   -1.82845710410599
C        -3.18562778553980    1.42772093909078   -0.60662208041078
C        -2.33991383014724    2.59240581151256   -0.60502232701023
C        -2.93660266060495   -0.68485263681044   -1.82128776172740
C        -1.94699416363783   -1.40512140360732   -2.58063542469976
C        -1.55951935737243   -2.57200466803941   -1.82493816775414
C        -2.30374011566356   -2.57248825579056   -0.59528821457691
C        -3.15820635733167   -1.39681957125063   -0.59191944849938
C        -0.99918899606905   -0.71051699807629   -3.31787596048456
C        -1.00219080424516    0.73206353538992   -3.31685492721816
C         0.36977393145635    1.17553068444709   -3.31576619520395
C         1.21432670629844    0.00946819878218   -3.31753689700726
C         0.37245046835798   -1.15313531725535   -3.32176711070979
Cl       -2.11003845117710    0.29950549140979    5.20660733215318
Cl       -0.36261302413166   -2.10910107944352    5.20753803841132
Cl        5.41439160961670   -1.13659847006396   -0.97073779134950
63
 energy: -142.094694671045 gnorm: 0.004736409980 xtb: 6.4.1 (a3dbbd7)
C        -1.33131569746354    0.00636418305803    3.59513283848689
C        -0.40015005394829   -1.27980434485593    3.59592865094571
C         0.97592205424530   -0.72884021949845    3.29114760173105
C         0.96054485386888    0.69225034867546    3.26092567934183
C        -0.38070487875896    1.14488242041084    3.29215113301584
C         2.32095515475106   -2.56685389470200    0.56878040885645
C         3.16440957028995   -1.42485663780375    0.58489032973184
C         2.90134723922852   -0.69886220809981    1.77341566441689
C         1.91338951413618   -1.40779648586301    2.55032350650421
C         1.56039812310086   -2.59362919481231    1.79861629124794
C         3.17245170015210    1.41585214840896    0.56037762123087
C         2.32267149422186    2.57967816372277    0.56799047804069
C         1.56504392593696    2.56480768176768    1.79135646513058
C         1.94007764329234    1.39696670344130    2.53661401436169
C         2.93328036219666    0.69704091964906    1.79741188537669
C        -0.37468532155890    3.44662179129700    0.57923634303849
C        -1.74490924117417    3.00825308955078    0.58111917447521
C        -1.98123416684660    2.28595436042649    1.80623032183917
C        -0.74077033269610    2.25693986998195    2.55809080808460
C         0.24083544623246    2.97903662676830    1.79755148195016
C        -3.40026602658099    0.72895944980773    0.57817162413411
C        -3.38491229590816   -0.70453723485374    0.58041897897417
C        -2.75719430295219   -1.13001505841675    1.82367389170966
C        -2.40644445268483   -0.01395073537506    2.56048409967790
C        -2.77967583991660    1.15960200851058    1.80400845010742
C        -1.71120491693730   -3.00540867909142    0.57483328485921
C        -0.35576890696552   -3.46322874512509    0.57038532251513
C         0.24594636717770   -3.00939726292440    1.79831999109076
C        -0.75392398255169   -2.29704435137451    2.56120394604221
C        -1.92212878339104   -2.28105824779473    1.82265119184242
C        -0.23839149887875   -3.00281366268801   -1.83407921042570
C         0.74664323713577   -2.27359535876295   -2.59191417462541
C         1.97617357882048   -2.27215929864500   -1.84180949453937
C         1.74351049080231   -3.02224644028016   -0.61782790149868
C         0.38117062246614   -3.45881794633620   -0.61634395557094
C         2.79324399690073   -1.16524625340355   -1.85235133538106
C         2.39412051186135    0.00017597817558   -2.57326822550661
C         2.77336973974312    1.16399929996497   -1.81389554966429
C         3.41043991340634    0.73623384076395   -0.61395504418728
C         3.63064376041899   -0.75975428030246   -0.66030855676860
C         1.95660006734025    2.29755559824760   -1.82550336729534
C         0.73409017188798    2.29824752269444   -2.58432747834274
C        -0.26054117286516    3.02244116881472   -1.82976890443895
C         0.35450537517634    3.46290105050834   -0.60136018835548
C         1.72670868000791    3.01774517304845   -0.60786498330422
C        -1.57980912979265    2.59506124926500   -1.83062206062004
C        -1.95884367135687    1.42709637131730   -2.58948250366335
C        -2.94941669895630    0.70775162953247   -1.82855795739128
C        -3.18628895117723    1.42788235861827   -0.60655390832201
C        -2.34075442887805    2.59276229729613   -0.60498230926754
C        -2.93741812180071   -0.68467027325557   -1.82132731000526
C        -1.94764098886572   -1.40470130225995   -2.58040180169616
C        -1.55975165933005   -2.57155900566567   -1.82466691500637
C        -2.30437229119639   -2.57239119345972   -0.59529391620487
C        -3.15878314319898   -1.39683885775470   -0.59188455952831
C        -1.00011919268551   -0.71027064040203   -3.31791497442813
C        -1.00313859075338    0.73228760105879   -3.31694717607588
C         0.36899427793397    1.17533377288661   -3.31468770636386
C         1.21389031836659    0.00974589907318   -3.31530274566931
C         0.37202320461062   -1.15241763224384   -3.32063158409771
Cl       -2.11032388341354    0.29822400618418    5.20650592160579
Cl       -0.36399135503447   -2.10695328426888    5.20875969829997
Cl        5.41518714134884   -1.13946673567775   -0.96688053439746
63
 energy: -142.094732761078 gnorm: 0.002523579379 xtb: 6.4.1 (a3dbbd7)
C        -1.33128085362990    0.00645252751631    3.59551431064782
C        -0.39978989039730   -1.28023673274105    3.59640241920127
C         0.97618670891948   -0.72892242420412    3.29131099131650
C         0.96061462200164    0.69244998324443    3.26140532493993
C        -0.38047052807845    1.14485084502746    3.29227144844090
C         2.32102346424924   -2.56618641282734    0.56771432882882
C         3.16215475671338   -1.42296542144049    0.58306671715277
C         2.90126877450932   -0.69829825392675    1.77220926602204
C         1.91283793548012   -1.40724209846634    2.54925052385737
C         1.56008498606796   -2.59292693312735    1.79781514523675
C         3.17246904584694    1.41565129414281    0.56035124151415
C         2.32239062459811    2.57899185411966    0.56768677509763
C         1.56490019171833    2.56447325844423    1.79122964326704
C         1.94031395513825    1.39721648308035    2.53716413902037
C         2.93368368558563    0.69785688874107    1.79838265772193
C        -0.37472983813188    3.44664509030768    0.57924472065517
C        -1.74490405885007    3.00837558276131    0.58114110227536
C        -1.98100933233474    2.28595390262616    1.80625741644440
C        -0.74066848996204    2.25696536504035    2.55810073311277
C         0.24092408779055    2.97910502915117    1.79764417044990
C        -3.39985460130904    0.72881917607149    0.57808935972778
C        -3.38459233921477   -0.70467492868571    0.58042382105984
C        -2.75676640407730   -1.13016343213810    1.82365303222236
C        -2.40586389178345   -0.01401196666590    2.56029698726398
C        -2.77923079048013    1.15946583296368    1.80386156136305
C        -1.71092699238301   -3.00550733721066    0.57474525738445
C        -0.35581344045226   -3.46357992779531    0.57016474809891
C         0.24614957997154   -3.00964238435280    1.79819518962244
C        -0.75350764453074   -2.29722184385321    2.56130712269163
C        -1.92169998994411   -2.28115333871276    1.82267870670334
C        -0.23828511016728   -3.00253852619268   -1.83396670934795
C         0.74681556372712   -2.27294153070551   -2.59146851062537
C         1.97633391152156   -2.27204497277000   -1.84178797456012
C         1.74326609450441   -3.02341223211115   -0.61826320526753
C         0.38116217558321   -3.45946189501190   -0.61660392091195
C         2.79429827304520   -1.16557858572923   -1.85210887175502
C         2.39354389256052   -0.00017433590383   -2.57236969549014
C         2.77279859858056    1.16367198532771   -1.81298608825760
C         3.41156568808727    0.73572847005052   -0.61379874752211
C         3.63342823966815   -0.76016265227780   -0.66110913720379
C         1.95613662367305    2.29698782528041   -1.82517454728825
C         0.73388569007848    2.29812047748917   -2.58401950612819
C        -0.26061733373081    3.02273444347042   -1.82973287485580
C         0.35434114637451    3.46327178635283   -0.60130410724892
C         1.72655158708895    3.01777477474446   -0.60772786473900
C        -1.57986888402807    2.59523095749166   -1.83070724130859
C        -1.95894187863557    1.42717717613989   -2.58965255027498
C        -2.94938583123758    0.70774251042890   -1.82866092426596
C        -3.18615105005359    1.42782910364054   -0.60658731960169
C        -2.34070445582310    2.59280350774658   -0.60500529593393
C        -2.93743868615468   -0.68472667180165   -1.82141236397220
C        -1.94765209631994   -1.40465034097687   -2.58039854424120
C        -1.55970019254274   -2.57168294589773   -1.82476904020700
C        -2.30429454103444   -2.57248251291110   -0.59538165997215
C        -3.15862460854014   -1.39697655840384   -0.59191984290898
C        -1.00039785724636   -0.71028604120845   -3.31815435933485
C        -1.00332154247636    0.73225167197358   -3.31715978106313
C         0.36881777334870    1.17527400847883   -3.31436652550580
C         1.21366425762656    0.00992164848624   -3.31456063922691
C         0.37189306952024   -1.15236487279671   -3.32060181741150
Cl       -2.11308992855817    0.30291951337446    5.20476856460150
Cl       -0.35945271825101   -2.11029508767929    5.20748147906609
Cl        5.40924535531993   -1.14073065825918   -0.96207847255433
63
 energy: -142.094733199652 gnorm: 0.002264302447 xtb: 6.4.1 (a3dbbd7)
C        -1.33026118400480    0.00621804365772    3.59440180152128
C        -0.39930450947553   -1.27967986449967    3.59529778083967
C         0.97692885198600   -0.72859188696032    3.29139319109055
C         0.96132725779595    0.69295369650345    3.26139080402401
C        -0.37969432725540    1.14506478357545    3.29225599352404
C         2.32056499143959   -2.56580464302907    0.56743621874993
C         3.16041646300309   -1.42189240931372    0.58235959775462
C         2.90100577411755   -0.69785121706615    1.77184344073620
C         1.91298477078409   -1.40710259414608    2.54916487916370
C         1.56004180345676   -2.59276334618547    1.79781991370243
C         3.17202266148392    1.41593111811465    0.56018274708073
C         2.32262216402952    2.57942421126727    0.56743790438003
C         1.56532456257999    2.56497921033365    1.79120047893153
C         1.94102695223810    1.39796907838524    2.53741144816128
C         2.93397074579614    0.69844980090610    1.79858467963722
C        -0.37444141593017    3.44671084204022    0.57915228212366
C        -1.74454898701931    3.00833413626164    0.58115117111282
C        -1.98056165343218    2.28589777684862    1.80631744773448
C        -0.74021069817102    2.25721797852167    2.55818820476922
C         0.24132632202055    2.97949284525385    1.79770850486703
C        -3.39943566365979    0.72871950744532    0.57801404679629
C        -3.38421390898546   -0.70478363815437    0.58021341392857
C        -2.75633866676301   -1.13029576707035    1.82332587142901
C        -2.40549522039091   -0.01422225930390    2.56003707572423
C        -2.77882363286389    1.15936891702769    1.80383167417660
C        -1.71053042343511   -3.00573602212105    0.57449538884717
C        -0.35561842009670   -3.46399650858575    0.56997397457535
C         0.24639611234748   -3.01016071348831    1.79827501247202
C        -0.75325723102949   -2.29744940667881    2.56115992911194
C        -1.92124473903234   -2.28124480404043    1.82233198579737
C        -0.23815544097637   -3.00287108909803   -1.83431188482387
C         0.74684037203495   -2.27307080815644   -2.59190037503738
C         1.97576906361437   -2.27188298805862   -1.84184666188189
C         1.74301400936646   -3.02376144609254   -0.61847761713714
C         0.38122618143993   -3.46010746638680   -0.61697311383388
C         2.79343551722250   -1.16535449738955   -1.85176232534163
C         2.39300111685667   -0.00009719086147   -2.57235968143653
C         2.77226241103968    1.16380292094098   -1.81298339772621
C         3.41072656481620    0.73571968490843   -0.61372161489593
C         3.63366690023921   -0.76033475969088   -0.66105204603501
C         1.95611763243779    2.29716397423168   -1.82545053961595
C         0.73398316542695    2.29820368105282   -2.58423700715836
C        -0.26040545645163    3.02285605751445   -1.82984380702150
C         0.35449392997186    3.46350023973845   -0.60144661035827
C         1.72676619388037    3.01822454071018   -0.60789739888392
C        -1.57958198566443    2.59516597148941   -1.83075439434121
C        -1.95865994057013    1.42710683787866   -2.58973131388931
C        -2.94901666941579    0.70764632412323   -1.82872679393995
C        -3.18577846846885    1.42772506068453   -0.60662026714901
C        -2.34029631253424    2.59267349040572   -0.60500363677440
C        -2.93714057988245   -0.68483588702964   -1.82158538159812
C        -1.94740626317590   -1.40474092648853   -2.58059752907329
C        -1.55952056804373   -2.57198044520969   -1.82510117962298
C        -2.30398257582313   -2.57265369162097   -0.59563604248343
C        -3.15827380867194   -1.39712295998164   -0.59211416230123
C        -1.00032772407446   -0.71036587418965   -3.31849513601255
C        -1.00317960094516    0.73215514002299   -3.31740108377432
C         0.36890794085060    1.17530200116028   -3.31459890749807
C         1.21360549882423    0.00999429977590   -3.31484136838283
C         0.37192023715475   -1.15257058433048   -3.32110446961596
Cl       -2.10720364190308    0.29175781598698    5.20763253434352
Cl       -0.36711199367488   -2.10152941338849    5.21037528416396