108
 energy: -316.176086697888 gnorm: 4.620494876983 xtb: 6.4.1 (a3dbbd7)
C        -1.23626340000000    0.00000000000000    3.32997640000000
C        -0.38202640000000   -1.17575640000000    3.32997640000000
C         1.00015810000000   -0.72665740000000    3.32997640000000
C         1.00015810000000    0.72665740000000    3.32997640000000
C        -0.38202640000000    1.17575640000000    3.32997640000000
C         2.34433560000000   -2.60145750000000    0.59464210000000
C         3.19857260000000   -1.42570110000000    0.59464210000000
C         2.96246730000000   -0.69904370000000    1.83090550000000
C         1.96230920000000   -1.42570110000000    2.59495830000000
C         1.58028280000000   -2.60145750000000    1.83090550000000
C         3.19857260000000    1.42570110000000    0.59464210000000
C         2.34433560000000    2.60145750000000    0.59464210000000
C         1.58028280000000    2.60145750000000    1.83090550000000
C         1.96230920000000    1.42570110000000    2.59495830000000
C         2.96246730000000    0.69904370000000    1.83090550000000
C        -0.36750900000000    3.48258920000000    0.59464210000000
C        -1.74969350000000    3.03349030000000    0.59464210000000
C        -1.98579880000000    2.30683290000000    1.83090550000000
C        -0.74953540000000    2.30683290000000    2.59495830000000
C         0.25062270000000    3.03349030000000    1.83090550000000
C        -3.42570570000000    0.72665740000000    0.59464210000000
C        -3.42570570000000   -0.72665740000000    0.59464210000000
C        -2.80757400000000   -1.17575640000000    1.83090550000000
C        -2.42554760000000    0.00000000000000    2.59495830000000
C        -2.80757400000000    1.17575640000000    1.83090550000000
C        -1.74969350000000   -3.03349030000000    0.59464210000000
C        -0.36750900000000   -3.48258920000000    0.59464210000000
C         0.25062270000000   -3.03349030000000    1.83090550000000
C        -0.74953540000000   -2.30683290000000    2.59495830000000
C        -1.98579880000000   -2.30683290000000    1.83090550000000
C        -0.25062270000000   -3.03349030000000   -1.83090550000000
C         0.74953540000000   -2.30683290000000   -2.59495830000000
C         1.98579880000000   -2.30683290000000   -1.83090550000000
C         1.74969350000000   -3.03349030000000   -0.59464210000000
C         0.36750900000000   -3.48258920000000   -0.59464210000000
C         2.80757400000000   -1.17575640000000   -1.83090550000000
C         2.42554760000000    0.00000000000000   -2.59495830000000
C         2.80757400000000    1.17575640000000   -1.83090550000000
C         3.42570570000000    0.72665740000000   -0.59464210000000
C         3.42570570000000   -0.72665740000000   -0.59464210000000
C         1.98579880000000    2.30683290000000   -1.83090550000000
C         0.74953540000000    2.30683290000000   -2.59495830000000
C        -0.25062270000000    3.03349030000000   -1.83090550000000
C         0.36750900000000    3.48258920000000   -0.59464210000000
C         1.74969350000000    3.03349030000000   -0.59464210000000
C        -1.58028280000000    2.60145750000000   -1.83090550000000
C        -1.96230920000000    1.42570110000000   -2.59495830000000
C        -2.96246730000000    0.69904370000000   -1.83090550000000
C        -3.19857260000000    1.42570110000000   -0.59464210000000
C        -2.34433560000000    2.60145750000000   -0.59464210000000
C        -2.96246730000000   -0.69904370000000   -1.83090550000000
C        -1.96230920000000   -1.42570110000000   -2.59495830000000
C        -1.58028280000000   -2.60145750000000   -1.83090550000000
C        -2.34433560000000   -2.60145750000000   -0.59464210000000
C        -3.19857260000000   -1.42570110000000   -0.59464210000000
C        -1.00015810000000   -0.72665740000000   -3.32997640000000
C        -1.00015810000000    0.72665740000000   -3.32997640000000
C         0.38202640000000    1.17575640000000   -3.32997640000000
C         1.23626340000000    0.00000000000000   -3.32997640000000
C         0.38202640000000   -1.17575640000000   -3.32997640000000
C        -1.76086815247998    0.00000000000000    4.78849957557021
F        -0.76911826531252    0.00000000000000    5.67468926254662
F        -2.50968386795825   -1.06794314680471    5.04863888333743
F        -2.50968386795825    1.06794314680471    5.04863888333743
C        -0.54413818249354   -1.67468516033722    4.78849957845317
F        -0.23767107904745   -0.73147481112462    5.67468925997942
F        -1.79120914301982   -2.05683909935453    5.04863874564184
F         0.24013968171955   -2.71686350152345    5.04863903502921
C         2.50473491433418   -4.35941144902977   -0.86730593917895
F         2.08438487052912   -4.95213043104453   -1.98125838386969
F         3.81390519137296   -4.16837996597314   -1.00324768478856
F         2.34400857369757   -5.23632280881804    0.11965581818547
C         3.37204091334889   -3.72927672645244    0.86730596148276
F         4.06564647311729   -3.51265957144658    1.98125763710227
F         4.25569947457670   -3.84739838595791   -0.11965645964809
F         2.78580317558591   -4.91533944031226    1.00324916143780
C         2.82790274436383    2.05459160758554    3.71645040671519
F         3.82797483682855    2.78118494419178    3.22571836876305
F         2.11749631416700    2.85850222732984    4.50254863174647
F         3.37293748548841    1.13053297859378    4.50255013394648
C        -0.53602450593361    4.99908416128281    0.86730591619822
F        -1.22448605650957    5.23152837615597    1.98125850960180
F        -1.18149064144157    5.61404773804446   -0.11965571789346
F         0.63540201352706    5.61404743764837    1.00324736766175
C        -4.25247495652193    1.01957928511255   -2.62817407757680
F        -4.45020405360863    2.32910962270744   -2.75037677428969
F        -4.21414295278388    0.51936236815955   -3.85992636334025
F        -5.33704498641440    0.51936149478958   -2.04303305824604
C        -3.37204091334889    3.72927672645244   -0.86730596148276
F        -4.06564647311728    3.51265957144662   -1.98125763710229
F        -2.78580317558593    4.91533944031228   -1.00324916143777
F        -4.25569947457673    3.84739838595791    0.11965645964807
C        -2.28376457660886   -3.72927671755932   -2.62817408867206
F        -3.59030321655004   -3.51265997057978   -2.75037870097715
F        -1.79618325340526   -3.84739782561576   -3.85992562899768
F        -2.14318168460923   -4.91533956626621   -2.04303190988614
C        -3.49548004549360    0.00000000000000    3.71645041414084
F        -4.73163621497510    0.00000000000000    3.22571838476757
F        -3.39327517264965   -1.06794314680471    4.50254938956302
F        -3.39327517264965    1.06794314680471    4.50254938956303
C        -2.50473491433418   -4.35941144902977    0.86730593917895
F        -2.08438487052912   -4.95213043104453    1.98125838386969
F        -2.34400857369757   -5.23632280881804   -0.11965581818547
F        -3.81390519137296   -4.16837996597314    1.00324768478856
C        -0.53602450593361   -4.99908416128281    0.86730591619822
F        -1.22448605650957   -5.23152837615597    1.98125850960180
F        -1.18149064144157   -5.61404773804446   -0.11965571789346
F         0.63540201352706   -5.61404743764837    1.00324736766175
108
 energy: -318.700271635888 gnorm: 3.095148772546 xtb: 6.4.1 (a3dbbd7)
C        -1.22567989951311    0.00296618636872    3.31325289091062
C        -0.37643740618827   -1.17846904347882    3.32038223819163
C         1.00550529264293   -0.72190584479727    3.33163523154721
C         0.99374644837396    0.71924956972164    3.33044205950104
C        -0.38038668006337    1.17707913072061    3.33347014940876
C         2.34005523415954   -2.58567208678194    0.60081767133299
C         3.20057118450602   -1.42161575302411    0.59671104773035
C         2.96190235650489   -0.69765213128705    1.83097888707448
C         1.96337136133113   -1.42570169125930    2.59340087223941
C         1.58134095737741   -2.59950927613097    1.83514076349682
C         3.19648663643879    1.42528164342485    0.59477781897679
C         2.34388250928626    2.60006022282185    0.59614601395342
C         1.57741415743473    2.60298778730570    1.82378409290610
C         1.96980087823894    1.43128801231949    2.60070757665581
C         2.96267583271240    0.69513311606031    1.82418784306950
C        -0.36960883769811    3.48632565234039    0.59772604339155
C        -1.74836065475142    3.02748093015030    0.60520330518172
C        -1.98147161032282    2.30873325782001    1.82766225782789
C        -0.74881891684322    2.30844351835292    2.59218005212426
C         0.25231230717924    3.02734816264859    1.83445671846501
C        -3.42344446795475    0.72575250696276    0.59195496593459
C        -3.42600753650599   -0.72635884378025    0.59485036087240
C        -2.80975935891063   -1.17680403267802    1.82570879883769
C        -2.42619733016259    0.00197685944324    2.57748500791098
C        -2.81133096980963    1.17765925452023    1.82810206484019
C        -1.75318812944599   -3.02851692075844    0.59457422014896
C        -0.36236534630518   -3.47778604257620    0.59503336668525
C         0.25123331912917   -3.03420396812592    1.83370353612948
C        -0.75094636122541   -2.31156908019658    2.59099317387785
C        -1.98564359055267   -2.30516099596540    1.83384850311246
C        -0.24122452158020   -3.03138929249194   -1.83496352198179
C         0.74763277653228   -2.30745162909352   -2.59231052783874
C         1.98482770617026   -2.30538738296349   -1.83397165223897
C         1.73888065235937   -3.02182579661299   -0.60091121962824
C         0.36824501892916   -3.48367016927857   -0.60075940438299
C         2.80889901248409   -1.17213705423917   -1.83094587812605
C         2.42616300068768   -0.00008542172449   -2.59340697100952
C         2.80698879891745    1.17489204097148   -1.83080836409404
C         3.42479283069808    0.72627189907630   -0.59544439319226
C         3.42544228835360   -0.72476933632624   -0.59733606119124
C         1.98467599678600    2.30643725254129   -1.83110014187450
C         0.74982382427325    2.30689492982337   -2.59441798823045
C        -0.24841337368326    3.03192521983748   -1.82995738501085
C         0.37370323400871    3.48405545793855   -0.60291318577928
C         1.74638173701332    3.03358439581580   -0.59617892303013
C        -1.57581763141857    2.59969926752443   -1.83523409885980
C        -1.95440474237421    1.42883761064129   -2.59331973615943
C        -2.96615278669273    0.70269479950901   -1.83318843606172
C        -3.19718022026558    1.41956131367948   -0.58801023187713
C        -2.35197871561093    2.60417115912017   -0.59717054574304
C        -2.96320576475743   -0.70954677941094   -1.83282850658111
C        -1.96296249126749   -1.41767439395694   -2.59274892686157
C        -1.58584613232765   -2.60505999288064   -1.83357159135929
C        -2.34898738999422   -2.59730007155217   -0.59469317284489
C        -3.19434388852196   -1.42524349695290   -0.59614799370538
C        -0.99878440096022   -0.72606616826941   -3.33001280914869
C        -0.99853878046150    0.72635161040376   -3.32972146395261
C         0.38135079630655    1.17443437657873   -3.32966621949352
C         1.23426340404193   -0.00060628170732   -3.32984960302213
C         0.38095020662653   -1.17344348778114   -3.33036751887048
C        -1.77562780095962   -0.00781394596132    4.71586349687054
F        -0.78270580427906    0.07382872360959    5.72522295751113
F        -2.55768268058399   -0.99958057115382    5.10223471270729
F        -2.48309935620162    1.11719211144308    5.10628039508609
C        -0.54450608226316   -1.69100737354418    4.76550350014956
F        -0.16376343145097   -0.79310765574364    5.71380721158477
F        -1.71144630507893   -2.19988746921142    5.05538237922262
F         0.24804512896833   -2.72351520699551    5.05271545599269
C         2.48515866244953   -4.33722369849907   -0.88190832689973
F         2.08509926609375   -4.95603404918804   -1.98339539379964
F         3.83290639608277   -4.18110643788362   -1.05989751177097
F         2.31989005115955   -5.28963373301889    0.10100101973878
C         3.36029115563208   -3.69865733414121    0.87683927060668
F         4.07021922638290   -3.51490546347095    1.98489612589835
F         4.31547903719708   -3.83183788638492   -0.10295633748309
F         2.79089520632858   -4.94202961241105    1.06186823152610
C         2.82945092737384    2.05648073225766    3.71539685700456
F         3.83010548026430    2.78285384379813    3.22634917713522
F         2.11669341229468    2.86005089123395    4.50511026588013
F         3.37419250934106    1.12963212498603    4.50516004303766
C        -0.53629735946244    4.99983852465410    0.86669939858288
F        -1.22571540123938    5.23316474867441    1.98325306346285
F        -1.17588658586129    5.61879685133792   -0.11720991343194
F         0.63643311410686    5.61560217854217    1.00373222802046
C        -4.25370923134926    1.01454911643074   -2.63024596906122
F        -4.46949963532434    2.28445598933257   -2.78539387181951
F        -4.21465918320531    0.51613188898818   -3.86305279070318
F        -5.33979291055656    0.51747782140877   -2.04228063056240
C        -3.37107099172937    3.73265631343635   -0.86436973920182
F        -4.05403801740251    3.56370267768813   -1.95404842241760
F        -2.79075661440516    4.91650719496978   -1.00588324982554
F        -4.25799531292698    3.84818260911680    0.12235579262540
C        -2.28477535177720   -3.72734819006733   -2.63026758950340
F        -3.59246179760309   -3.51418059983953   -2.75097830826543
F        -1.79593534883251   -3.84871905686688   -3.86170033695186
F        -2.14276246532511   -4.91782177501421   -2.04959542659172
C        -3.49722492991663    0.01129935617813    3.68094536016711
F        -4.73652047499453    0.00030834061065    3.22570296721688
F        -3.46316656976008   -1.08707642922703    4.49351385407472
F        -3.45029711335640    1.12205200646456    4.48932447690079
C        -2.52099654029467   -4.34591662596087    0.84873997981161
F        -2.17418054097572   -4.93653470193087    2.00431993814641
F        -2.48377137009532   -5.20046538382520   -0.11608549616424
F        -3.82219818909628   -4.16640336993439    1.00650217215255
C        -0.52184890918862   -4.99444462553017    0.84860626702009
F        -1.14226194857269   -5.27097673429630    2.00345614561805
F        -1.04538222476230   -5.66534483847994   -0.12276337545125
F         0.64125891913306   -5.62298738856364    1.01064877821902
108
 energy: -321.057713387052 gnorm: 2.522659778714 xtb: 6.4.1 (a3dbbd7)
C        -1.22324100088954    0.00775800076501    3.31747923397577
C        -0.36923445825114   -1.18366485263605    3.31996612009754
C         1.01117539930072   -0.71637962698367    3.32656639182494
C         0.98415126371264    0.71063249977711    3.33153124492686
C        -0.37395281587924    1.18121220078654    3.33044362319616
C         2.34705593489955   -2.58494750947599    0.60993131794419
C         3.20218036843173   -1.41376265836998    0.59828047800414
C         2.96024642833807   -0.69607264376754    1.82809649633745
C         1.96373173286192   -1.42664229722872    2.58994896906223
C         1.57902543903235   -2.59187573012588    1.84144958906360
C         3.19391096459380    1.42510886912485    0.59565256444260
C         2.34367662530512    2.59803962907397    0.59798898817011
C         1.57309943338472    2.60382779819559    1.81566933177712
C         1.98098265146284    1.43889910641267    2.61049889865478
C         2.96434002381824    0.69000401914165    1.81668741556315
C        -0.37168487347601    3.50153638426808    0.60362641156340
C        -1.74604135795219    3.01871379485207    0.61756010007945
C        -1.97628648036637    2.31002994385681    1.82152667078199
C        -0.74695372446818    2.31004037316890    2.58887469466551
C         0.25519942738806    3.01933082818674    1.83805986785223
C        -3.41944118691050    0.72548664578552    0.58949288423516
C        -3.42665470012203   -0.72647730807956    0.59608077166718
C        -2.81107441788905   -1.17797286646536    1.81543140506410
C        -2.43637960758411    0.00419560892482    2.56491172785800
C        -2.81495296416474    1.18093167562603    1.82353604659475
C        -1.75923929654673   -3.02577130909959    0.59615374292206
C        -0.35730071349371   -3.47945915142032    0.59678345293606
C         0.25263027211701   -3.03034969928610    1.83793533938675
C        -0.75229532697143   -2.31905992900091    2.58452180892820
C        -1.98511950544780   -2.30049211614450    1.83887970413650
C        -0.22892823487262   -3.02670923681921   -1.83551145167471
C         0.74515244441652   -2.30861016391769   -2.58860951037614
C         1.98365646525784   -2.30065280368121   -1.83983110173581
C         1.73505908294290   -3.02310568411603   -0.60946260803937
C         0.36769829191474   -3.48059770135286   -0.60857720083241
C         2.80850289362994   -1.16844411773686   -1.83137765892072
C         2.42665143373401   -0.00080946811724   -2.59159960356827
C         2.80583007740203    1.17442789625934   -1.83029001812445
C         3.42481213133471    0.72469297975622   -0.59648424441495
C         3.42345253054308   -0.72128909846216   -0.59849593536181
C         1.98401166539713    2.30508229403738   -1.83189096220496
C         0.75033031982859    2.30699733524463   -2.59366607319879
C        -0.24591105735839    3.02880095397339   -1.82976726896964
C         0.38255646561743    3.47579942791235   -0.61180430570432
C         1.74191033783770    3.03341433615067   -0.59740072056936
C        -1.56898243654216    2.59201783554154   -1.83978164116002
C        -1.94408888585120    1.43153122132932   -2.59137985526153
C        -2.98001505869744    0.70782612875034   -1.84168572807326
C        -3.19519044089502    1.41251531656460   -0.57891511374852
C        -2.36266179946070    2.61452982176285   -0.60153416339527
C        -2.95426291915861   -0.72172538056742   -1.82974433341357
C        -1.96306514604303   -1.40731913134716   -2.58971472618984
C        -1.59375096827107   -2.61375869090843   -1.84192162676857
C        -2.35490025687620   -2.58777124559263   -0.59594377401654
C        -3.18884347223159   -1.42453900183698   -0.59717995540069
C        -0.99639123756442   -0.72593629841876   -3.33037823682351
C        -0.99643416398413    0.72725929420801   -3.32917699076099
C         0.38051714361382    1.17312763172571   -3.32930837419065
C         1.23175250837422   -0.00123737915412   -3.32911924963811
C         0.37840243516138   -1.16984760532008   -3.33110980288578
C        -1.79730692207963   -0.03478555989065    4.64160979183558
F        -0.76041706736241    0.14986730440261    5.80049259481175
F        -2.54940316357371   -0.94215412149616    5.16867511682073
F        -2.38654623268193    1.14001541151927    5.18933702370175
C        -0.55138740338797   -1.70332663143609    4.74103202647471
F        -0.10569207588139   -0.82513047617901    5.74601850613169
F        -1.67094558657276   -2.27091323237713    5.06140415505333
F         0.25196885563367   -2.72523722594466    5.05435760850493
C         2.46539377859869   -4.32214145960170   -0.90361150057691
F         2.08305600386190   -4.96244321209940   -1.99086505752785
F         3.80273160191730   -4.22103678371147   -1.17556954413624
F         2.27336353876526   -5.35394234577695    0.00232774472626
C         3.35563278572819   -3.66877865592420    0.89150255394103
F         4.07653985698585   -3.51667732152264    1.99274202180384
F         4.39624132643178   -3.79298649262624   -0.01117790759242
F         2.83396668768555   -4.93261338260193    1.18299185045569
C         2.83213660926526    2.05863248521400    3.71538674935717
F         3.83253349564312    2.78423241546026    3.22721589537076
F         2.11599920188497    2.86134106363526    4.50804587296706
F         3.37562749716092    1.12805050978066    4.50816042158354
C        -0.53645781404030    5.00331895156816    0.86686392629948
F        -1.22672257063954    5.23493715915235    1.98586504330384
F        -1.16797793650246    5.62502954984363   -0.11369540057414
F         0.63840342695694    5.61727218555354    1.00474663241701
C        -4.25627736689703    1.01206497817748   -2.63271524486371
F        -4.48688685656094    2.24735379409512   -2.81641708782871
F        -4.21500996887490    0.51308145015885   -3.86657661827465
F        -5.34269823887141    0.51567995980132   -2.04111937838723
C        -3.37160253998955    3.73640955835691   -0.86281778439538
F        -4.04487001610091    3.60861744629401   -1.93147332157625
F        -2.79709197724096    4.91774053414035   -1.00942589726611
F        -4.26016007320482    3.84903779523607    0.12583045006606
C        -2.28668003549562   -3.72604940871484   -2.63400608600575
F        -3.59513962109204   -3.51543086571323   -2.75174790034565
F        -1.79592661050974   -3.84965178724154   -3.86400389605074
F        -2.14127943154608   -4.92032201126138   -2.05868985439942
C        -3.49242030068096    0.02122636471695    3.63994274915074
F        -4.74475319608096   -0.00203304802307    3.22744522779386
F        -3.55803313230870   -1.14310347971579    4.46407183402923
F        -3.56658459561596    1.15656335455266    4.43859795633552
C        -2.53139489571012   -4.33263952889192    0.82184445613052
F        -2.23159876790321   -4.93554374635115    2.03478457624747
F        -2.55221824482545   -5.18966870652170   -0.11065046442537
F        -3.82573702878180   -4.16491508605449    1.01006780349377
C        -0.51040316919144   -4.98777571467227    0.82200557757952
F        -1.09492647988199   -5.30313198671780    2.03198501004429
F        -0.98340064054116   -5.69400584137382   -0.12558283250492
F         0.63584544798688   -5.62732473856965    1.01965143626273
108
 energy: -322.644888043314 gnorm: 1.311816936369 xtb: 6.4.1 (a3dbbd7)
C        -1.22483075369933    0.01098726454537    3.33103933220492
C        -0.36456106629785   -1.18930984163249    3.33246324969710
C         1.01761893186714   -0.71066929648790    3.32112484241599
C         0.97250041325090    0.70384421793034    3.32874630096478
C        -0.36301593604686    1.18594623497344    3.32411704619956
C         2.36378878585468   -2.59971214989661    0.61895280370639
C         3.20128946908019   -1.40089611021173    0.59771285796417
C         2.95956004211314   -0.69557299312108    1.82409447175825
C         1.96322161388914   -1.42766678098441    2.58716675792180
C         1.57245389172468   -2.58298835266580    1.84781274989983
C         3.19123236978142    1.42326523708015    0.59659133013257
C         2.34225988009309    2.59674783071069    0.59888735774251
C         1.56883271882454    2.60505937415572    1.80749587577312
C         1.99263765958182    1.44695184691606    2.62196569463644
C         2.96504570102470    0.68651927632691    1.80831016243126
C        -0.37392446508929    3.51440204325361    0.60798066200883
C        -1.74320402965751    3.01029628268640    0.62877611571587
C        -1.97266088428526    2.30947130690741    1.81654764938881
C        -0.74363744509488    2.30994043761552    2.58685094709419
C         0.25799515122611    3.01141196357850    1.84170982486533
C        -3.41602117082817    0.72561033525881    0.58884220220441
C        -3.42642304546244   -0.72756679543422    0.59875054204615
C        -2.80963902489450   -1.18105296117041    1.80325814945515
C        -2.45334954586479    0.00521383753392    2.56988315191956
C        -2.81718864255759    1.18596072632112    1.81708002358929
C        -1.76921862447754   -3.03512800942312    0.60180030241181
C        -0.35700719091231   -3.49569443746671    0.60239810496230
C         0.25462763364058   -3.01899763301204    1.84199656328657
C        -0.75356117931288   -2.32656138689075    2.57214583511796
C        -1.98162017448508   -2.29159508811517    1.84251820053699
C        -0.21655280437876   -3.02179997655213   -1.82416986236417
C         0.74850762357511   -2.30662415841300   -2.58820439160255
C         1.98019864908270   -2.28753886972159   -1.84582589208852
C         1.74417681911553   -3.04280771840336   -0.61942127828553
C         0.36109008000317   -3.46895711732341   -0.62403138081454
C         2.80572532390048   -1.16875265980015   -1.83294156483395
C         2.42605870806495   -0.00100610666935   -2.59153444550834
C         2.80416953860062    1.17404422205202   -1.82996000433833
C         3.42512132848524    0.72279781192072   -0.59704705876051
C         3.42210311055130   -0.71886023976502   -0.59538382871304
C         1.98354060493662    2.30336589435206   -1.83267192788257
C         0.75097895354621    2.30678704985112   -2.59332785283477
C        -0.24288580786791    3.02727969634704   -1.82950694208337
C         0.38933608848393    3.46910535746947   -0.62041872489278
C         1.73918479099279    3.03365037448949   -0.59830158820461
C        -1.56259845693460    2.58413014268964   -1.84400221491115
C        -1.93423868079746    1.43510864859260   -2.58815906613932
C        -2.99267658834449    0.71273281156918   -1.84951995116810
C        -3.19239653185474    1.40494264335262   -0.57098760482286
C        -2.37380268596319    2.62504173681366   -0.60568372706966
C        -2.94619761583695   -0.73249104816701   -1.82874866928168
C        -1.96464151874211   -1.39719906133389   -2.58630166212489
C        -1.60253298088323   -2.62426490899903   -1.85034091456410
C        -2.36107750396245   -2.57658644468690   -0.59776342306903
C        -3.18320809753522   -1.42537057035913   -0.59863133343942
C        -0.99439461360079   -0.72370011804608   -3.33131839005319
C        -0.99415861415385    0.72587492162727   -3.32897810679306
C         0.38103918456075    1.17208943129791   -3.32885728353588
C         1.23072851392873   -0.00063472824216   -3.32778210620550
C         0.37662885463638   -1.16792533892756   -3.33138200611457
C        -1.82384662723371   -0.03854213017965    4.61619891708796
F        -0.75782738483712    0.22727918957362    5.85910145214852
F        -2.48319983506741   -0.85332757974277    5.25207298744690
F        -2.27167951989372    1.13898955361386    5.25998133135868
C        -0.55296255005622   -1.72585027974928    4.72612316055810
F        -0.05627119443506   -0.87647688695559    5.75996960711133
F        -1.63129566356226   -2.32723405941802    5.06185640983979
F         0.26072187027326   -2.72894792140531    5.05290800923802
C         2.46459759213627   -4.33229389220965   -0.91784764091340
F         2.07517602595528   -4.96183019925689   -2.00072834249979
F         3.74249858702655   -4.26335655855082   -1.28824419264358
F         2.23058524726808   -5.39200428465571   -0.12162745965473
C         3.36765992328704   -3.67052210165448    0.90459556299857
F         4.07784637331872   -3.50967272988974    2.00146417273126
F         4.45216648467723   -3.75214483482307    0.10433045517066
F         2.89042859465161   -4.88827400294577    1.29778644358485
C         2.83594323484780    2.06166708914237    3.71823827999035
F         3.83412868291383    2.78519981063826    3.22757765006561
F         2.11558564623351    2.86216842657618    4.50951935510430
F         3.37634565923811    1.12703164257131    4.50963214674413
C        -0.53688640685999    5.00858332845723    0.86802184752795
F        -1.22687455449561    5.23574656985183    1.98706734276445
F        -1.15939246682030    5.63033868055923   -0.10999291236333
F         0.64013357049431    5.61795367335941    1.00552161169594
C        -4.26028985464228    1.00842267255597   -2.63537774253331
F        -4.50154752578790    2.22070508037589   -2.84236184721083
F        -4.21446536611361    0.50857581126336   -3.86977461242786
F        -5.34472415487714    0.51318171359550   -2.03962861885494
C        -3.37368806515180    3.74141098572856   -0.85977681675463
F        -4.03986011076780    3.64437679864769   -1.91698442375346
F        -2.80199817379627    4.91920939274939   -1.01215396458607
F        -4.26161252057651    3.84944564226262    0.12966415047849
C        -2.28965914788496   -3.72825652153846   -2.63874958547787
F        -3.59660439885173   -3.51587159211798   -2.75210423725787
F        -1.79577412584762   -3.84974278054841   -3.86581396990583
F        -2.13949200504195   -4.92124783599398   -2.06744247010762
C        -3.51201879795867    0.03578379621036    3.62765249519422
F        -4.74996698014469   -0.00352955682261    3.21858376626164
F        -3.68169864963929   -1.18085876151861    4.38871798195596
F        -3.67694341515502    1.15266764929661    4.36856764008772
C        -2.54741388087905   -4.32141939762739    0.80476033883847
F        -2.34761273244898   -4.91040498597982    2.05738300811605
F        -2.61236191491917   -5.18040584940445   -0.10628630301146
F        -3.83449653052501   -4.15789654527463    1.01276119177858
C        -0.49161602951384   -4.98942060750966    0.80653916590452
F        -0.98639739370940   -5.34772626904449    2.05051071032224
F        -0.92908527068173   -5.71782498722847   -0.12979411552081
F         0.63523283857143   -5.62910384490182    1.02852605007199
108
 energy: -323.287413646051 gnorm: 0.799190910804 xtb: 6.4.1 (a3dbbd7)
C        -1.22828022944573    0.01519607552811    3.35257887942983
C        -0.36248447207049   -1.20161312414436    3.36329565064431
C         1.02437944982461   -0.70263222025688    3.30775859637907
C         0.96591257547431    0.69739106283830    3.32034239963713
C        -0.35062061382658    1.19057617888289    3.30965522983860
C         2.38521081235806   -2.61812716534179    0.62888122382815
C         3.19700017067476   -1.38495125038207    0.59589289080841
C         2.95853036593652   -0.69320383458531    1.81765371362566
C         1.96496339988103   -1.42419791889119    2.58477530530343
C         1.56247691028537   -2.56681302918851    1.85295406223466