62
 energy: -137.473305540971 gnorm: 0.180547776424 xtb: 6.4.1 (a3dbbd7)
C        -1.23626340000000    0.00000000000000    3.32997640000000
C        -0.38202640000000   -1.17575640000000    3.32997640000000
C         1.00015810000000   -0.72665740000000    3.32997640000000
C         1.00015810000000    0.72665740000000    3.32997640000000
C        -0.38202640000000    1.17575640000000    3.32997640000000
C         2.34433560000000   -2.60145750000000    0.59464210000000
C         3.19857260000000   -1.42570110000000    0.59464210000000
C         2.96246730000000   -0.69904370000000    1.83090550000000
C         1.96230920000000   -1.42570110000000    2.59495830000000
C         1.58028280000000   -2.60145750000000    1.83090550000000
C         3.19857260000000    1.42570110000000    0.59464210000000
C         2.34433560000000    2.60145750000000    0.59464210000000
C         1.58028280000000    2.60145750000000    1.83090550000000
C         1.96230920000000    1.42570110000000    2.59495830000000
C         2.96246730000000    0.69904370000000    1.83090550000000
C        -0.36750900000000    3.48258920000000    0.59464210000000
C        -1.74969350000000    3.03349030000000    0.59464210000000
C        -1.98579880000000    2.30683290000000    1.83090550000000
C        -0.74953540000000    2.30683290000000    2.59495830000000
C         0.25062270000000    3.03349030000000    1.83090550000000
C        -3.42570570000000    0.72665740000000    0.59464210000000
C        -3.42570570000000   -0.72665740000000    0.59464210000000
C        -2.80757400000000   -1.17575640000000    1.83090550000000
C        -2.42554760000000    0.00000000000000    2.59495830000000
C        -2.80757400000000    1.17575640000000    1.83090550000000
C        -1.74969350000000   -3.03349030000000    0.59464210000000
C        -0.36750900000000   -3.48258920000000    0.59464210000000
C         0.25062270000000   -3.03349030000000    1.83090550000000
C        -0.74953540000000   -2.30683290000000    2.59495830000000
C        -1.98579880000000   -2.30683290000000    1.83090550000000
C        -0.25062270000000   -3.03349030000000   -1.83090550000000
C         0.74953540000000   -2.30683290000000   -2.59495830000000
C         1.98579880000000   -2.30683290000000   -1.83090550000000
C         1.74969350000000   -3.03349030000000   -0.59464210000000
C         0.36750900000000   -3.48258920000000   -0.59464210000000
C         2.80757400000000   -1.17575640000000   -1.83090550000000
C         2.42554760000000    0.00000000000000   -2.59495830000000
C         2.80757400000000    1.17575640000000   -1.83090550000000
C         3.42570570000000    0.72665740000000   -0.59464210000000
C         3.42570570000000   -0.72665740000000   -0.59464210000000
C         1.98579880000000    2.30683290000000   -1.83090550000000
C         0.74953540000000    2.30683290000000   -2.59495830000000
C        -0.25062270000000    3.03349030000000   -1.83090550000000
C         0.36750900000000    3.48258920000000   -0.59464210000000
C         1.74969350000000    3.03349030000000   -0.59464210000000
C        -1.58028280000000    2.60145750000000   -1.83090550000000
C        -1.96230920000000    1.42570110000000   -2.59495830000000
C        -2.96246730000000    0.69904370000000   -1.83090550000000
C        -3.19857260000000    1.42570110000000   -0.59464210000000
C        -2.34433560000000    2.60145750000000   -0.59464210000000
C        -2.96246730000000   -0.69904370000000   -1.83090550000000
C        -1.96230920000000   -1.42570110000000   -2.59495830000000
C        -1.58028280000000   -2.60145750000000   -1.83090550000000
C        -2.34433560000000   -2.60145750000000   -0.59464210000000
C        -3.19857260000000   -1.42570110000000   -0.59464210000000
C        -1.00015810000000   -0.72665740000000   -3.32997640000000
C        -1.00015810000000    0.72665740000000   -3.32997640000000
C         0.38202640000000    1.17575640000000   -3.32997640000000
C         1.23626340000000    0.00000000000000   -3.32997640000000
C         0.38202640000000   -1.17575640000000   -3.32997640000000
Cl       -1.84886636902500    0.00000000000000    5.03315507598844
Cl        5.17071685680732    1.08673638218041   -0.91304308807932
62
 energy: -137.515141869310 gnorm: 0.106635363325 xtb: 6.4.1 (a3dbbd7)
C        -1.25253081760306    0.00094643206179    3.35941060954352
C        -0.36423967583202   -1.18011411809644    3.33035798999849
C         0.99588927792589   -0.72415231676918    3.31549891210564
C         0.99516965805251    0.72665580122523    3.32222751435413
C        -0.36847676857333    1.18398496470727    3.33233691438567
C         2.33617786731323   -2.59409234436417    0.58634884257686
C         3.18591012252305   -1.42575104973411    0.58194780386655
C         2.94400785831584   -0.69909365821884    1.81825324627787
C         1.96055025487244   -1.42239197707274    2.57951589060935
C         1.57815270813564   -2.59113708827762    1.81835880367355
C         3.17208378151259    1.42683306010306    0.61370304230493
C         2.32084373255122    2.58526848319557    0.60003557237068
C         1.56973310576629    2.58982554965972    1.83386896693457
C         1.95137240882473    1.42773612870419    2.59363707480979
C         2.93515606935034    0.69895229889509    1.82014857136782
C        -0.36487380461057    3.46691724571669    0.59840030209575
C        -1.73911825814231    3.01821822275747    0.59561603038785
C        -1.97627008406166    2.29573622073356    1.82073699868284
C        -0.74034362870119    2.29548371640557    2.58586210742705
C         0.24811519207359    3.02584771508622    1.82960509380978
C        -3.42024246877444    0.72499658115695    0.57863838411237
C        -3.42006411962790   -0.72108642437929    0.57920679125952
C        -2.79506592448757   -1.16473223021341    1.80564711333482
C        -2.43403644770803    0.00064628242205    2.54742725769495
C        -2.79732841607854    1.16894513379079    1.80515252444198
C        -1.73850279855468   -3.01652537625327    0.59262978567212
C        -0.36438540914086   -3.46538632030106    0.59229003053418
C         0.25489099172868   -3.02069523010184    1.82137584805857
C        -0.73730617047053   -2.29332960878556    2.58179324931272
C        -1.97050179917330   -2.29305819457923    1.82099250253814
C        -0.25215673820753   -3.02097452562729   -1.82166071947912
C         0.74257694915781   -2.29756776953354   -2.58230112012203
C         1.97381092481411   -2.30115137712650   -1.82256604692815
C         1.74088218187895   -3.02493954891293   -0.59582005890306
C         0.36465314683787   -3.46710465407826   -0.59297130418816
C         2.79539070757854   -1.17411172740094   -1.82268132481080
C         2.40333191472185   -0.00428445591821   -2.58245868192937
C         2.76605759641917    1.16453674337873   -1.83028752597365
C         3.48236747840971    0.73522621321412   -0.61036543181751
C         3.43733071406029   -0.74463535080414   -0.60303387218079
C         1.96137062808008    2.28866990753385   -1.82231147677347
C         0.74066617238372    2.29386549627794   -2.58768337961661
C        -0.24915998818366    3.01804209554364   -1.82086659916592
C         0.36655076192821    3.46739664854546   -0.58969360866555
C         1.73490054698857    3.01960474889966   -0.58764356651291
C        -1.57233807276067    2.58885073542823   -1.82152709598940
C        -1.95373222903601    1.41961226748914   -2.58406188972609
C        -2.95003638255472    0.69773907508912   -1.82606742112448
C        -3.18789390701864    1.42277365167239   -0.59897254705859
C        -2.33157391848320    2.58931586723401   -0.59179009290198
C        -2.95118787631531   -0.69478579031650   -1.82545932198073
C        -1.95614769601257   -1.41942305095756   -2.58275167477823
C        -1.57568775993871   -2.58954202001563   -1.82095401564714
C        -2.33452286346412   -2.58885947119563   -0.59212219888235
C        -3.18881772993518   -1.41893353676010   -0.59812895445131
C        -0.99972276010464   -0.72491520969759   -3.31510464763043
C        -0.99928582892116    0.72169031312980   -3.31674075089222
C         0.37562950761147    1.16682282621926   -3.31931059339819
C         1.22209805231010   -0.00346820123029   -3.31962764452163
C         0.37482771494125   -1.17362538370894   -3.31605185292765
Cl       -1.88879709084992    0.00527083149168    5.10435286857850
Cl        5.26569989404055    1.11019313484297   -0.94424923623394
62
 energy: -137.534874195394 gnorm: 0.060085876781 xtb: 6.4.1 (a3dbbd7)
C        -1.29103586699979    0.00135751907403    3.47867661716784
C        -0.34663434651613   -1.17517672966798    3.28943685028427
C         0.98123230941531   -0.71817278870935    3.28182429562362
C         0.98121840239218    0.72827479851291    3.28810013525531
C        -0.35840776151581    1.18486646823472    3.29190637003431
C         2.32304858812016   -2.59009766590050    0.57979923584270
C         3.14946695392037   -1.42104359932399    0.57344672123042
C         2.92513123810567   -0.69945913404426    1.81307881390902
C         1.95897891282113   -1.41879618310659    2.56081846490168
C         1.57169611781086   -2.58234625758977    1.80604040982035
C         3.15371169581280    1.42644829719608    0.63051862220025
C         2.30213414804621    2.56250898863397    0.60057349227651
C         1.55998660035669    2.58513163791940    1.83120920005665
C         1.93888879641088    1.43598926997260    2.58065402338863
C         2.91168855064811    0.70366843900963    1.80048827137624
C        -0.36747158913229    3.45756985586458    0.59854256729976
C        -1.73327038198641    3.00232309298206    0.59438292066754
C        -1.97724021437273    2.28897822943332    1.81054342935751
C        -0.73718904419376    2.28284838927958    2.55956599631040
C         0.24024702113705    3.02243186309747    1.81877488193802
C        -3.40990125849276    0.71852539747711    0.56875567650686
C        -3.40840850057159   -0.71782835763309    0.57013750650712
C        -2.77528665691691   -1.14907965065604    1.79319372426087
C        -2.44172681011656   -0.00150631787577    2.52585021683799
C        -2.78191574878944    1.15388796224690    1.79031086359455
C        -1.72764664775581   -3.00237130245971    0.58733445358538
C        -0.36302080152382   -3.45364737455346    0.58359567434822
C         0.25555546350626   -3.01024040664007    1.80427994881272
C        -0.73069053247475   -2.28002471213181    2.55316616204253
C        -1.95914117675222   -2.28636637915270    1.81296567126205
C        -0.25189216251505   -3.01030826363671   -1.81689254170652
C         0.73641249944080   -2.28838232338803   -2.57475437321881
C         1.95871162406805   -2.29753811320156   -1.81753532284296
C         1.73000933572544   -3.01824267307896   -0.59959904685207
C         0.36183838068240   -3.45795813648813   -0.59736874818490
C         2.76943444872000   -1.16807027481301   -1.80849899899349
C         2.38251218090719   -0.00266834860149   -2.56305627995958
C         2.73798389386787    1.15629790164073   -1.82769140945698
C         3.59690283638278    0.75671027707561   -0.63543911074088
C         3.38757916214507   -0.75262872171911   -0.59883872388519
C         1.94810055352380    2.26889004458087   -1.81578420130201
C         0.73813848280605    2.28207775018970   -2.57740963629483
C        -0.24671341911627    3.00155331089718   -1.81094663531931
C         0.36785917363701    3.45003947788087   -0.58626317909222
C         1.72326499824054    3.00761523848848   -0.58163575140532
C        -1.56465310741848    2.57497744554378   -1.81345560826891
C        -1.94481467230154    1.41199356920214   -2.57460118913671
C        -2.93724418106306    0.69441682124163   -1.82227134583043
C        -3.17559042557118    1.41407907791687   -0.60153153175145
C        -2.32117685375411    2.57398384428819   -0.59156949386286
C        -2.93782844449114   -0.69361497688262   -1.82027708033478
C        -1.94797503515335   -1.41380426624903   -2.57282563638360
C        -1.56961333062016   -2.57855682354149   -1.81342536939864
C        -2.32377371913357   -2.58001139076955   -0.59301447882032
C        -3.17477772531217   -1.41236063046661   -0.59900034711702
C        -0.99666377922247   -0.72271872847227   -3.30298421145761
C        -0.99544430794397    0.71723230330017   -3.30419011185280
C         0.37290613440139    1.15953239770633   -3.30765764990191
C         1.21082126831815   -0.00284640066141   -3.30819993149716
C         0.37060525633564   -1.16912921492269   -3.30543037086806
Cl       -1.94249366187655    0.00449410765738    5.26321593490477
Cl        5.41542762368033    1.13302875197388   -0.97892684795767
62
 energy: -137.538932999348 gnorm: 0.029474372807 xtb: 6.4.1 (a3dbbd7)
C        -1.29769575839995    0.00249284081689    3.49242631498334
C        -0.36390228284504   -1.17275209293614    3.31435112394145
C         0.97125457671915   -0.71699709306638    3.28618751900361
C         0.97200400825219    0.72916142285849    3.29187507322672
C        -0.37565528701452    1.18474345551189    3.31884966964400
C         2.32338781121920   -2.58264648564601    0.57378566201907
C         3.16501857831424   -1.41742878169317    0.56771869765876
C         2.92683057291141   -0.69817198078371    1.80759714029787
C         1.95093730647876   -1.41174855615147    2.55628619579034
C         1.56834145192262   -2.57707955352412    1.80144688742369
C         3.17245747288202    1.42325759125928    0.61344823931459
C         2.31230516982651    2.56330627080431    0.59455674938987
C         1.55911403724419    2.58023167895584    1.82415295806242
C         1.93434018709140    1.42888693350424    2.57407871808749
C         2.91907401074440    0.70360516205807    1.79298915309156
C        -0.37023260027830    3.45522027238903    0.59962365658902
C        -1.73795870400943    3.00131102458290    0.59575028571100
C        -1.98446506311263    2.29041654342491    1.81769079607347
C        -0.74811289404963    2.28408940811244    2.57529961085910
C         0.23552549778091    3.01308706728964    1.81969043161943
C        -3.41057744862305    0.71886511715332    0.57373959643452
C        -3.40777046993182   -0.71824795623972    0.57475758316642
C        -2.77917274098114   -1.14883905537918    1.80475213397496
C        -2.44245154790073   -0.00078835195551    2.54987453118295
C        -2.78820710443433    1.15491252847460    1.80235522687825
C        -1.73019678019212   -3.00113624212549    0.58722620995412
C        -0.36495666655150   -3.45288711339317    0.58214447530717
C         0.25071306994426   -3.00140603439013    1.80366103366666
C        -0.73995224480198   -2.27899234160762    2.56595036042094
C        -1.96318352492246   -2.28582181730887    1.81796687584945
C        -0.25326013800244   -3.01452134881855   -1.82245147610420
C         0.73731213858092   -2.29084731186357   -2.57995221061065
C         1.96163970832429   -2.29392900379063   -1.82147205389886
C         1.73126033883996   -3.01795540299111   -0.60427791680125
C         0.36140716375596   -3.46148150625382   -0.60091542398021
C         2.78030192947829   -1.16566431748714   -1.81261884487008
C         2.39396023696659   -0.00013297782876   -2.56772162372611
C         2.76980667016327    1.16155161051115   -1.83389964887128
C         3.60846992108877    0.75602263936772   -0.64295986830071
C         3.41702634258005   -0.74536312413521   -0.60721701834461
C         1.96188968938712    2.26998468997221   -1.81788674764677
C         0.74250236743535    2.27685945473770   -2.57365562461199
C        -0.24558935777452    2.99856148838440   -1.81034685822219
C         0.36815497089322    3.44698062668713   -0.58476729313555
C         1.72914107179201    3.00880239593513   -0.58387815972925
C        -1.56543210611683    2.57408696001351   -1.81501814843628
C        -1.94771545509689    1.41188662412044   -2.57922590343053
C        -2.94208204734856    0.69423246193553   -1.82560102661861
C        -3.17865534564932    1.41337538046788   -0.60155287933955
C        -2.32405462480505    2.57407162302222   -0.59195346976237
C        -2.94298977105608   -0.69544739741425   -1.82395635732998
C        -1.95212180635729   -1.41680507680620   -2.57833321066464
C        -1.57262261509454   -2.58228278884217   -1.81799924775177
C        -2.32637618891081   -2.58164537164022   -0.59435745289996
C        -3.17715538760472   -1.41248582663476   -0.59873301435729
C        -0.99851543033904   -0.72509054084623   -3.30911523996985
C        -0.99694860388326    0.71644172161874   -3.30989991778469
C         0.37443231057891    1.15760690014522   -3.30881600879990
C         1.21560620536256   -0.00398104975510   -3.30831711170071
C         0.37126221119445   -1.17078535875062   -3.31051544549857
Cl       -1.95074815327800    0.00307961195539    5.26231986133197
Cl        5.41513160939533    1.13296673616926   -0.98502557984669
62
 energy: -137.540071186982 gnorm: 0.018139582599 xtb: 6.4.1 (a3dbbd7)
C        -1.30444773209920    0.00288278073589    3.51537687077454
C        -0.37359766611199   -1.17025530816510    3.32234272619274
C         0.96256416313315   -0.71628677993978    3.28293599954367
C         0.96487433859525    0.72977283028326    3.28716312079330
C        -0.38517341898003    1.18340628285388    3.32668635295815
C         2.32220719039330   -2.57900435500442    0.56979528997755
C         3.16806272596868   -1.41483942928344    0.56506283923662
C         2.92548958743563   -0.69817097645346    1.80593697911721
C         1.94566826308718   -1.40756036154576    2.55211397065053
C         1.56529137664629   -2.57409709762327    1.79767170201456
C         3.17967761321525    1.41985780924237    0.60331801330207
C         2.31791769065488    2.56392298070209    0.58952786197912
C         1.55796261391981    2.57730846054157    1.81741712709766
C         1.92942056220876    1.42430574366428    2.56551815971766
C         2.92221287621109    0.70388592077020    1.78572265743635
C        -0.37212590981245    3.45437394955028    0.59943307080211
C        -1.74109783159220    3.00206179227796    0.59585470932127
C        -1.98920383179242    2.29359458600354    1.82103796389293
C        -0.75326883917124    2.28414690718382    2.57985076671845
C         0.23290176512889    3.00812461732309    1.81775740438884
C        -3.40703468218953    0.71819261736483    0.57731057299537
C        -3.40297559189446   -0.71815040951996    0.57803987609795
C        -2.77800570880373   -1.14759947228371    1.81305277106270
C        -2.43827263841136   -0.00077953659439    2.56292353190499
C        -2.78851317009866    1.15479371117782    1.81005455568783
C        -1.73141413654271   -3.00188867534201    0.58617252427822
C        -0.36629178178773   -3.45235104460166    0.58048868357853
C         0.24824378567722   -2.99680511144353    1.80193194366883
C        -0.74538683790676   -2.27876119406446    2.56983000536046
C        -1.96501333466148   -2.28753514062202    1.82095159439168
C        -0.25350274600865   -3.01807463335507   -1.82574176315111
C         0.73794596516107   -2.29173373451187   -2.58208339676124
C         1.96218708128626   -2.29171942258383   -1.82313425713781
C         1.73131470224404   -3.01840007000119   -0.60710926544195
C         0.36100159068223   -3.46482107840669   -0.60350641536507
C         2.78254209338774   -1.16286101992792   -1.81192440187614
C         2.39842236508399    0.00276790058316   -2.56726020222870
C         2.78796052148878    1.16540817858972   -1.83513577350581
C         3.62550202056211    0.75834571348973   -0.64830426209444
C         3.42364255956903   -0.73911349207098   -0.60879633947391
C         1.96905945270642    2.26914907465935   -1.81834357336082
C         0.74572868819345    2.27326483467460   -2.57054549954389
C        -0.24439017333023    2.99595327152933   -1.80910454576539
C         0.36851746760800    3.44594987828242   -0.58436190973554
C         1.73195389690824    3.01167153194982   -0.58537441763976
C        -1.56549957320165    2.57379898222365   -1.81570983746114
C        -1.94914016607735    1.41176796807944   -2.58077863609178
C        -2.94391501277558    0.69399621811085   -1.82611129385665
C        -3.17898851816614    1.41234776921605   -0.60076677151088
C        -2.32517358652975    2.57415750896778   -0.59225811643854
C        -2.94432419240640   -0.69691100920920   -1.82463177936871
C        -1.95371809698664   -1.41876987855316   -2.58088827502390
C        -1.57351630634488   -2.58512562156432   -1.82064154334537
C        -2.32675647938097   -2.58374297929464   -0.59542873450344
C        -3.17618824323440   -1.41224088072066   -0.59752361109070
C        -0.99919678294201   -0.72611323291875   -3.31186197266184
C        -0.99779978721305    0.71615319231725   -3.31183812823350
C         0.37527587656905    1.15671049151000   -3.30836767888377
C         1.21787931888917   -0.00386468962158   -3.30626276607975
C         0.37188195042687   -1.17079931244660   -3.31167654403509
Cl       -1.95918329298699    0.00081583574753    5.27073167145474
Cl        5.42165645418111    1.13222299024825   -0.98642761682092
62
 energy: -137.540550733560 gnorm: 0.010763783378 xtb: 6.4.1 (a3dbbd7)
C        -1.30771557251096    0.00292898934235    3.53224167983936
C        -0.37712051838518   -1.16833148329853    3.32091911601416
C         0.95823971251552   -0.71634421875723    3.27896981522891
C         0.96176993712463    0.73029984174957    3.28187249764394
C        -0.38869051179487    1.18198904003857    3.32422589237658
C         2.32154394863798   -2.57878275731904    0.56855007593696
C         3.16672952474596   -1.41428673331147    0.56524924837700
C         2.92415874303427   -0.69890157563702    1.80690984566864
C         1.94426973349383   -1.40663838289400    2.55098584355630
C         1.56418847288132   -2.57419360061320    1.79658489866928
C         3.18021580101792    1.41719650806449    0.59871147620630
C         2.31990309479511    2.56465287923858    0.58695120188690
C         1.55757198905503    2.57721652238633    1.81404486368464
C         1.92698218115138    1.42276965631741    2.56043931789034
C         2.92330848751793    0.70429082463873    1.78173715308114
C        -0.37322046986342    3.45553297068557    0.59887513510726
C        -1.74310302981284    3.00447538624134    0.59541198274514
C        -1.99155592262497    2.29675708708706    1.82180678469433
C        -0.75473575131986    2.28470261110272    2.57939119620099
C         0.23207535418505    3.00730660366997    1.81602277765702
C        -3.40357429788739    0.71759895644286    0.57920836729007
C        -3.39878630654108   -0.71789208999080    0.57988311600118
C        -2.77546412152830   -1.14662569986029    1.81754075659319
C        -2.43254805396598   -0.00098523941755    2.56755337436076
C        -2.78662468300571    1.15458996697809    1.81351023444815
C        -1.73179047291191   -3.00415358423176    0.58546177841988
C        -0.36672296988547   -3.45335433210439    0.57981242820593
C         0.24793771180808   -2.99655670285022    1.80128167773863
C        -0.74748453509226   -2.27999311663785    2.57002415955602
C        -1.96548214777740   -2.29006948820012    1.82260392276929
C        -0.25322487378744   -3.02042937763037   -1.82702945051674
C         0.73835686172996   -2.29229889739711   -2.58301694998698
C         1.96176289668296   -2.29115044809435   -1.82363291514677
C         1.73127087916054   -3.01938015838438   -0.60792121021092
C         0.36096084058852   -3.46777069754776   -0.60464518537819
C         2.78050712746496   -1.16092664458862   -1.81009506547582
C         2.39917881285122    0.00489878019618   -2.56624162952269
C         2.79498844897262    1.16773896637506   -1.83419072966599
C         3.63605983262891    0.76031897255402   -0.65010331575465
C         3.41844370848648   -0.73489731685529   -0.60681496937461
C         1.97136910130681    2.26869396458244   -1.81859077570403
C         0.74733985295197    2.27249183935610   -2.56953010807977
C        -0.24384576901727    2.99563112765360   -1.80865370393798
C         0.36852338338177    3.44737000369238   -0.58476632465301
C         1.73258778293209    3.01437535401929   -0.58611623287034
C        -1.56563572499285    2.57476176427176   -1.81637788587060
C        -1.94960007384432    1.41203041335180   -2.58098833858421
C        -2.94408910044810    0.69404756338933   -1.82541904260871
C        -3.17869919029842    1.41208502557781   -0.60004511323511
C        -2.32564270062494    2.57510016964766   -0.59259562781754
C        -2.94379656591466   -0.69760502891307   -1.82382629561934
C        -1.95375065941386   -1.41962162162238   -2.58149863832963
C        -1.57337605417354   -2.58679359771621   -1.82167371231101
C        -2.32618508878249   -2.58556971093987   -0.59574865147080
C        -3.17484210128930   -1.41212602091707   -0.59629749814345
C        -0.99910975918986   -0.72622377924820   -3.31269428573041
C        -0.99814453851847    0.71637162784783   -3.31209719940240
C         0.37553289883218    1.15710618706626   -3.30820773009232
C         1.21873821515778   -0.00321667153267   -3.30508586295571
C         0.37251480746298   -1.17045465177273   -3.31165771986492
Cl       -1.96182023857396   -0.00172573095384    5.27146893318020
Cl        5.42120214900363    1.12870613785262   -0.98257539480475
62
 energy: -137.540720924592 gnorm: 0.005811402985 xtb: 6.4.1 (a3dbbd7)
C        -1.30820931709200    0.00291996508987    3.53895312207139
C        -0.37644284445336   -1.16740256945144    3.31664783916986
C         0.95790353143642   -0.71660241845207    3.27697542457829
C         0.96180656289234    0.73063950071321    3.27927587843668
C        -0.38832479953565    1.18134389407425    3.31930132313721
C         2.32153063746108   -2.57991571423653    0.56901585774581
C         3.16513566757086   -1.41492404971332    0.56633083199078
C         2.92379963401382   -0.69945305943043    1.80826886724965
C         1.94524768264736   -1.40740468809455    2.55161068029660
C         1.56454646049834   -2.57552200388956    1.79717305725344
C         3.17796721395160    1.41609494771638    0.59841146299329
C         2.31929485698361    2.56483319089831    0.58672715562300
C         1.55771149357057    2.57842176655357    1.81387533771158
C         1.92690282306341    1.42342708631991    2.55958792389081
C         2.92311523859745    0.70466561721844    1.78109517493640
C        -0.37346974634288    3.45679290452749    0.59850394058409
C        -1.74367598350396    3.00609928029366    0.59511938889807
C        -1.99199578366035    2.29807048708228    1.82133419115119
C        -0.75429135518654    2.28541541004204    2.57787576208517
C         0.23221120959442    3.00830522161142    1.81534512900068
C        -3.40232736100483    0.71740518090063    0.57959261920453
C        -3.39739668640666   -0.71768142996185    0.58039956124050
C        -2.77388673541131   -1.14614064536364    1.81840042985733
C        -2.42945089625894   -0.00116489074988    2.56678205205646
C        -2.78516504775946    1.15443425096650    1.81360768123806
C        -1.73164935539078   -3.00576577195298    0.58554686365707
C        -0.36649986710584   -3.45452791807539    0.57993635979558
C         0.24860771340055   -2.99799335248062    1.80144817985689
C        -0.74728476213748   -2.28131258904160    2.56927217214021
C        -1.96528330488332   -2.29155460944692    1.82318226614856
C        -0.25292835718614   -3.02091612610650   -1.82687827800420
C         0.73846181738345   -2.29242754239893   -2.58315481404798
C         1.96128551574999   -2.29134900713106   -1.82350866476605
C         1.73130621062232   -3.01987325481551   -0.60756917188096
C         0.36116261101095   -3.46879930299183   -0.60462395793733
C         2.77806744484261   -1.16018862230238   -1.80910779056839
C         2.39862440256108    0.00580020765194   -2.56616262509446
C         2.79455530211127    1.16848449502717   -1.83352722626170
C         3.63919903909869    0.76103053497491   -0.64970514983744
C         3.41131739866568   -0.73347137227823   -0.60468792651893
C         1.97094276218602    2.26879026186665   -1.81901691813919
C         0.74752666420717    2.27332574154540   -2.57008271717082
C        -0.24388001042494    2.99643996593519   -1.80893038995641
C         0.36840683602803    3.44877047966848   -0.58528994625664
C         1.73217151497888    3.01525184131479   -0.58623840477623
C        -1.56573827893984    2.57558176265024   -1.81671921380980
C        -1.94945820613439    1.41223097653027   -2.58075480108332
C        -2.94357486229551    0.69416140015784   -1.82466118858402
C        -3.17842339901376    1.41225549016135   -0.59969436517283
C        -2.32566575328145    2.57580931650099   -0.59274489592889
C        -2.94295865846274   -0.69760593330932   -1.82279414206710
C        -1.95312500464396   -1.41946232632096   -2.58079595020475
C        -1.57296440897261   -2.58699475092798   -1.82135153143616
C        -2.32556932068767   -2.58623810272254   -0.59537005138787
C        -3.17421017523640   -1.41209393139916   -0.59554446842386
C        -0.99866992919829   -0.72585417133714   -3.31204209442808
C        -0.99810658892116    0.71671646399923   -3.31197093702020
C         0.37544455107427    1.15789036922982   -3.30857168762610
C         1.21880345677049   -0.00258670977084   -3.30522015158377
C         0.37292210270750   -1.17010061998255   -3.31132093606425
Cl       -1.95944542979209   -0.00363563922073    5.26534990996898
Cl        5.41594436142640    1.12429149431462   -0.97679406002129
62
 energy: -137.540768249828 gnorm: 0.002758273143 xtb: 6.4.1 (a3dbbd7)
C        -1.30795081888727    0.00297308614142    3.53943191120502
C        -0.37487466699522   -1.16729685284998    3.31439125750966
C         0.95898053706700   -0.71661903470916    3.27694277338738
C         0.96271835389634    0.73077695400580    3.27923233774412
C        -0.38709353521001    1.18146967927655    3.31709288365948