63
 energy: -142.082931365951 gnorm: 0.137833256059 xtb: 6.4.1 (a3dbbd7)
C        -1.29585809763920    0.00401118881931    3.54517689231029
C        -0.36796043466059   -1.17243305044266    3.30515820987539
C         0.98298838984909   -0.72191219210780    3.27512267957929
C         0.98156472691728    0.71960753564614    3.26971969840148
C        -0.37066843430553    1.17924059866277    3.30150764324135
C         2.33648296598357   -2.58548060321166    0.57950289371033
C         3.18657767566203   -1.41946403917212    0.57781419536533
C         2.94957050634668   -0.69854930588343    1.80123308089156
C         1.95308396825138   -1.41752165469557    2.55613481597303
C         1.57961582984989   -2.57968580834158    1.80518673258983
C         3.18767024138397    1.40991878537575    0.57593180017933
C         2.33807592119235    2.57402574463448    0.57591940987423
C         1.57683795447400    2.56605672116665    1.79975339077111
C         1.95304946478205    1.40835201085528    2.55205927541471
C         2.95072023090319    0.68875745027160    1.80098024590342
C        -0.36516779392141    3.42666371311492    0.57921714402649
C        -1.72924376731069    3.01648005687427    0.58287705229366
C        -2.09463355901587    2.46231282969886    1.94730853737491
C        -0.73027134368917    2.28553619224850    2.58224921046650
C         0.24829448370074    2.97593693088527    1.80334175247540
C        -3.37466967439567    0.70300551329579    0.57574930039426
C        -3.39003092771629   -0.73268815670587    0.56838248256510
C        -2.76818811346571   -1.16356142396752    1.78871572205038
C        -2.38904763717889    0.02437925858140    2.53264263708558
C        -2.74834472581071    1.12995086235998    1.81420011509538
C        -1.73481952354600   -3.00995345707075    0.57938225067925
C        -0.36149853487188   -3.44686666226009    0.58178847329193
C         0.25217194576597   -2.99475012297255    1.80551622011247
C        -0.72930832450935   -2.27346636848304    2.56467955460776
C        -1.97147545437730   -2.28746259180062    1.79868366143107
C        -0.24419850633136   -3.01431906314620   -1.82647673825261
C         0.74940205395547   -2.29291975806330   -2.58286291039202
C         1.97453700920709   -2.29239152825096   -1.82543977569151
C         1.74139873391846   -3.01127177396538   -0.59946235539016
C         0.36858334361035   -3.45436466601281   -0.59762914030018
C         2.79442417375665   -1.17031401238235   -1.82833550582627
C         2.41574661868216   -0.00512369138436   -2.58546959698227
C         2.79806943058290    1.16104826437995   -1.83045397159780
C         3.41356646756867    0.71553904959985   -0.60565027126811
C         3.41126633543504   -0.72579612437446   -0.60436594375932
C         1.98256115237360    2.28538932475628   -1.82964816243890
C         0.75350030248264    2.28551308222168   -2.58573232043658
C        -0.23508280223273    3.00436687434747   -1.82344140510130
C         0.37359850933878    3.44286488634390   -0.60220138875814
C         1.74684322375821    3.00246743965493   -0.60372642363152
C        -1.55566653240424    2.56818250404503   -1.80941223602174
C        -1.93859434660526    1.40592010808590   -2.57168095899201
C        -2.93551210472019    0.68461262540438   -1.82146846795257
C        -3.16898901543324    1.39767486955451   -0.59605965569985
C        -2.30435127708354    2.57332623889815   -0.58497549494069
C        -2.94114405324375   -0.70773319319533   -1.83440725651199
C        -1.94505174587464   -1.42387954866205   -2.59102123509086
C        -1.56548890453788   -2.59170746569988   -1.83211639417485
C        -2.32839595521473   -2.59312664308342   -0.60918315809929
C        -3.17773883520354   -1.43218193780650   -0.61434027481289
C        -0.98775846768414   -0.72638522805960   -3.31322849835342
C        -0.98659864734294    0.71557045446948   -3.30737103344774
C         0.38544609972999    1.16109326157285   -3.31071431262535
C         1.23106807690940   -0.00470839623161   -3.31198800118088
C         0.38446650877846   -1.17000629315169   -3.31255499434049
Cl       -1.95494402211016   -0.00808767691631    5.23350834623694
Cl       -3.13453400293270    3.62205440046694    2.87428256889563
Cl        1.13639816001383   -3.48041227591765   -3.89289937321876
63
 energy: -142.107006394810 gnorm: 0.059541295970 xtb: 6.4.1 (a3dbbd7)
C        -1.29655507768982    0.00458922532745    3.54660417675820
C        -0.36840796957457   -1.17157403770805    3.30786564604797
C         0.98271064887014   -0.72089257070393    3.27811151286923
C         0.98091524892712    0.72006464948649    3.27123713278607
C        -0.37098209546031    1.17941428496946    3.30235535866888
C         2.34055530965673   -2.58337706960392    0.58788218051891
C         3.19040355331487   -1.42046720890265    0.58512083363717
C         2.95043429358932   -0.69830929745573    1.80596640022179
C         1.95373487574352   -1.41707596545031    2.56116796399631
C         1.58036528741820   -2.57936046738538    1.81127313434113
C         3.18674501093389    1.41020669246073    0.57728609593835
C         2.33853141934191    2.57516539204442    0.57694385601177
C         1.57679116593886    2.56616217557418    1.79980268255162
C         1.95296261652748    1.40857720259401    2.55285563037415
C         2.95036275515257    0.68908358791020    1.80306319618328
C        -0.36545509317835    3.42753788151101    0.58014361797032
C        -1.72973755104431    3.01741518997642    0.58336372098031
C        -2.09490276908569    2.46239971311272    1.94732509895667
C        -0.73040889038909    2.28569390073232    2.58223418283739
C         0.24809647626801    2.97620259575935    1.80410970223613
C        -3.37549039588591    0.70392514607168    0.57677170882418
C        -3.38884487226520   -0.73192572485865    0.56979143407963
C        -2.76798914929598   -1.16334396112619    1.79127045878938
C        -2.38928581161093    0.02381914857356    2.53360761012940
C        -2.74824536099816    1.12991015959199    1.81296075629749
C        -1.73741222405980   -3.01325568849123    0.58713350999287
C        -0.36531883646049   -3.44711060495706    0.59024298377021
C         0.25221803067202   -2.99464288488599    1.81129564441591
C        -0.72985898507271   -2.27337988371628    2.56938724994640
C        -1.97236502681818   -2.28841595454972    1.80368312820215
C        -0.25116883309257   -3.01158419391442   -1.81069387308504
C         0.77236919000807   -2.36497550495245   -2.65996608816988
C         1.97864622290425   -2.28642480844215   -1.80991522569199
C         1.73929557696786   -3.00134137702789   -0.59271193422089
C         0.36497974012623   -3.44489969592212   -0.59083020601675
C         2.78871241215675   -1.16573347472620   -1.81530512637615
C         2.41301708840223    0.00005259820236   -2.58255286857570
C         2.79584517087626    1.16141076679995   -1.82957043028140
C         3.41235925322919    0.71549929866764   -0.60349329296835
C         3.41461951480874   -0.72495189319608   -0.59817714922907
C         1.98144835954208    2.29029666866835   -1.82919061433936
C         0.75197095154180    2.29490802560945   -2.58589003669339
C        -0.23680739880702    3.01087033257879   -1.82245607218772
C         0.37319979943071    3.44540073675971   -0.60074397686796
C         1.74667412232186    3.00429849298340   -0.60343662811665
C        -1.55743302912948    2.57467790703289   -1.80873148314546
C        -1.94201436232716    1.41455476401684   -2.57212320578385
C        -2.93707049504119    0.68960597918354   -1.82090600947365
C        -3.16966210445352    1.39957771109170   -0.59694545937957
C        -2.30554068298159    2.57599625763906   -0.58434526788603
C        -2.93922463531737   -0.70632291497565   -1.83356896611373
C        -1.94622584665804   -1.41804495389040   -2.58715755047137
C        -1.56427004559720   -2.58475214994126   -1.81865084422545
C        -2.33218294631163   -2.59510833758768   -0.60257419633702
C        -3.17635012871069   -1.43161325365202   -0.61171335097718
C        -0.98447654028301   -0.71346164118979   -3.30613620903313
C        -0.99006299488144    0.72977815185403   -3.30909414021189
C         0.38046569757977    1.17468385322355   -3.31213405397320
C         1.22107036944899    0.00428885445658   -3.30508392845505
C         0.37808574998349   -1.15260014485684   -3.33139955124961
Cl       -1.95524092096859   -0.00765426065661    5.23494865545042
Cl       -3.13490087505656    3.62178777320978    2.87433721381982
Cl        1.16865097661820   -3.58392113007377   -3.99523600019369
63
 energy: -142.112990501621 gnorm: 0.013770204732 xtb: 6.4.1 (a3dbbd7)
C        -1.29732097292338    0.00663288505763    3.54972148054625
C        -0.36908893302848   -1.16969866681053    3.31210003801432
C         0.98202155677292   -0.71883069603147    3.28239040437136
C         0.97948886640382    0.72177496063666    3.27404454528508
C        -0.37193914729438    1.18138986491801    3.30511169778534
C         2.33910011448372   -2.57880748019022    0.58966344043812
C         3.18722890791424   -1.41917736407993    0.58902588314627
C         2.95066691866318   -0.69710120341367    1.81056096511046
C         1.95324240194095   -1.41558490865213    2.56567238637972
C         1.57973552926345   -2.57691928554591    1.81422982322700
C         3.18477852300901    1.41136436277021    0.57925548174037
C         2.33772837668291    2.57730957366659    0.57949844894431
C         1.57563600038273    2.56761929832690    1.80143521719580
C         1.95177739001468    1.40988364106580    2.55461235663447
C         2.94933581055563    0.69048893644273    1.80603851767682
C        -0.36618754936628    3.43036339387710    0.58245559448879
C        -1.73066227234808    3.02015372234216    0.58532822671546
C        -2.09552878298889    2.46431842057436    1.94906435450705
C        -0.73122167359026    2.28748320211477    2.58405223452300
C         0.24698343639060    2.97807162620176    1.80646979892031
C        -3.37526531789742    0.70623766812425    0.57956788626048
C        -3.38722963966550   -0.72992767302409    0.57192326124199
C        -2.76767069954050   -1.16169507897850    1.79481190516741
C        -2.38915126694005    0.02489803134072    2.53587137370088
C        -2.74803896377041    1.13158976237668    1.81357717711535
C        -1.73586774537908   -3.01093947408417    0.59157742009842
C        -0.36648963635109   -3.44247951889850    0.59232301220235
C         0.25178237627132   -2.99224528755106    1.81409847404887
C        -0.73025647664451   -2.27196134076799    2.57397025219337
C        -1.97327565216010   -2.28813258895657    1.80868986764889
C        -0.25221372165497   -3.01577806536861   -1.81127048897806
C         0.79329474112838   -2.43062288928530   -2.72629848062427
C         1.98177824000796   -2.28924617816805   -1.81075069596802
C         1.73565277365283   -2.99000814329323   -0.59575957349685
C         0.36140459288439   -3.43338849567742   -0.59372625494361
C         2.78257652887881   -1.16865739723045   -1.81291256485235
C         2.41305986981398    0.00192557607218   -2.58326910203113
C         2.79108417294336    1.16013890893501   -1.82856370942575
C         3.40792395761492    0.71585077703585   -0.60130931897912
C         3.40624749501255   -0.72399631518494   -0.59619024782266
C         1.98000235042996    2.29431497441923   -1.82696636930133
C         0.75047396869940    2.29890852194819   -2.58296666914275
C        -0.23818480088484    3.01704746724687   -1.82085550485693
C         0.37221462345361    3.44939757178329   -0.59817288837989
C         1.74566905902267    3.00640136229059   -0.60162003307611
C        -1.55915160296919    2.58085046446461   -1.80737483133308
C        -1.94207362784549    1.41870643119266   -2.56920669656609
C        -2.93756777225900    0.69393818022980   -1.81827724076171
C        -3.16925686136019    1.40187741357987   -0.59605279914687
C        -2.30679539123089    2.58022629363171   -0.58247206825336
C        -2.93383286947635   -0.70493958196597   -1.83248816713853
C        -1.94763461016684   -1.41688327742823   -2.58704625533378
C        -1.55815138225267   -2.58408461319134   -1.81599620982180
C        -2.32628777035942   -2.59029555868709   -0.60004981827903
C        -3.17244996953851   -1.42894490014516   -0.60890541911181
C        -0.97649475618110   -0.71290330849430   -3.29855115695821
C        -0.98942301579861    0.73310183384854   -3.30386673501318
C         0.37867969778744    1.17724512621550   -3.30687641633223
C         1.21467186771655    0.00090166932913   -3.29769445912776
C         0.37568810992164   -1.14729218177614   -3.32987146225068
Cl       -1.95708651518669   -0.00525029695084    5.23759119370201
Cl       -3.13675313005806    3.62237447549611    2.87598212807230
Cl        1.19096920918821   -3.65566056485050   -4.07594447192235
63
 energy: -142.113301166324 gnorm: 0.008214542013 xtb: 6.4.1 (a3dbbd7)
C        -1.29787321925148    0.00783531064010    3.55184307237669
C        -0.36950799696973   -1.16885251709159    3.31452922088266
C         0.98171291052793   -0.71783090508371    3.28462052407495
C         0.97887898143009    0.72283468017396    3.27590391525404
C        -0.37250607669686    1.18259148140287    3.30683851768126
C         2.33648386219653   -2.57670834513958    0.58835463707148
C         3.18434317269025   -1.41820308202210    0.58918084212972
C         2.95007592595181   -0.69625972996287    1.81183740905476
C         1.95272201960818   -1.41459900029456    2.56715820634851
C         1.57880405722240   -2.57491522293471    1.81416768425174
C         3.18320144682902    1.41158860174959    0.57996115796835
C         2.33713112480934    2.57825754991068    0.58082568902329
C         1.57498033650238    2.56854952387593    1.80263504129118
C         1.95109303917268    1.41081597304519    2.55595118940237
C         2.94826316960150    0.69124961840690    1.80722824917706
C        -0.36654650400808    3.43195458844250    0.58356119416132
C        -1.73122966772857    3.02168421537166    0.58637377279967
C        -2.09599083701266    2.46553262393715    1.95024057977865
C        -0.73175454866098    2.28860710090853    2.58529757562173
C         0.24634966283747    2.97923681685068    1.80776275731740
C        -3.37496137019861    0.70734582334220    0.58108311200182
C        -3.38583931368930   -0.72889854719444    0.57272561841465
C        -2.76710202365232   -1.16050784598917    1.79626273833980
C        -2.38933849293349    0.02584833211138    2.53754808917532
C        -2.74818534594655    1.13263851064853    1.81463902785205
C        -1.73408372420660   -3.00868831699494    0.59195468454774
C        -0.36547418718611   -3.43935702682244    0.59118245015639
C         0.25150340737329   -2.99009783964029    1.81405422988175
C        -0.73039229161014   -2.27100704834003    2.57573747740121
C        -1.97326265298541   -2.28734105619578    1.81025641573723
C        -0.25077554889569   -3.02244231852181   -1.81836601506275
C         0.79875229531533   -2.44766425796668   -2.74149398928399
C         1.98457728185988   -2.29545141837675   -1.81798007626244
C         1.73494321253770   -2.98786652519114   -0.59920685560319
C         0.36074903283100   -3.43115272854188   -0.59710187099600
C         2.78227911580007   -1.17188134970813   -1.81605331904322
C         2.41477803873355    0.00211515677010   -2.58477539533108
C         2.78944896405096    1.15973946662367   -1.82841198417993
C         3.40458317518458    0.71550041114776   -0.60066768596836
C         3.40068046175428   -0.72422638035263   -0.59682539647083
C         1.97960305406119    2.29520427709133   -1.82571776755844
C         0.75000309433096    2.29881686644499   -2.58125899832381
C        -0.23842927027907    3.01861002721333   -1.82008371451186
C         0.37188527134422    3.45109293060277   -0.59709094420981
C         1.74526909596858    3.00712145199362   -0.60053637078694
C        -1.55951792442264    2.58244397468675   -1.80664756209448
C        -1.94113880513427    1.41893685829473   -2.56739267475541
C        -2.93736734266861    0.69495343603002   -1.81675877203247
C        -3.16897970136304    1.40264262527662   -0.59514543980815
C        -2.30735554420583    2.58196755243613   -0.58156269198111
C        -2.93181970937879   -0.70445427166373   -1.83221743620278
C        -1.94914752246958   -1.41788291020080   -2.58828337715930
C        -1.55604462613907   -2.58671890390940   -1.81902853542101
C        -2.32155962530469   -2.58746057585093   -0.60041617145519
C        -3.16936199548953   -1.42738516704984   -0.60801009327325
C        -0.97356542434428   -0.71616795241037   -3.29729048250988
C        -0.98816642586720    0.73153131566322   -3.30012902222407
C         0.37896346613384    1.17537058417917   -3.30327693854373
C         1.21456299940264   -0.00306417069375   -3.29664956151807
C         0.37650112083923   -1.15007376119688   -3.32608029579595
Cl       -1.95863877257125   -0.00239437925942    5.23946029201927
Cl       -3.13810231051331    3.62273608203985    2.87717860366767
Cl        1.19324094467742   -3.66446614983842   -4.09248579862092
63
 energy: -142.113401041860 gnorm: 0.004698006206 xtb: 6.4.1 (a3dbbd7)
C        -1.29818974407028    0.00822195997607    3.55278121349184
C        -0.36971503427876   -1.16873752753795    3.31583910360858
C         0.98169832588292   -0.71757439021582    3.28575913623642
C         0.97874006136656    0.72313185063527    3.27668300672761
C        -0.37266623525153    1.18284867835191    3.30734845631630
C         2.33469520027773   -2.57531829008915    0.58761471041051
C         3.18307545684011   -1.41763797170006    0.58920561263167
C         2.94999979277628   -0.69581422660775    1.81254035855186
C         1.95272880594149   -1.41415971854954    2.56793278985401
C         1.57821634007070   -2.57369641412480    1.81401410460890
C         3.18273920908433    1.41162393269527    0.58019197177025
C         2.33709173804458    2.57860382836403    0.58129570755287
C         1.57485954406885    2.56883503777871    1.80304645425245
C         1.95094237374620    1.41118444256697    2.55655520440511
C         2.94782612968908    0.69156401333183    1.80769884263000
C        -0.36657238287637    3.43236165366436    0.58368980848893
C        -1.73141867869638    3.02200843874934    0.58651281616866
C        -2.09612708140595    2.46575572547920    1.95052035409760
C        -0.73187006854949    2.28874770037579    2.58547024175317
C         0.24618149046509    2.97944734031625    1.80801647703354
C        -3.37494528928985    0.70762424199482    0.58170020357710
C        -3.38537058593416   -0.72866096355544    0.57294399219612
C        -2.76686215659103   -1.16003621055017    1.79683968036259
C        -2.38962418280646    0.02607604439063    2.53836072750453
C        -2.74841073845060    1.13285043324187    1.81500455443790
C        -1.73335981423131   -3.00758326997924    0.59203891637370
C        -0.36478272734189   -3.43728422760252    0.59052680106827
C         0.25131228264898   -2.98876281082333    1.81388917258935
C        -0.73065626151048   -2.27070748771930    2.57666740783515
C        -1.97348541995552   -2.28706846612238    1.81111394755233
C        -0.24989870833341   -3.02576957800543   -1.82264264286328
C         0.80110201236763   -2.45495326405072   -2.74761262518427
C         1.98592589246229   -2.29865359854606   -1.82234170718551
C         1.73442446441545   -2.98624067427782   -0.60081118319486
C         0.36022608262076   -3.42950232751948   -0.59867771337762
C         2.78231471539584   -1.17329166926993   -1.81769310913293
C         2.41656848991640    0.00270786431881   -2.58567933685781
C         2.78934675911841    1.15984513871120   -1.82853607458284
C         3.40287673358212    0.71521462525504   -0.60041498252972
C         3.39777857059104   -0.72449095886430   -0.59716410390905
C         1.97982820774497    2.29560442226556   -1.82525607872433
C         0.74998425417886    2.29850307553241   -2.58064243652849
C        -0.23838363212482    3.01885054254428   -1.81998809237010
C         0.37192394033773    3.45164935706173   -0.59691658820057
C         1.74536858994879    3.00731914815369   -0.60022025200497
C        -1.55957803156105    2.58269653023625   -1.80656161513707
C        -1.94069956176753    1.41868786168737   -2.56670294069749
C        -2.93762169955117    0.69516991442366   -1.81613154560556
C        -3.16904753600838    1.40267919604445   -0.59491712316861
C        -2.30766739141976    2.58245287380500   -0.58143848051425
C        -2.93154840921659   -0.70441701039149   -1.83233996084559
C        -1.95097470477950   -1.41853349820138   -2.58909514639511
C        -1.55521223424842   -2.58794276721589   -1.82063364900078
C        -2.31897410835336   -2.58607363885035   -0.60063154214019
C        -3.16777473164864   -1.42669397882096   -0.60767343631066
C        -0.97210946596324   -0.71854603411921   -3.29641461485627
C        -0.98731108413866    0.73025826032727   -3.29769519611868
C         0.37922817067549    1.17390333373639   -3.30096282330711
C         1.21506412324901   -0.00553970775514   -3.29593338756627
C         0.37707679647738   -1.15187885386186   -3.32178330900344
Cl       -1.95937149724101   -0.00065560332751    5.24033487586727
Cl       -3.13843291743983    3.62266762488168    2.87756803985040
Cl        1.19186250084496   -3.66153588976899   -4.09678425461822
63
 energy: -142.113441284231 gnorm: 0.002459255633 xtb: 6.4.1 (a3dbbd7)
C        -1.29824044547740    0.00818242991035    3.55279546066393
C        -0.36975165272487   -1.16892134660393    3.31610448122472
C         0.98177000458383   -0.71768675998312    3.28596670912992
C         0.97877812820875    0.72301575492753    3.27664740449361
C        -0.37262252327127    1.18270769081637    3.30715050872878
C         2.33410531640460   -2.57488827729680    0.58752420140607
C         3.18304489774100   -1.41754292688701    0.58930437085482
C         2.95020939596108   -0.69576708649617    1.81283373780114
C         1.95293761432918   -1.41414406709872    2.56815899680202
C         1.57806396711092   -2.57339563880590    1.81397760889807
C         3.18295665726979    1.41156424574636    0.58014560367270
C         2.33726832789384    2.57855135801350    0.58121264584867
C         1.57495202197867    2.56874380931545    1.80292082087619
C         1.95101048793012    1.41116061453909    2.55654549177307
C         2.94780801498969    0.69153326801489    1.80770626104003
C        -0.36649012406269    3.43213961466722    0.58335409388662
C        -1.73138621890481    3.02173348085919    0.58618916700841
C        -2.09606854467460    2.46553155569378    1.95026716448944
C        -0.73179886874758    2.28851471735602    2.58513099519810
C         0.24622955065883    2.97921987686546    1.80772452435889
C        -3.37501145735198    0.70746356006472    0.58167582109804
C        -3.38547093675149   -0.72886703470886    0.57283428398803
C        -2.76678717425479   -1.16007359007319    1.79683846916494
C        -2.38974620731841    0.02591181446023    2.53840559835636
C        -2.74851058721018    1.13266013957590    1.81481915967184
C        -1.73338492429861   -3.00753716485077    0.59211282501959
C        -0.36454360914311   -3.43664128993197    0.59046204618434
C         0.25126032965250   -2.98843118121515    1.81383235087439
C        -0.73084136449031   -2.27080984313120    2.57690320672225
C        -1.97372270599006   -2.28722509473717    1.81143834673570
C        -0.24964821411322   -3.02614178893720   -1.82364694046296
C         0.80175022962869   -2.45695517314859   -2.74940058001861
C         1.98601893479986   -2.29911400885280   -1.82338215074006
C         1.73413683208467   -2.98527479221977   -0.60095823272228
C         0.35990084228707   -3.42853807031730   -0.59882191427637
C         2.78225354406604   -1.17344317442125   -1.81776847954753
C         2.41758561708264    0.00319068737037   -2.58588073023871
C         2.78992729702094    1.16001336681492   -1.82872854700417
C         3.40264736423896    0.71505012592440   -0.60039734807376
C         3.39712116451044   -0.72471260976392   -0.59716107715273
C         1.98022644548382    2.29567873579684   -1.82530240115558
C         0.75016112764855    2.29832911197030   -2.58076119806398
C        -0.23826038411300    3.01852229682310   -1.82021763184320
C         0.37204894778011    3.45151181844601   -0.59716944230933
C         1.74559474222641    3.00720321867744   -0.60038048991540
C        -1.55950024819766    2.58236857308983   -1.80679784200183
C        -1.94068805428852    1.41841259020192   -2.56680826852106
C        -2.93800595115271    0.69499411391771   -1.81614444123704
C        -3.16919907708732    1.40240401736151   -0.59515611411743
C        -2.30772886165761    2.58225254879691   -0.58170606584105
C        -2.93204914323301   -0.70469044312732   -1.83260039007299
C        -1.95213283708449   -1.41878212297679   -2.58930353774801
C        -1.55505160117511   -2.58803603853118   -1.82071495109215
C        -2.31828591023113   -2.58591845600972   -0.60060551970689
C        -3.16750838787377   -1.42673479059660   -0.60766668579270
C        -0.97159576202925   -0.71947541238705   -3.29564839783536
C        -0.98697062191245    0.72977161698439   -3.29683388965383
C         0.37929437399744    1.17332893400638   -3.30015463902527
C         1.21532882651304   -0.00641382547833   -3.29523523838626
C         0.37719843167661   -1.15226211234929   -3.31849249772256
Cl       -1.95941538261552    0.00000289340490    5.24039165686555
Cl       -3.13818462748210    3.62254589861628    2.87736945046005
Cl        1.18935791295556   -3.65445629521904   -4.09548908314385
63
 energy: -142.113453133995 gnorm: 0.001335485430 xtb: 6.4.1 (a3dbbd7)
C        -1.29816745603805    0.00807550822348    3.55247406900538
C        -0.36970810653942   -1.16902807167614    3.31583331152289
C         0.98179785349550   -0.71780147479876    3.28571759593421
C         0.97882320132649    0.72287417241925    3.27635442476138
C        -0.37255631848532    1.18257941062503    3.30684573934062
C         2.33438078942922   -2.57514293698670    0.58775995465158
C         3.18345119884476   -1.41770141762669    0.58940442083814
C         2.95036628708645   -0.69590638934621    1.81282082598511
C         1.95304756618694   -1.41427038141965    2.56806839421896
C         1.57817778287633   -2.57363721323523    1.81405165864820
C         3.18326118527309    1.41149920334209    0.58003427462887
C         2.33739694640701    2.57839258350692    0.58098606454014
C         1.57503522622651    2.56859566853968    1.80267047209424
C         1.95108578742912    1.41102969162894    2.55631091240285
C         2.94793335541605    0.69139606848345    1.80756015516663
C        -0.36643936353198    3.43185933034933    0.58307142599566
C        -1.73129942773822    3.02144592963366    0.58590479505825
C        -2.09599133699889    2.46533199530120    1.94997270326816
C        -0.73173391842340    2.28835934644907    2.58483764888032
C         0.24630196681180    2.97902619303686    1.80743330553645
C        -3.37504837055468    0.70727250487333    0.58144022084314
C        -3.38567214652724   -0.72908321672201    0.57268818142028
C        -2.76677510476802   -1.16025160466838    1.79664944219046
C        -2.38970552069699    0.02574426886031    2.53813309342816
C        -2.74848277820563    1.13248440897409    1.81452334261051
C        -1.73363282935444   -3.00792128616371    0.59218661125002
C        -0.36462352127281   -3.43700340340432    0.59069209609572
C         0.25130418562289   -2.98869755193993    1.81389968532668
C        -0.73085304857197   -2.27095340755796    2.57676640653758
C        -1.97378582893033   -2.28744693212402    1.81140378667824
C        -0.24978860700176   -3.02535867780557   -1.82277326965162
C         0.80160983942301   -2.45652951053826   -2.74930220729298
C         1.98568680897270   -2.29841628909185   -1.82250885104167
C         1.73416028718062   -2.98525655575725   -0.60050393256028
C         0.35987601410957   -3.42852889682028   -0.59837501575962
C         2.78222995062190   -1.17318465375102   -1.81722868698664
C         2.41767102088140    0.00323246678418   -2.58570061204761
C         2.79038576031402    1.16001416835543   -1.82882919345804
C         3.40314756056832    0.71501535682866   -0.60046848980057
C         3.39766905802607   -0.72480984350985   -0.59702439456537
C         1.98043116723534    2.29556477913488   -1.82550247520031
C         0.75031315948344    2.29831262623088   -2.58106385252190
C        -0.23819173006057    3.01823205317681   -1.82042485799800
C         0.37210681899389    3.45120990937175   -0.59740733274557
C         1.74570384645205    3.00702602034523   -0.60062481776898
C        -1.55942394852093    2.58206884450833   -1.80700474807388
C        -1.94083804879118    1.41828861448193   -2.56712510672748
C        -2.93817517336445    0.69477712960856   -1.81637602447341
C        -3.16925240313801    1.40219051286613   -0.59543799681793
C        -2.30763741532537    2.58194019976971   -0.58194326029729
C        -2.93245548882324   -0.70496505956979   -1.83274195824293
C        -1.95226074138756   -1.41879751775384   -2.58914342324303
C        -1.55519139591709   -2.58779990787775   -1.82018234819815
C        -2.31868936107398   -2.58632754436660   -0.60048599196340
C        -3.16790381988526   -1.42705074023869   -0.60775769639443
C        -0.97169674776988   -0.71926282173317   -3.29528500833236
C        -0.98703535595766    0.72989736604328   -3.29714461509080
C         0.37923678904603    1.17345631704562   -3.30045384081144
C         1.21527375522075   -0.00615805151438   -3.29486328319851
C         0.37703988473939   -1.15180772598951   -3.31737916478905
Cl       -1.95920764714533   -0.00012377964746    5.24012256106665
Cl       -3.13796620529161    3.62250819864967    2.87701349940941