63
 energy: -142.113455962180 gnorm: 0.000110766418 xtb: 6.4.1 (a3dbbd7)
C        -1.29812203083285    0.00807635200599    3.55232421531301
C        -0.36967496737382   -1.16894390632243    3.31560228194069
C         0.98175805410151   -0.71775911714957    3.28551619401345
C         0.97881196640352    0.72290390431731    3.27625636937312
C        -0.37256466190329    1.18262191652122    3.30681789744727
C         2.33483902411051   -2.57549037836606    0.58795060984117
C         3.18364524455519   -1.41786443572929    0.58942284003249
C         2.95028938792746   -0.69600845767035    1.81265734521082
C         1.95295827620118   -1.41432020228635    2.56792815368097
C         1.57830252484742   -2.57389576150980    1.81414338679421
C         3.18320929015583    1.41143905600258    0.57998119381727
C         2.33735469730707    2.57830708693756    0.58088814710444
C         1.57501498688704    2.56855875483657    1.80257644529827
C         1.95107200367186    1.41098436919525    2.55619313677635
C         2.94797321406199    0.69133437680620    1.80748440503321
C        -0.36645381360666    3.43182153044769    0.58306472977579
C        -1.73126696185193    3.02144105903550    0.58589646281982
C        -2.09599324703185    2.46536306165026    1.94992824092106
C        -0.73175502264265    2.28843152940405    2.58486612290893
C         0.24630551217967    2.97905698690511    1.80741972076924
C        -3.37501563194212    0.70724808075004    0.58133106316761
C        -3.38563554322919   -0.72907853268245    0.57267655812795
C        -2.76678271779180   -1.16030600386829    1.79658101427989
C        -2.38961977414298    0.02576315753115    2.53798231760517
C        -2.74841957256184    1.13250506540126    1.81446298742956
C        -1.73368501077740   -3.00811891713772    0.59222262661401
C        -0.36478943276599   -3.43749809799847    0.59086925671804
C         0.25136137254821   -2.98897182336830    1.81400558344388
C        -0.73074297377055   -2.27093651075753    2.57661545887007
C        -1.97365078792184   -2.28745109458862    1.81123345325226
C        -0.25000741299009   -3.02504478878283   -1.82175548002282
C         0.80146628275397   -2.45607531642905   -2.74915794328213
C         1.98566826106990   -2.29804868476834   -1.82148553133033
C         1.73436241289710   -2.98585967368439   -0.60021075678189
C         0.36007390917340   -3.42912586491571   -0.59808402220373
C         2.78234392953015   -1.17314241478344   -1.81695682922473
C         2.41724407403977    0.00287222176264   -2.58552380960053
C         2.79031071918252    1.15981852521151   -1.82879706083939
C         3.40350487491393    0.71501873906765   -0.60051884910059
C         3.39829001456167   -0.72479505948440   -0.59695107138970
C         1.98031019248323    2.29538144665785   -1.82561305360647
C         0.75032499566949    2.29833413339098   -2.58116213861898
C        -0.23821454975861    3.01825244565928   -1.82045398401609
C         0.37207579561995    3.45109307485965   -0.59744212563846
C         1.74563018785806    3.00692096734584   -0.60071258882914
C        -1.55941633801679    2.58208097871981   -1.80702259394580
C        -1.94089157424285    1.41830660476479   -2.56722659039147
C        -2.93798991618223    0.69470813577807   -1.81650072301402
C        -3.16915061802653    1.40217908797817   -0.59548649650173
C        -2.30753792313946    2.58185608552177   -0.58196348279073
C        -2.93232809458841   -0.70504025751299   -1.83267447835133
C        -1.95168890188689   -1.41880226964683   -2.58895784627945
C        -1.55531720648576   -2.58780733073360   -1.81989213307197
C        -2.31921589022581   -2.58663735271051   -0.60041657812147
C        -3.16819351191220   -1.42722740957880   -0.60778778013895
C        -0.97201595080669   -0.71867927872907   -3.29541997594559
C        -0.98723739074609    0.73018469579474   -3.29781502092123
C         0.37919153588286    1.17379069113387   -3.30108786386413
C         1.21511499281240   -0.00558252698384   -3.29495230893757
C         0.37687216440877   -1.15130664932434   -3.31821010179048
Cl       -1.95914258766594   -0.00051333048774    5.23997112782557
Cl       -3.13804043928303    3.62257941829098    2.87685165674167
Cl        1.18722549808311   -3.64756802882105   -4.09207304652304
