61
Properties=species:S:1:pos:R:3 energy:=T -132.999445565435=T gnorm:=T 0.000281642120=T xtb:=T 6.4.1=T (a3dbbd7)=T pbc="F F F"
C       -1.29787642       0.00000001       3.53202117
C       -0.37104481      -1.17482543       3.31059262
C        0.97976516      -0.72156108       3.28104713
C        0.97976516       0.72156108       3.28104713
C       -0.37104480       1.17482544       3.31059261
C        2.33542477      -2.58262368       0.58344648
C        3.18204998      -1.41541573       0.58232164
C        2.94371439      -0.69403081       1.80704033
C        1.95046028      -1.41556331       2.56175471
C        1.57765656      -2.57867331       1.80910635
C        3.18204999       1.41541572       0.58232164
C        2.33542478       2.58262366       0.58344648
C        1.57765657       2.57867331       1.80910634
C        1.95046029       1.41556331       2.56175471
C        2.94371439       0.69403080       1.80704033
C       -0.36121076       3.44514295       0.58582584
C       -1.73469665       3.00153729       0.58916988
C       -1.97222481       2.29311493       1.81061578
C       -0.73399995       2.27688767       2.56852066
C        0.25309261       2.99783527       1.80896440
C       -3.39644112       0.71758396       0.57410459
C       -3.39644112      -0.71758395       0.57410460
C       -2.77162062      -1.14961447       1.80663983
C       -2.42167808       0.00000001       2.56057409
C       -2.77162062       1.14961449       1.80663983
C       -1.73469667      -3.00153728       0.58916989
C       -0.36121077      -3.44514295       0.58582584
C        0.25309259      -2.99783527       1.80896441
C       -0.73399996      -2.27688767       2.56852067
C       -1.97222482      -2.29311492       1.81061578
C       -0.24585750      -3.00970010      -1.82231348
C        0.74437854      -2.28840469      -2.57821406
C        1.97266852      -2.28859743      -1.82114066
C        1.74029468      -3.00828365      -0.59623199
C        0.36724166      -3.45112319      -0.59442677
C        2.79025577      -1.16550191      -1.82330221
C        2.41075474      -0.00000001      -2.58030011
C        2.79025578       1.16550189      -1.82330221
C        3.40596463       0.72108335      -0.59876616
C        3.40596463      -0.72108337      -0.59876616
C        1.97266853       2.28859742      -1.82114067
C        0.74437855       2.28840468      -2.57821406
C       -0.24585749       3.00970010      -1.82231349
C        0.36724168       3.45112319      -0.59442677
C        1.74029470       3.00828364      -0.59623200
C       -1.56846054       2.58048541      -1.82120276
C       -1.94728839       1.41533158      -2.58356903
C       -2.94242063       0.69433934      -1.82975460
C       -3.17477337       1.41443839      -0.60325813
C       -2.32688214       2.58112377      -0.60085951
C       -2.94242063      -0.69433933      -1.82975460
C       -1.94728839      -1.41533157      -2.58356903
C       -1.56846055      -2.58048541      -1.82120276
C       -2.32688216      -2.58112376      -0.60085951
C       -3.17477338      -1.41443837      -0.60325813
C       -0.99138630      -0.72097083      -3.31026333
C       -0.99138630       0.72097083      -3.31026333
C        0.38053784       1.16547456      -3.30881398
C        1.22667970      -0.00000001      -3.30781190
C        0.38053783      -1.16547457      -3.30881397
Cl      -1.93714244       0.00000009       5.25460420
