63
Properties=species:S:1:pos:R:3 energy:=T -142.119093137871=T gnorm:=T 0.000145677455=T xtb:=T 6.4.1=T (a3dbbd7)=T pbc="F F F"
C       -1.30947088       0.00798808       3.56300233
C       -0.37350471      -1.15137676       3.26609402
C        0.95261755      -0.70862937       3.26942134
C        0.96157442       0.71482609       3.25104385
C       -0.39331480       1.17674649       3.27804427
C        2.30965159      -2.56704903       0.58193014
C        3.15804264      -1.39892975       0.58259688
C        2.95336828      -0.69123796       1.80281547
C        2.07880858      -1.51206675       2.72366324
C        1.57617820      -2.59366504       1.79931257
C        3.17118250       1.40857624       0.57583434
C        2.32697398       2.57573746       0.57727108
C        1.56933895       2.57321005       1.80425507
C        1.94336689       1.42342135       2.55887367
C        2.93580166       0.68445022       1.79648972
C       -0.36684506       3.44082617       0.57723095
C       -1.73890701       2.99952700       0.57160283
C       -1.98840119       2.28591023       1.79197386
C       -0.74671426       2.28628442       2.56287833
C        0.24053383       3.00172407       1.80201466
C       -3.37000088       0.72463249       0.56965787
C       -3.36434857      -0.71563174       0.57244934
C       -2.78318341      -1.15877475       1.79219612
C       -2.63902816       0.00734328       2.74741485
C       -2.78922937       1.17487788       1.79244583
C       -1.72667258      -2.98561464       0.56733143
C       -0.35957480      -3.43057592       0.56841756
C        0.25387368      -2.98895956       1.79270648
C       -0.74630994      -2.28644168       2.56626438
C       -1.96634317      -2.26778677       1.79286667
C       -0.24302479      -3.00850260      -1.84508684
C        0.74908756      -2.28763704      -2.59928714
C        1.97242849      -2.28528596      -1.83402241
C        1.73291083      -3.00465810      -0.61083982
C        0.36872989      -3.44761247      -0.61480736
C        2.78875716      -1.16250725      -1.83336737
C        2.41373435       0.00229833      -2.59349297
C        2.79338140       1.16784389      -1.83473964
C        3.40397939       0.72012111      -0.60902327
C        3.39900133      -0.71445711      -0.60626924
C        1.97380146       2.28880851      -1.83019279
C        0.74969622       2.29005619      -2.58964216
C       -0.24349411       3.00903266      -1.83254180
C        0.36567048       3.45128081      -0.60448433
C        1.73731013       3.00610454      -0.60299971
C       -1.56532070       2.58381200      -1.84131790
C       -1.94159603       1.41790677      -2.60151627
C       -2.93239949       0.69677634      -1.84622328
C       -3.16310633       1.41861244      -0.61772979
C       -2.32588472       2.58144172      -0.61824494
C       -2.93137608      -0.69041187      -1.84417577
C       -1.94066405      -1.41320555      -2.60445775
C       -1.56319036      -2.57891952      -1.84684748
C       -2.31903911      -2.57218341      -0.61936195
C       -3.15996885      -1.41101019      -0.61887169
C       -0.98372267      -0.71785518      -3.33299319
C       -0.98359913       0.72381958      -3.33125371
C        0.38629220       1.16795805      -3.32543768
C        1.23351725       0.00319137      -3.32591628
C        0.38619444      -1.16350353      -3.32988060
Cl      -1.60034709      -0.01622596       5.34870543
Cl      -4.10105745       0.00503971       3.81733748
Cl       3.05980476      -2.22176447       4.10010085
