66
Properties=species:S:1:pos:R:3 energy:=T -155.832320095212=T gnorm:=T 0.000316535326=T xtb:=T 6.4.1=T (a3dbbd7)=T pbc="F F F"
C       -1.28921659      -0.00125270       3.50491926
C       -0.37008846      -1.17431739       3.22108949
C        0.89945225      -0.72779366       3.14790897
C        0.89947711       0.72549469       3.14823101
C       -0.37008619       1.17194795       3.22160190
C        2.29583540      -2.56848827       0.56166720
C        3.13107301      -1.39463833       0.56532166
C        2.91897132      -0.68559069       1.78499875
C        2.07166219      -1.53102016       2.71123749
C        1.56140138      -2.61407247       1.78452312
C        3.13109147       1.39358220       0.56596751
C        2.29579041       2.56739381       0.56283836
C        1.56135737       2.61240232       1.78571264
C        2.07169179       1.52895755       2.71193651
C        2.91918491       0.68401042       1.78538234
C       -0.34973069       3.43721344       0.56323644
C       -1.71493724       2.98133402       0.56273499
C       -1.96404087       2.29192913       1.79011443
C       -0.80252737       2.50549974       2.73838899
C        0.26192342       3.04250375       1.79191292
C       -3.32888114       0.71808132       0.56539819
C       -3.32882190      -0.71933253       0.56505609
C       -2.74091458      -1.17148801       1.78488750
C       -2.62330477      -0.00111160       2.73894236
C       -2.74098536       1.16970901       1.78544190
C       -1.71487367      -2.98255654       0.56137821
C       -0.34965305      -3.43840179       0.56168035
C        0.26198716      -3.04422828       1.79053663
C       -0.80247239      -2.50767751       2.73726184
C       -1.96398390      -2.29371126       1.78907413
C       -0.24258454      -3.01057658      -1.85983421
C        0.74786657      -2.29042301      -2.61912485
C        1.97045483      -2.28865410      -1.85816939
C        1.72950645      -3.00583153      -0.63069189
C        0.36961581      -3.44994781      -0.63058175
C        2.78351135      -1.16501145      -1.85560923
C        2.40972219       0.00015918      -2.61592438
C        2.78346964       1.16500688      -1.85508986
C        3.37921122       0.71487719      -0.62230060
C        3.37927489      -0.71541692      -0.62262888
C        1.97040234       2.28863370      -1.85714048
C        0.74782552       2.29069844      -2.61809981
C       -0.24263260       3.01048695      -1.85847602
C        0.36953923       3.44932586      -0.62902041
C        1.72943023       3.00523711      -0.62932847
C       -1.56100023       2.58116806      -1.85886934
C       -1.94153890       1.41642778      -2.61766448
C       -2.92704312       0.69373323      -1.85542078
C       -3.14319908       1.41047400      -0.62437587
C       -2.30763305       2.57155617      -0.62634626
C       -2.92721377      -0.69394341      -1.85579505
C       -1.94159504      -1.41624407      -2.61832174
C       -1.56098304      -2.58130744      -1.86004607
C       -2.30760515      -2.57226720      -0.62751533
C       -3.14322759      -1.41121784      -0.62502699
C       -0.98697415      -0.72031435      -3.35096162
C       -0.98693339       0.72086031      -3.35063978
C        0.38324327       1.16644597      -3.35053007
C        1.22956055       0.00029653      -3.35042409
C        0.38323833      -1.16586007      -3.35104708
Cl      -1.52259225      -0.00160804       5.29566388
Cl      -4.07064329      -0.00144911       3.81543691
Cl       2.98946119      -2.16955227       4.12267602
Cl       2.98935509       2.16696271       4.12371217
Cl      -1.19536536       3.65536361       4.07073655
Cl      -1.19526961      -3.65814325       4.06908163
