63
 energy: -142.066286911311 gnorm: 0.135715209584 xtb: 6.4.1 (a3dbbd7)
C        -1.29380189142293    0.00518810975266    3.53475042546279
C        -0.36795491470580   -1.17109445736895    3.30532490038581
C         0.98604358283337   -0.72205662153057    3.28338601634011
C         0.99279845569028    0.71960958020434    3.28670177220412
C        -0.35984581254024    1.17608479242461    3.30752732760340
C         2.33713649004571   -2.58532145161085    0.58372316331785
C         3.18546133793759   -1.42134997264655    0.58338208878717
C         2.95082976620164   -0.69852042803930    1.80993186584047
C         1.95446102216782   -1.41753025851411    2.56281800021944
C         1.57847833033781   -2.57892028349053    1.80920393433954
C         3.19288167803387    1.41169296432545    0.58672865582473
C         2.35105136029066    2.58084981847724    0.59261819528430
C         1.59758832697668    2.57820008875605    1.81796532275165
C         1.96559431354784    1.41132811232743    2.56849274624772
C         2.95756435296723    0.68790137312963    1.81257795942740
C        -0.35275196897409    3.42887133849168    0.59421742049523
C        -1.72920692229924    2.99230129003520    0.61519127722458
C        -1.95197042618735    2.29668273330733    1.78890012206403
C        -0.71485852606077    2.27608556030605    2.56877936383865
C         0.27214507062583    2.99541427636099    1.81693304163630
C        -3.38721742288295    0.70448508843178    0.56514887497333
C        -3.39044375775274   -0.72968934853056    0.56550558817146
C        -2.77113539472441   -1.15912612265277    1.79248966840215
C        -2.41317429079729    0.01751644177935    2.54950357180152
C        -2.77182627205049    1.13563561134442    1.81994410998792
C        -1.73355122268659   -3.00708034664607    0.58129730270537
C        -0.36181166270692   -3.44426421951826    0.58345136711438
C         0.25275073307619   -2.99321810486982    1.80880479424469
C        -0.73039712791208   -2.27135950943121    2.56586851742324
C        -1.97279304600038   -2.28576170766145    1.80102269682824
C        -0.24238615112945   -3.01793584622875   -1.82445515299701
C         0.75219722331257   -2.29732681147523   -2.58092298223561
C         1.97624114646521   -2.29597968001587   -1.82132020587332
C         1.74307643045859   -3.01315945447727   -0.59635165459212
C         0.36952394179264   -3.45595661079619   -0.59532061061890
C         2.79389381083502   -1.17006079615157   -1.82189978789697
C         2.41348009957297   -0.00705489229052   -2.57818086595715
C         2.78999064750528    1.16020365821852   -1.81761248140956
C         3.41015703318610    0.71618948342090   -0.59477681854074
C         3.40904188499398   -0.72628404265143   -0.59717927367984
C         1.96766155284354    2.27743617061842   -1.80961098452332
C         0.73818631315969    2.27318131636995   -2.56526366176596
C        -0.25452817372238    2.98697308127654   -1.81304848877457
C         0.37433917950606    3.44714002836196   -0.57954542322151
C         1.74069841374485    3.00184911275993   -0.58628229109115
C        -1.56594286660743    2.57622153348487   -1.82757382821072
C        -1.93060359076478    1.40833920854940   -2.56142004737257
C        -2.92558718059454    0.68471965133326   -1.80985060540908
C        -3.18336452045091    1.39842201201719   -0.60046258538095
C        -2.49261081939282    2.74597890286004   -0.64190319443319
C        -2.93337982074983   -0.70819502150591   -1.82878957204493
C        -1.94087750651851   -1.42668590891227   -2.58871417977512
C        -1.56447467303262   -2.59492957963295   -1.83010971308821
C        -2.32899579696595   -2.59691491413030   -0.60898361949216
C        -3.17400858337551   -1.43281811038797   -0.61332327338214
C        -0.98438829443742   -0.73034962028861   -3.31153930258603
C        -0.98168514679102    0.71067458913262   -3.30542238699281
C         0.38278275322509    1.15383295034001   -3.30684835980828
C         1.23382314639336   -0.00939761816394   -3.31093861539930
C         0.38818347913191   -1.17531879821918   -3.31264620408259
Cl       -1.92621810876854    0.00794379942123    5.24496950921280
Cl       -3.69873659772651    4.07913281862690   -0.94789575544924
Cl        3.53271726845718   -3.90598583034618    0.90392966080448
63
 energy: -142.090132411432 gnorm: 0.057906806892 xtb: 6.4.1 (a3dbbd7)
C        -1.29606189889450    0.00900728223067    3.53662466703083
C        -0.37072147182431   -1.16700284234644    3.31053275654127
C         0.98036778688498   -0.71695921015052    3.28811443685830
C         0.99066792982838    0.72434854580868    3.28869897379041
C        -0.36207765182312    1.17998741956150    3.30939746368476
C         2.40971207568644   -2.66437142726661    0.60432229502420
C         3.18315366532376   -1.40531993052211    0.58418069477589
C         2.94346131322616   -0.69092364553671    1.80505259202674
C         1.94543323744593   -1.41065506499766    2.55799289383324
C         1.56805237052383   -2.56837247446238    1.81554380680651
C         3.19457962418086    1.41852168923733    0.58930085971557
C         2.35001422508125    2.58516773983387    0.59397853044980
C         1.59641969153641    2.58265952009056    1.81937402231527
C         1.96398899870927    1.41650205627025    2.57013769387883
C         2.95786111106749    0.69682574859361    1.81316497675086
C        -0.35391814768818    3.43038646592869    0.59437194697971
C        -1.73048621831436    2.99335541068745    0.61514029585357
C        -1.95353755387988    2.29809985293520    1.78881321717856
C        -0.71671733173627    2.27881097667030    2.56911862771469
C         0.27037992318400    2.99833670452887    1.81734114039086
C        -3.38792662225248    0.70514864718417    0.56513068957854
C        -3.39129381635045   -0.72875975384536    0.56563336103864
C        -2.77181430565657   -1.15769851593601    1.79283364947975
C        -2.41423273660497    0.01910224414380    2.54995482883021
C        -2.77287655174147    1.13669855558581    1.81989398693689
C        -1.73305095603889   -3.00543805400155    0.58045797491630
C        -0.36536511053160   -3.44107547938304    0.58085533686606
C         0.24780781432956   -2.98000895550648    1.80744797750960
C        -0.73466023376868   -2.26752223669358    2.56962799695778
C        -1.97356116631279   -2.28381203912732    1.80158665283599
C        -0.25043055079860   -3.01601349886461   -1.83525461880721
C         0.74284470955589   -2.29651414325912   -2.59122563242625
C         1.96254325941121   -2.29169931827652   -1.82253240320914
C         1.73678425260978   -3.02713530055151   -0.61721292358073
C         0.36529573027296   -3.44500533149155   -0.60328956333746
C         2.78898911371011   -1.16746323411572   -1.82383094507503
C         2.41133841075038   -0.00707427546833   -2.57737469904955
C         2.78848677003674    1.16138781335871   -1.81632030766504
C         3.41101734374928    0.72293002948529   -0.59379757262279
C         3.39907611813763   -0.71689135639407   -0.59389857543237
C         1.96646339079059    2.27842562949653   -1.80885027609783
C         0.73761285197865    2.27420046464897   -2.56521700574630
C        -0.25508144233830    2.98752589867043   -1.81288502121818
C         0.37333653536769    3.44805179621519   -0.57933140661720
C         1.73979729554932    3.00346059349971   -0.58561475531849
C        -1.56678288734734    2.57730920190215   -1.82752446334054
C        -1.93193910961650    1.40967322089762   -2.56183331041950
C        -2.92684462088122    0.68605123602817   -1.81029680522005
C        -3.18429611505591    1.39948281835513   -0.60044248709888
C        -2.49335814783678    2.74669300220414   -0.64197873241302
C        -2.93580735290400   -0.70641308886267   -1.82986975202443
C        -1.94537894507156   -1.42433038879235   -2.59231326995905
C        -1.57098276523711   -2.59382553220127   -1.83565699770641
C        -2.33188831688738   -2.59572436529284   -0.61151174025750
C        -3.17514036132463   -1.43197023780056   -0.61400585524248
C        -0.98884086415809   -0.72790539078069   -3.31525763213390
C        -0.98383792909324    0.71270812991995   -3.30677247825986
C         0.38169291470769    1.15458679188188   -3.30767651376556
C         1.23097880187001   -0.00804267358953   -3.31439628178224
C         0.38313044368612   -1.17306557327708   -3.31963156424341
Cl       -1.92837802416660    0.00991524106940    5.24627906906181
Cl       -3.69942896159272    4.08011723921470   -0.94779011807820
Cl        3.63568111312021   -4.01204549928375    0.93558762741700
63
 energy: -142.095938320594 gnorm: 0.013231686266 xtb: 6.4.1 (a3dbbd7)
C        -1.29863541808633    0.01246074365459    3.53775853194089
C        -0.37157422756735   -1.16192856565573    3.30737420668896
C         0.97650945681080   -0.71433372891023    3.28362421402012
C         0.98822551908050    0.72709230329377    3.28733261114649
C        -0.36461098987895    1.18371562111247    3.30955884224852
C         2.47360764034949   -2.73154547259433    0.62450987974435
C         3.18836971676610   -1.40587650245161    0.58550290619118
C         2.93759016017620   -0.69170358622801    1.79540948721613
C         1.93889576932669   -1.41158016525720    2.54723412717268
C         1.56996167992851   -2.57122059582634    1.81880235796031
C         3.19021498128587    1.42056642741522    0.59049299402809
C         2.34814182474116    2.58961909868779    0.59466217091920
C         1.59396284158235    2.58634389627778    1.81977239126077
C         1.96148404758511    1.41907414591779    2.56906022467612
C         2.95458372757691    0.69876286675464    1.81059298259306
C        -0.35648958845191    3.43344708818463    0.59442320730016
C        -1.73331050039132    2.99637216767743    0.61495716863239
C        -1.95628829806031    2.30132642379676    1.78865522076828
C        -0.71953678638184    2.28264635070510    2.56926620341339
C         0.26754934808306    3.00219985636833    1.81747968606471
C        -3.38946665709733    0.70749999807195    0.56458678343576
C        -3.39287947530994   -0.72612778155516    0.56510823088557
C        -2.77208295389440   -1.15513768321315    1.79180994664824
C        -2.41590205350404    0.02184127657468    2.54983124218932
C        -2.77471648407888    1.13925702627480    1.81951313463721
C        -1.73016128025846   -3.00291727924373    0.57862421656785
C        -0.36622822422935   -3.44266221363447    0.58039784744168
C         0.25244678591784   -2.97597227660741    1.80538159523124
C        -0.73237756093599   -2.26167740954920    2.56349566073685
C        -1.97268988070395   -2.28041333257991    1.79947445373829
C        -0.25231164205770   -3.01035508147042   -1.83525773578646
C         0.73905511036026   -2.29217746804940   -2.58995589623539
C         1.95736338011301   -2.28950251929545   -1.81436850231602
C         1.73309233640650   -3.02557180182727   -0.62003341637426
C         0.36980088914381   -3.43596151151249   -0.60213975158215
C         2.78898698520306   -1.16775108797756   -1.82525641472580
C         2.40763940734903   -0.00845723614844   -2.57429413782379
C         2.78393463135581    1.16142837481848   -1.81436487366011
C         3.40284378983567    0.72141294930675   -0.59131247425064
C         3.39505304242812   -0.71882171536044   -0.58870697677373
C         1.96358998893702    2.27975028050205   -1.80821085886205
C         0.73504527889923    2.27641983059175   -2.56512685881701
C        -0.25756780936037    2.98933625425031   -1.81276740445143
C         0.37082535859570    3.45003830930199   -0.57926105164891
C         1.73756530796227    3.00614519197523   -0.58527275406977
C        -1.56958115864479    2.58000684450299   -1.82779810560106
C        -1.93482099964640    1.41242344771699   -2.56266253323115
C        -2.92952389894834    0.68877481332060   -1.81111314666469
C        -3.18668809252814    1.40232418646027   -0.60094550942320
C        -2.49577304569533    2.74928477203403   -0.64223264162501
C        -2.93887386151483   -0.70351378606930   -1.83125281231552
C        -1.94953878316891   -1.42170697223896   -2.59508114434254
C        -1.57340297538911   -2.59011952967606   -1.83697939777797
C        -2.33423299323168   -2.59301448234698   -0.61306266748698
C        -3.17646596456380   -1.42971551291280   -0.61471588512801
C        -0.99293296114983   -0.72504268237600   -3.31822114811943
C        -0.98727321843008    0.71566437640862   -3.30817708294988
C         0.37931850198355    1.15638399110464   -3.30784952457153
C         1.22764108967450   -0.00560164666873   -3.31584427695285
C         0.37953655349046   -1.16996121495773   -3.32033828538118
Cl       -1.93273287387083    0.01539322591485    5.24665344428282
Cl       -3.70211351519526    4.08285635730234   -0.94809909115072
Cl        3.70819967586120   -4.09305852602430    0.95225372519848
63
 energy: -142.096235281957 gnorm: 0.007937246180 xtb: 6.4.1 (a3dbbd7)
C        -1.29925346987859    0.01358960709516    3.53700867754776
C        -0.37135356206059   -1.16055622764077    3.30519088854700
C         0.97598963540068   -0.71386597974286    3.27953307048405
C         0.98698226902237    0.72756198435720    3.28524549368120
C        -0.36565823601420    1.18527023114627    3.30899232775393
C         2.48967208445870   -2.74729868342448    0.63071402591945
C         3.19559068117481   -1.41254130058057    0.58684085157551
C         2.93736944088872   -0.69420927097212    1.79236725584166
C         1.93839124930476   -1.41413243987475    2.54380873578554
C         1.57584924020745   -2.57870395550275    1.82086133115567
C         3.18740598824551    1.41987833222151    0.59047959625538
C         2.34691995699113    2.59083188551260    0.59458737183188
C         1.59265064146420    2.58759326107115    1.81946288289188
C         1.95986338330339    1.41913227468460    2.56735995192734
C         2.95203819543854    0.69723176344979    1.80905173298498
C        -0.35796293405544    3.43548574522071    0.59445355700529
C        -1.73498747596896    2.99841054586453    0.61480829559765
C        -1.95786158756100    2.30337322430552    1.78862643379171
C        -0.72092434391702    2.28463466284790    2.56935112182854
C         0.26623824064041    3.00424075614280    1.81749353873121
C        -3.39053472112089    0.70894009971999    0.56421199266881
C        -3.39358312426203   -0.72469110801517    0.56484800455130
C        -2.77140131350115   -1.15369467540461    1.79085721023386
C        -2.41635855697862    0.02336573867176    2.54903164434465
C        -2.77584641085798    1.14090520563393    1.81917595405351
C        -1.72906966807305   -3.00228621292346    0.57799985428855
C        -0.36651044339107   -3.44503937106041    0.58122375278254
C         0.25612485809767   -2.97878427888291    1.80566832797798
C        -0.72964736731870   -2.25993704742032    2.55992389558137
C        -1.97095931943270   -2.27845996839243    1.79781250653262
C        -0.25149345137230   -3.00739572259614   -1.83252740060020
C         0.73909840156972   -2.28967669269786   -2.58661330973168
C         1.95877463166623   -2.28991384194578   -1.81024791865286
C         1.73395757889223   -3.02287094381459   -0.61615427086831
C         0.37327250534097   -3.43498078987922   -0.59947648276086
C         2.79089478989521   -1.16822627042267   -1.82628772837953
C         2.40640124797764   -0.00906921113726   -2.57330637616979
C         2.78105936379238    1.16050220918408   -1.81289855733877
C         3.39841128699280    0.71861917795844   -0.58980673712933
C         3.39718251100757   -0.72256184431883   -0.58719375521104
C         1.96182572670818    2.27982016986573   -1.80759543438484
C         0.73362929434960    2.27760437571137   -2.56501258953364
C        -0.25904625277257    2.99062302307660   -1.81279158146149
C         0.36939803752944    3.45151651554493   -0.57930854674711
C         1.73599242651415    3.00711698700942   -0.58515457184146
C        -1.57121355288941    2.58165678521269   -1.82814109879186
C        -1.93624806518697    1.41383477821574   -2.56317130495176
C        -2.93099517831116    0.69006899765572   -1.81156741334368
C        -3.18827252969503    1.40391314691352   -0.60136650128277
C        -2.49738691876301    2.75093805610318   -0.64253344414931
C        -2.94008412704823   -0.70232334438761   -1.83162801623790
C        -1.95049283616221   -1.42066154868223   -2.59530819191628
C        -1.57305802094525   -2.58821559203944   -1.83628953187427
C        -2.33467485874421   -2.59167605274923   -0.61299073507805
C        -3.17687083652006   -1.42856491285019   -0.61474273703156
C        -0.99393224423903   -0.72389347092422   -3.31849175636615
C        -0.98860774536355    0.71697618314838   -3.30863496958222
C         0.37830804915016    1.15739010330338   -3.30762779295980
C         1.22659623816280   -0.00442814632409   -3.31561932592379
C         0.37873879371623   -1.16874923249723   -3.31891526176434
Cl       -1.93456241039161    0.01747695340925    5.24507218580199
Cl       -3.70424451580616    4.08444005988288   -0.94852138486179
Cl        3.71871998528317   -4.10909557497573    0.95075959185144
63
 energy: -142.096328866674 gnorm: 0.004681261573 xtb: 6.4.1 (a3dbbd7)
C        -1.29960637637664    0.01415415630285    3.53681159798484
C        -0.37143016930548   -1.15993430854555    3.30453627908564
C         0.97566740486863   -0.71336783223601    3.27713978746670
C         0.98633776359006    0.72781107397727    3.28401814555049
C        -0.36613928613879    1.18600931474146    3.30888264004327
C         2.49621449523128   -2.75353354599865    0.63345623009926
C         3.19930468518564   -1.41642076628449    0.58732412092787
C         2.93681032957659   -0.69516463848733    1.79053969360832
C         1.93764258958617   -1.41510270005186    2.54177034282147
C         1.57896886071827   -2.58284213441466    1.82156604516039
C         3.18626749492106    1.41969340565919    0.59044231522407
C         2.34653886865414    2.59164905013239    0.59456193739640
C         1.59227823072894    2.58840904097015    1.81929779996845
C         1.95899198029041    1.41916186152271    2.56635941573006
C         2.95030546226362    0.69641348865678    1.80820842252987
C        -0.35843891119325    3.43639731747708    0.59453455079325
C        -1.73554013087001    2.99917212845355    0.61477970880904
C        -1.95846829664881    2.30424652345892    1.78872860777547
C        -0.72143823311257    2.28559128494803    2.56960127277926
C         0.26583617302778    3.00534383267438    1.81764722946451
C        -3.39093131394251    0.70939366982783    0.56413851119410
C        -3.39390044386669   -0.72425320669833    0.56490845821135
C        -2.77103571751614   -1.15315935073553    1.79061832733869
C        -2.41641166695900    0.02396350258445    2.54858949540360
C        -2.77631522515753    1.14160270332031    1.81909341470628
C        -1.72900945087895   -3.00242461197191    0.57801221803115
C        -0.36739187504581   -3.44663387248101    0.58200225656746
C         0.25765243973433   -2.98028223804039    1.80592610141216
C        -0.72817075269345   -2.25911120217564    2.55833995106303
C        -1.96991800547041   -2.27749708666748    1.79710215015103
C        -0.25088733081797   -3.00561470425002   -1.83073224699193
C         0.73923784523231   -2.28822431931413   -2.58452414894326
C         1.96006393019751   -2.28995472715629   -1.80807346010799
C         1.73395411272814   -3.01953771194956   -0.61303550295033
C         0.37514539085772   -3.43446457852312   -0.59747955900802
C         2.79242832122711   -1.16806592987624   -1.82751192714878
C         2.40627312808773   -0.00915037105036   -2.57324759362848
C         2.77957946799108    1.15987256647744   -1.81185702159121
C         3.39624076642054    0.71714271641018   -0.58876421092044
C         3.39824956754341   -0.72431449893698   -0.58664758380905
C         1.96123769040549    2.27980051701110   -1.80724812559268
C         0.73327592777844    2.27803751621391   -2.56499877040912
C        -0.25946741476227    2.99105855163427   -1.81280507132547
C         0.36893636397010    3.45222464847158   -0.57934746399403
C         1.73535436456134    3.00754721969230   -0.58507735862446
C        -1.57163249071207    2.58210584038768   -1.82828802671534
C        -1.93651836200548    1.41406508852098   -2.56336881196613
C        -2.93134882182489    0.69023618990277   -1.81170778256316
C        -3.18873832461780    1.40429861235978   -0.60149527847058
C        -2.49780143803905    2.75132130775643   -0.64266876638626
C        -2.94044969771269   -0.70218514908464   -1.83167418378277
C        -1.95057306653684   -1.42052889214235   -2.59517437854359
C        -1.57271260339574   -2.58758823297104   -1.83576028651662
C        -2.33497769075914   -2.59132228262996   -0.61266622931584
C        -3.17699744165334   -1.42833309007253   -0.61454839034743
C        -0.99400106566337   -0.72369213568836   -3.31840623973103
C        -0.98884953964242    0.71725900661121   -3.30887370573534
C         0.37820900466606    1.15771968531822   -3.30757648857370
C         1.22650698323712   -0.00385997574573   -3.31564056278371
C         0.37868854136778   -1.16838772284169   -3.31824264401917
Cl       -1.93521922602471    0.01749704780521    5.24426140266173
Cl       -3.70508248411637    4.08478354326451   -0.94891126343801
Cl        3.71745532339549   -4.11259146746230    0.94605198885451
63
 energy: -142.096369920986 gnorm: 0.002441468173 xtb: 6.4.1 (a3dbbd7)
C        -1.29979628651028    0.01427167959616    3.53706579025282
C        -0.37158750501930   -1.15976505347843    3.30471757526751
C         0.97553722157381   -0.71305031996249    3.27642675787744
C         0.98615621226801    0.72787194414718    3.28366624447905
C        -0.36628218452598    1.18614392245095    3.30904138485441
C         2.49826725054984   -2.75556335892352    0.63430737242172
C         3.20003180945696   -1.41744119115128    0.58732094840925
C         2.93618659638673   -0.69506576313644    1.78973174162885
C         1.93693153409493   -1.41502650728059    2.54087241524916
C         1.57968219013547   -2.58380814337408    1.82148659418180
C         3.18622340780196    1.41986734400515    0.59042945646513
C         2.34664526507458    2.59207998600215    0.59459769210083
C         1.59238149927671    2.58874075363050    1.81925602723488
C         1.95875847728301    1.41919079151964    2.56607413819768
C         2.94963337635448    0.69628951563665    1.80802033991800
C        -0.35836599941161    3.43642659317121    0.59458490977425
C        -1.73546232941598    2.99909624139276    0.61478895191454
C        -1.95847776286268    2.30430122083896    1.78880638226880
C        -0.72146059645145    2.28575375968583    2.56980121233174
C         0.26588067339513    3.00559879018526    1.81776731032433
C        -3.39087909820757    0.70924484500791    0.56418294159845
C        -3.39391159063629   -0.72441096970293    0.56506029585237
C        -2.77095636085095   -1.15323669550587    1.79079412124520
C        -2.41627718434810    0.02395932507439    2.54846960214772
C        -2.77631293342128    1.14162270143318    1.81910986597866
C        -1.72929687551290   -3.00288687407567    0.57833040588811
C        -0.36814944729844   -3.44728836528235    0.58252191027778
C         0.25785471911654   -2.98042299595884    1.80607632714878
C        -0.72767923096469   -2.25886434863382    2.55807858930645
C        -1.96957511919280   -2.27736968792849    1.79713588537193
C        -0.25060976910280   -3.00493674235511   -1.83004874678745
C         0.73928260760922   -2.28773285362716   -2.58370748593105
C         1.96051163625623   -2.28958029526295   -1.80705608877040
C         1.73326150893148   -3.01665624188669   -0.61123265508262
C         0.37576523283795   -3.43385802758340   -0.59641334560813
C         2.79320671336993   -1.16765783975094   -1.82826245325643
C         2.40672826262917   -0.00902109431804   -2.57357332571481
C         2.77938807849453    1.15970972052443   -1.81156688496017
C         3.39570908312461    0.71678500334750   -0.58831340335957
C         3.39829057318564   -0.72450385812011   -0.58648082390230
C         1.96142497939181    2.27982928507551   -1.80725778807710
C         0.73347416255972    2.27800416234568   -2.56504618864762
C        -0.25933191060130    2.99094564360045   -1.81280731387473
C         0.36901626900714    3.45228481846860   -0.57937236010629
C         1.73532811389464    3.00757881810535   -0.58505813693386
C        -1.57143073658462    2.58188270623978   -1.82827351696167
C        -1.93624769916786    1.41374030166728   -2.56335380095788
C        -2.93110143621355    0.68990332007814   -1.81167974990815
C        -3.18855238135650    1.40404529582463   -0.60146765170504
C        -2.49756959084934    2.75100490729239   -0.64267758855460
C        -2.94030829048095   -0.70248500205082   -1.83159248633802
C        -1.95028341259355   -1.42079565847372   -2.59498296244773
C        -1.57252036369917   -2.58772949051500   -1.83552981604635
C        -2.33512662959108   -2.59152734848842   -0.61236727982010
C        -3.17689470776042   -1.42858598883366   -0.61436322707000
C        -0.99369460060431   -0.72392185784496   -3.31824679633246
C        -0.98860722358311    0.71703938638750   -3.30891539675925
C         0.37851028485448    1.15761998693623   -3.30761192253093
C         1.22684223003579   -0.00372260132265   -3.31581815182605
C         0.37895395774657   -1.16849660449882   -3.31816924324061
Cl       -1.93551253861761    0.01717235466794    5.24403468386952
Cl       -3.70512360529176    4.08450172999125   -0.94913150196001
Cl        3.71177212861527   -4.11065594694246    0.94071755451406
63
 energy: -142.096381840665 gnorm: 0.001330947453 xtb: 6.4.1 (a3dbbd7)
C        -1.29978896801661    0.01416902586098    3.53736826985118
C        -0.37163520688871   -1.15983690244634    3.30508516110571
C         0.97559170572697   -0.71301316791260    3.27689731862260
C         0.98627558194098    0.72786498100563    3.28392907597744
C        -0.36621407623467    1.18601508057433    3.30919486818470
C         2.49798518333989   -2.75545315733697    0.63405874566976
C         3.19925888620754   -1.41664245203564    0.58723243613814
C         2.93605338774131   -0.69466348809899    1.78991481512563
C         1.93678425831507   -1.41464085515080    2.54107154194150
C         1.57905539134768   -2.58290364433195    1.82128854332695
C         3.18661625562400    1.42007046329499    0.59049092586279
C         2.34684338868994    2.59208220034037    0.59467211129789
C         1.59254567013060    2.58867819252468    1.81930285368078
C         1.95892889141470    1.41923902896520    2.56629351869170
C         2.94989415312378    0.69654105724850    1.80827231101944
C        -0.35818336507093    3.43611561124882    0.59456463111403
C        -1.73525039130981    2.99877695397211    0.61476750026630
C        -1.95829617783368    2.30404303852913    1.78879401693678
C        -0.72132260533588    2.28554502501252    2.56981498127852
C         0.26600675152375    3.00537569081162    1.81776300395056
C        -3.39069667462215    0.70895640273246    0.56421826110661
C        -3.39379519742601   -0.72470012746475    0.56513854141907
C        -2.77101579387439   -1.15348966821290    1.79100506583341
C        -2.41615642721631    0.02375571805869    2.54855816482038
C        -2.77613595923690    1.14137488421554    1.81913111082448
C        -1.72945592727061   -3.00319645504270    0.57859422541463
C        -0.36827218844178   -3.44717125713380    0.58263183706908
C         0.25752094553450   -2.97994857560795    1.80615544280537
C        -0.72784639747893   -2.25896251442574    2.55848990261881
C        -1.96973561512071   -2.27768010728118    1.79748212913420
C        -0.25063039282501   -3.00517548569735   -1.83029379167478
C         0.73926927653134   -2.28798081215890   -2.58396839833142
C         1.96027028699576   -2.28922228447417   -1.80710826629293
C         1.73263604660537   -3.01562127229145   -0.61110331662546
C         0.37549400731954   -3.43349535311004   -0.59641387832334
C         2.79322475827831   -1.16745709742498   -1.82825330125686
C         2.40715253072207   -0.00892536670413   -2.57375401273061
C         2.77986609248353    1.15985201833690   -1.81172596365109
C         3.39615987370175    0.71708334050385   -0.58833365882500
C         3.39799876699954   -0.72399507752165   -0.58646445839274
C         1.96176564574731    2.27984297784802   -1.80735945435877
C         0.73373821829638    2.27780950182806   -2.56507166772843
C        -0.25910490138348    2.99068783340447   -1.81281395503097
C         0.36921669065507    3.45203853828715   -0.57938133500393
C         1.73553305798179    3.00744428383689   -0.58504394409357
C        -1.57116868420754    2.58155517251363   -1.82822500131290
C        -1.93598442233270    1.41341829427520   -2.56328331860634
C        -2.93080975880977    0.68960385567655   -1.81162919911681
C        -3.18826542768126    1.40372123180815   -0.60142610098964
C        -2.49728097921566    2.75062371299398   -0.64266109011310
C        -2.94005739146954   -0.70275114304403   -1.83152538685946
C        -1.95006179270218   -1.42104669634749   -2.59492151878841
C        -1.57251496773553   -2.58808764134465   -1.83555179945545
C        -2.33510098643561   -2.59183596815090   -0.61226881533363
C        -3.17673829418733   -1.42887592530590   -0.61430868044277
C        -0.99345859686404   -0.72416441816910   -3.31818469530722
C        -0.98835547029703    0.71676529355378   -3.30883534125466
C         0.37876600905379    1.15739442352624   -3.30762487777756
C         1.22713363875407   -0.00384923700378   -3.31590541344587
C         0.37918548794832   -1.16870040109917   -3.31837309467456
Cl       -1.93556068493672    0.01718982288982    5.24413399913059
Cl       -3.70492230427648    4.08415401881955   -0.94920942216453