 Entering Gaussian System, Link 0=g16
 Input=0_addons_C84_11_rank_0.gjf
 Output=0_addons_C84_11_rank_0.log
 Initial command:
 /home/mkliu/g16/l1.exe "/data/scratch/Gau-81400.inp" -scrdir="/data/scratch/"
 Entering Link 1 = /home/mkliu/g16/l1.exe PID=     81401.
  
 Copyright (c) 1988,1990,1992,1993,1995,1998,2003,2009,2016,
            Gaussian, Inc.  All Rights Reserved.
  
 This is part of the Gaussian(R) 16 program.  It is based on
 the Gaussian(R) 09 system (copyright 2009, Gaussian, Inc.),
 the Gaussian(R) 03 system (copyright 2003, Gaussian, Inc.),
 the Gaussian(R) 98 system (copyright 1998, Gaussian, Inc.),
 the Gaussian(R) 94 system (copyright 1995, Gaussian, Inc.),
 the Gaussian 92(TM) system (copyright 1992, Gaussian, Inc.),
 the Gaussian 90(TM) system (copyright 1990, Gaussian, Inc.),
 the Gaussian 88(TM) system (copyright 1988, Gaussian, Inc.),
 the Gaussian 86(TM) system (copyright 1986, Carnegie Mellon
 University), and the Gaussian 82(TM) system (copyright 1983,
 Carnegie Mellon University). Gaussian is a federally registered
 trademark of Gaussian, Inc.
  
 This software contains proprietary and confidential information,
 including trade secrets, belonging to Gaussian, Inc.
  
 This software is provided under written license and may be
 used, copied, transmitted, or stored only in accord with that
 written license.
  
 The following legend is applicable only to US Government
 contracts under FAR:
  
                    RESTRICTED RIGHTS LEGEND
  
 Use, reproduction and disclosure by the US Government is
 subject to restrictions as set forth in subparagraphs (a)
 and (c) of the Commercial Computer Software - Restricted
 Rights clause in FAR 52.227-19.
  
 Gaussian, Inc.
 340 Quinnipiac St., Bldg. 40, Wallingford CT 06492
  
  
 ---------------------------------------------------------------
 Warning -- This program may not be used in any manner that
 competes with the business of Gaussian, Inc. or will provide
 assistance to any competitor of Gaussian, Inc.  The licensee
 of this program is prohibited from giving any competitor of
 Gaussian, Inc. access to this program.  By using this program,
 the user acknowledges that Gaussian, Inc. is engaged in the
 business of creating and licensing software in the field of
 computational chemistry and represents and warrants to the
 licensee that it is not a competitor of Gaussian, Inc. and that
 it will not use this program in any manner prohibited above.
 ---------------------------------------------------------------
  

 Cite this work as:
 Gaussian 16, Revision A.03,
 M. J. Frisch, G. W. Trucks, H. B. Schlegel, G. E. Scuseria, 
 M. A. Robb, J. R. Cheeseman, G. Scalmani, V. Barone, 
 G. A. Petersson, H. Nakatsuji, X. Li, M. Caricato, A. V. Marenich, 
 J. Bloino, B. G. Janesko, R. Gomperts, B. Mennucci, H. P. Hratchian, 
 J. V. Ortiz, A. F. Izmaylov, J. L. Sonnenberg, D. Williams-Young, 
 F. Ding, F. Lipparini, F. Egidi, J. Goings, B. Peng, A. Petrone, 
 T. Henderson, D. Ranasinghe, V. G. Zakrzewski, J. Gao, N. Rega, 
 G. Zheng, W. Liang, M. Hada, M. Ehara, K. Toyota, R. Fukuda, 
 J. Hasegawa, M. Ishida, T. Nakajima, Y. Honda, O. Kitao, H. Nakai, 
 T. Vreven, K. Throssell, J. A. Montgomery, Jr., J. E. Peralta, 
 F. Ogliaro, M. J. Bearpark, J. J. Heyd, E. N. Brothers, K. N. Kudin, 
 V. N. Staroverov, T. A. Keith, R. Kobayashi, J. Normand, 
 K. Raghavachari, A. P. Rendell, J. C. Burant, S. S. Iyengar, 
 J. Tomasi, M. Cossi, J. M. Millam, M. Klene, C. Adamo, R. Cammi, 
 J. W. Ochterski, R. L. Martin, K. Morokuma, O. Farkas, 
 J. B. Foresman, and D. J. Fox, Gaussian, Inc., Wallingford CT, 2016.
 
 ******************************************
 Gaussian 16:  ES64L-G16RevA.03 25-Dec-2016
                26-Jun-2022 
 ******************************************
 %mem=10GB
 %chk=0_addons_C84_11_rank_0.chk
 %nprocshared=48
 Will use up to   48 processors via shared memory.
 ------------------------------------------------
 #P opt b3lyp/6-31G(d, p) empiricaldispersion=GD3
 ------------------------------------------------
 1/18=20,19=15,26=3,38=1/1,3;
 2/9=110,12=2,17=6,18=5,40=1/2;
 3/5=1,6=6,7=101,11=2,25=1,30=1,71=1,74=-5,124=31/1,2,3;
 4//1;
 5/5=2,38=5/2;
 6/7=2,8=2,9=2,10=2,28=1/1;
 7//1,2,3,16;
 1/18=20,19=15,26=3/3(2);
 2/9=110/2;
 99//99;
 2/9=110/2;
 3/5=1,6=6,7=101,11=2,25=1,30=1,71=1,74=-5,124=31/1,2,3;
 4/5=5,16=3,69=1/1;
 5/5=2,38=5/2;
 7//1,2,3,16;
 1/18=20,19=15,26=3/3(-5);
 2/9=110/2;
 6/7=2,8=2,9=2,10=2,19=2,28=1/1;
 99/9=1/99;
 Leave Link    1 at Sun Jun 26 04:00:53 2022, MaxMem=  1342177280 cpu:               4.3 elap:               0.1
 (Enter /home/mkliu/g16/l101.exe)
 -----
 force
 -----
 Symbolic Z-matrix:
 Charge =  0 Multiplicity = 1
 C                     8.37887   18.67288   10.75621 
 C                     12.54362   20.00153   8.88731 
 C                     8.37887   27.07962   10.75621 
 C                     12.54362   25.75097   8.88731 
 C                     7.99786   19.11722   9.3552 
 C                     11.98687   19.57182   10.21634 
 C                     7.99786   26.63528   9.3552 
 C                     11.98687   26.18068   10.21634 
 C                     8.98524   19.25357   8.3141 
 C                     12.23704   20.24237   11.39074 
 C                     12.23704   25.51013   11.39074 
 C                     8.98524   26.49893   8.3141 
 C                     10.34983   19.10368   8.64523 
 C                     10.34983   26.64882   8.64523 
 C                     10.74714   18.94245   10.03638 
 C                     10.74714   26.81005   10.03638 
 C                     9.82119   18.90036   11.05081 
 C                     9.82119   26.85214   11.05081 
 C                     10.07479   19.58573   12.24387 
 C                     10.07479   26.16677   12.24387 
 C                     8.84421   19.98707   12.9957 
 C                     8.84421   25.76543   12.9957 
 C                     7.84456   19.53266   11.92261 
 C                     7.42558   25.59212   12.36918 
 C                     6.72485   20.19149   11.77731 
 C                     7.16932   26.26377   11.27609 
 C                     5.95943   20.04929   10.44162 
 C                     5.95943   25.70321   10.44162 
 C                     6.76696   19.7175   9.21923 
 C                     6.76696   26.035    9.21923 
 C                     6.43727   20.34595   8.00217 
 C                     6.43727   25.40655   8.00217 
 C                     7.33087   20.4133   6.96241 
 C                     7.33087   25.3392   6.96241 
 C                     8.68453   19.99183   7.11704 
 C                     8.68453   25.76067   7.11704 
 C                     9.73392   20.62925   6.38254 
 C                     9.73392   25.12325   6.38254 
 C                     11.049    20.57838   6.84937 
 C                     12.7168   22.1852   7.72757 
 C                     12.7168   23.5673   7.72757 
 C                     11.049    25.17412   6.84937 
 C                     11.34693   19.77954   7.96392 
 C                     12.91027   21.46762   8.90464 
 C                     12.91027   24.28488   8.90464 
 C                     11.34693   25.97296   7.96392 
 C                     13.13773   22.17148   10.10303 
 C                     13.13773   23.58102   10.10303 
 C                     13.14466   21.4442   11.44139 
 C                     13.14466   24.3083   11.44139 
 C                     12.45891   22.21522   12.5518 
 C                     12.45891   23.53728   12.5518 
 C                     11.27168   20.24859   12.40117 
 C                     11.27168   25.50391   12.40117 
 C                     11.40381   21.43541   13.32096 
 C                     11.40381   24.31709   13.32096 
 C                     8.87237   21.47824   13.30763 
 C                     8.87237   24.27426   13.30763 
 C                     7.66919   22.17386   13.149 
 C                     7.66919   23.57864   13.149 
 C                     6.46477   21.40888   12.65045 
 C                     6.46477   24.34362   12.65045 
 C                     5.78964   22.18941   11.56403 
 C                     5.78964   23.56309   11.56403 
 C                     5.53684   21.49068   10.3763 
 C                     5.53684   24.26182   10.3763 
 C                     5.29502   22.18026   9.18057 
 C                     5.29502   23.57224   9.18057 
 C                     5.35351   21.39131   7.88487 
 C                     5.35351   24.36119   7.88487 
 C                     5.88287   22.2143   6.73047 
 C                     5.88287   23.5382   6.73047 
 C                     6.87368   21.40027   5.93465 
 C                     6.87368   24.35223   5.93465 
 C                     8.00702   22.20643   5.46275 
 C                     8.00702   23.54607   5.46275 
 C                     9.38817   21.63471   5.30012 
 C                     9.38817   24.11779   5.30012 
 C                     12.08666   21.62702   6.47052 
 C                     12.08666   24.12548   6.47052 
 C                     10.23883   22.87625   5.39877 
 C                     11.45829   22.87625   5.90132 
 C                     10.08591   22.16727   13.43694 
 C                     10.08591   23.58523   13.43694 
 
 ITRead=  0  0  0  0  0  0  0  0  0  0  0  0  0  0  0  0  0  0  0  0
 ITRead=  0  0  0  0  0  0  0  0  0  0  0  0  0  0  0  0  0  0  0  0
 ITRead=  0  0  0  0  0  0  0  0  0  0  0  0  0  0  0  0  0  0  0  0
 ITRead=  0  0  0  0  0  0  0  0  0  0  0  0  0  0  0  0  0  0  0  0
 ITRead=  0  0  0  0
 MicOpt= -1 -1 -1 -1 -1 -1 -1 -1 -1 -1 -1 -1 -1 -1 -1 -1 -1 -1 -1 -1
 MicOpt= -1 -1 -1 -1 -1 -1 -1 -1 -1 -1 -1 -1 -1 -1 -1 -1 -1 -1 -1 -1
 MicOpt= -1 -1 -1 -1 -1 -1 -1 -1 -1 -1 -1 -1 -1 -1 -1 -1 -1 -1 -1 -1
 MicOpt= -1 -1 -1 -1 -1 -1 -1 -1 -1 -1 -1 -1 -1 -1 -1 -1 -1 -1 -1 -1
 MicOpt= -1 -1 -1 -1
 NAtoms=     84 NQM=       84 NQMF=       0 NMMI=      0 NMMIF=      0
                NMic=       0 NMicF=      0.
                    Isotopes and Nuclear Properties:
 (Nuclear quadrupole moments (NQMom) in fm**2, nuclear magnetic moments (NMagM)
  in nuclear magnetons)

  Atom         1           2           3           4           5           6           7           8           9          10
 IAtWgt=          12          12          12          12          12          12          12          12          12          12
 AtmWgt=  12.0000000  12.0000000  12.0000000  12.0000000  12.0000000  12.0000000  12.0000000  12.0000000  12.0000000  12.0000000
 NucSpn=           0           0           0           0           0           0           0           0           0           0
 AtZEff=  -0.0000000  -0.0000000  -0.0000000  -0.0000000  -0.0000000  -0.0000000  -0.0000000  -0.0000000  -0.0000000  -0.0000000
 NQMom=    0.0000000   0.0000000   0.0000000   0.0000000   0.0000000   0.0000000   0.0000000   0.0000000   0.0000000   0.0000000
 NMagM=    0.0000000   0.0000000   0.0000000   0.0000000   0.0000000   0.0000000   0.0000000   0.0000000   0.0000000   0.0000000
 AtZNuc=   6.0000000   6.0000000   6.0000000   6.0000000   6.0000000   6.0000000   6.0000000   6.0000000   6.0000000   6.0000000

  Atom        11          12          13          14          15          16          17          18          19          20
 IAtWgt=          12          12          12          12          12          12          12          12          12          12
 AtmWgt=  12.0000000  12.0000000  12.0000000  12.0000000  12.0000000  12.0000000  12.0000000  12.0000000  12.0000000  12.0000000
 NucSpn=           0           0           0           0           0           0           0           0           0           0
 AtZEff=  -0.0000000  -0.0000000  -0.0000000  -0.0000000  -0.0000000  -0.0000000  -0.0000000  -0.0000000  -0.0000000  -0.0000000
 NQMom=    0.0000000   0.0000000   0.0000000   0.0000000   0.0000000   0.0000000   0.0000000   0.0000000   0.0000000   0.0000000
 NMagM=    0.0000000   0.0000000   0.0000000   0.0000000   0.0000000   0.0000000   0.0000000   0.0000000   0.0000000   0.0000000
 AtZNuc=   6.0000000   6.0000000   6.0000000   6.0000000   6.0000000   6.0000000   6.0000000   6.0000000   6.0000000   6.0000000

  Atom        21          22          23          24          25          26          27          28          29          30
 IAtWgt=          12          12          12          12          12          12          12          12          12          12
 AtmWgt=  12.0000000  12.0000000  12.0000000  12.0000000  12.0000000  12.0000000  12.0000000  12.0000000  12.0000000  12.0000000
 NucSpn=           0           0           0           0           0           0           0           0           0           0
 AtZEff=  -0.0000000  -0.0000000  -0.0000000  -0.0000000  -0.0000000  -0.0000000  -0.0000000  -0.0000000  -0.0000000  -0.0000000
 NQMom=    0.0000000   0.0000000   0.0000000   0.0000000   0.0000000   0.0000000   0.0000000   0.0000000   0.0000000   0.0000000
 NMagM=    0.0000000   0.0000000   0.0000000   0.0000000   0.0000000   0.0000000   0.0000000   0.0000000   0.0000000   0.0000000
 AtZNuc=   6.0000000   6.0000000   6.0000000   6.0000000   6.0000000   6.0000000   6.0000000   6.0000000   6.0000000   6.0000000

  Atom        31          32          33          34          35          36          37          38          39          40
 IAtWgt=          12          12          12          12          12          12          12          12          12          12
 AtmWgt=  12.0000000  12.0000000  12.0000000  12.0000000  12.0000000  12.0000000  12.0000000  12.0000000  12.0000000  12.0000000
 NucSpn=           0           0           0           0           0           0           0           0           0           0
 AtZEff=  -0.0000000  -0.0000000  -0.0000000  -0.0000000  -0.0000000  -0.0000000  -0.0000000  -0.0000000  -0.0000000  -0.0000000
 NQMom=    0.0000000   0.0000000   0.0000000   0.0000000   0.0000000   0.0000000   0.0000000   0.0000000   0.0000000   0.0000000
 NMagM=    0.0000000   0.0000000   0.0000000   0.0000000   0.0000000   0.0000000   0.0000000   0.0000000   0.0000000   0.0000000
 AtZNuc=   6.0000000   6.0000000   6.0000000   6.0000000   6.0000000   6.0000000   6.0000000   6.0000000   6.0000000   6.0000000

  Atom        41          42          43          44          45          46          47          48          49          50
 IAtWgt=          12          12          12          12          12          12          12          12          12          12
 AtmWgt=  12.0000000  12.0000000  12.0000000  12.0000000  12.0000000  12.0000000  12.0000000  12.0000000  12.0000000  12.0000000
 NucSpn=           0           0           0           0           0           0           0           0           0           0
 AtZEff=  -0.0000000  -0.0000000  -0.0000000  -0.0000000  -0.0000000  -0.0000000  -0.0000000  -0.0000000  -0.0000000  -0.0000000
 NQMom=    0.0000000   0.0000000   0.0000000   0.0000000   0.0000000   0.0000000   0.0000000   0.0000000   0.0000000   0.0000000
 NMagM=    0.0000000   0.0000000   0.0000000   0.0000000   0.0000000   0.0000000   0.0000000   0.0000000   0.0000000   0.0000000
 AtZNuc=   6.0000000   6.0000000   6.0000000   6.0000000   6.0000000   6.0000000   6.0000000   6.0000000   6.0000000   6.0000000

  Atom        51          52          53          54          55          56          57          58          59          60
 IAtWgt=          12          12          12          12          12          12          12          12          12          12
 AtmWgt=  12.0000000  12.0000000  12.0000000  12.0000000  12.0000000  12.0000000  12.0000000  12.0000000  12.0000000  12.0000000
 NucSpn=           0           0           0           0           0           0           0           0           0           0
 AtZEff=  -0.0000000  -0.0000000  -0.0000000  -0.0000000  -0.0000000  -0.0000000  -0.0000000  -0.0000000  -0.0000000  -0.0000000
 NQMom=    0.0000000   0.0000000   0.0000000   0.0000000   0.0000000   0.0000000   0.0000000   0.0000000   0.0000000   0.0000000
 NMagM=    0.0000000   0.0000000   0.0000000   0.0000000   0.0000000   0.0000000   0.0000000   0.0000000   0.0000000   0.0000000
 AtZNuc=   6.0000000   6.0000000   6.0000000   6.0000000   6.0000000   6.0000000   6.0000000   6.0000000   6.0000000   6.0000000

  Atom        61          62          63          64          65          66          67          68          69          70
 IAtWgt=          12          12          12          12          12          12          12          12          12          12
 AtmWgt=  12.0000000  12.0000000  12.0000000  12.0000000  12.0000000  12.0000000  12.0000000  12.0000000  12.0000000  12.0000000
 NucSpn=           0           0           0           0           0           0           0           0           0           0
 AtZEff=  -0.0000000  -0.0000000  -0.0000000  -0.0000000  -0.0000000  -0.0000000  -0.0000000  -0.0000000  -0.0000000  -0.0000000
 NQMom=    0.0000000   0.0000000   0.0000000   0.0000000   0.0000000   0.0000000   0.0000000   0.0000000   0.0000000   0.0000000
 NMagM=    0.0000000   0.0000000   0.0000000   0.0000000   0.0000000   0.0000000   0.0000000   0.0000000   0.0000000   0.0000000
 AtZNuc=   6.0000000   6.0000000   6.0000000   6.0000000   6.0000000   6.0000000   6.0000000   6.0000000   6.0000000   6.0000000

  Atom        71          72          73          74          75          76          77          78          79          80
 IAtWgt=          12          12          12          12          12          12          12          12          12          12
 AtmWgt=  12.0000000  12.0000000  12.0000000  12.0000000  12.0000000  12.0000000  12.0000000  12.0000000  12.0000000  12.0000000
 NucSpn=           0           0           0           0           0           0           0           0           0           0
 AtZEff=  -0.0000000  -0.0000000  -0.0000000  -0.0000000  -0.0000000  -0.0000000  -0.0000000  -0.0000000  -0.0000000  -0.0000000
 NQMom=    0.0000000   0.0000000   0.0000000   0.0000000   0.0000000   0.0000000   0.0000000   0.0000000   0.0000000   0.0000000
 NMagM=    0.0000000   0.0000000   0.0000000   0.0000000   0.0000000   0.0000000   0.0000000   0.0000000   0.0000000   0.0000000
 AtZNuc=   6.0000000   6.0000000   6.0000000   6.0000000   6.0000000   6.0000000   6.0000000   6.0000000   6.0000000   6.0000000

  Atom        81          82          83          84
 IAtWgt=          12          12          12          12
 AtmWgt=  12.0000000  12.0000000  12.0000000  12.0000000
 NucSpn=           0           0           0           0
 AtZEff=  -0.0000000  -0.0000000  -0.0000000  -0.0000000
 NQMom=    0.0000000   0.0000000   0.0000000   0.0000000
 NMagM=    0.0000000   0.0000000   0.0000000   0.0000000
 AtZNuc=   6.0000000   6.0000000   6.0000000   6.0000000
 Leave Link  101 at Sun Jun 26 04:00:54 2022, MaxMem=  1342177280 cpu:              16.3 elap:               0.4
 (Enter /home/mkliu/g16/l103.exe)

 GradGradGradGradGradGradGradGradGradGradGradGradGradGradGradGradGradGrad
 Berny optimization.
 Initialization pass.
                           ----------------------------
                           !    Initial Parameters    !
                           ! (Angstroms and Degrees)  !
 --------------------------                            --------------------------
 ! Name  Definition              Value          Derivative Info.                !
 --------------------------------------------------------------------------------
 ! R1    R(1,5)                  1.5184         estimate D2E/DX2                !
 ! R2    R(1,17)                 1.4896         estimate D2E/DX2                !
 ! R3    R(1,23)                 1.5444         estimate D2E/DX2                !
 ! R4    R(2,6)                  1.5036         estimate D2E/DX2                !
 ! R5    R(2,43)                 1.5277         estimate D2E/DX2                !
 ! R6    R(2,44)                 1.5113         estimate D2E/DX2                !
 ! R7    R(3,7)                  1.5184         estimate D2E/DX2                !
 ! R8    R(3,18)                 1.4896         estimate D2E/DX2                !
 ! R9    R(3,26)                 1.5488         estimate D2E/DX2                !
 ! R10   R(4,8)                  1.5036         estimate D2E/DX2                !
 ! R11   R(4,45)                 1.5113         estimate D2E/DX2                !
 ! R12   R(4,46)                 1.5277         estimate D2E/DX2                !
 ! R13   R(5,9)                  1.4413         estimate D2E/DX2                !
 ! R14   R(5,29)                 1.3762         estimate D2E/DX2                !
 ! R15   R(6,10)                 1.3753         estimate D2E/DX2                !
 ! R16   R(6,15)                 1.4019         estimate D2E/DX2                !
 ! R17   R(7,12)                 1.4413         estimate D2E/DX2                !
 ! R18   R(7,30)                 1.3762         estimate D2E/DX2                !
 ! R19   R(8,11)                 1.3753         estimate D2E/DX2                !
 ! R20   R(8,16)                 1.4019         estimate D2E/DX2                !
 ! R21   R(9,13)                 1.4122         estimate D2E/DX2                !
 ! R22   R(9,35)                 1.4382         estimate D2E/DX2                !
 ! R23   R(10,49)                1.5069         estimate D2E/DX2                !
 ! R24   R(10,53)                1.3975         estimate D2E/DX2                !
 ! R25   R(11,50)                1.5069         estimate D2E/DX2                !
 ! R26   R(11,54)                1.3975         estimate D2E/DX2                !
 ! R27   R(12,14)                1.4122         estimate D2E/DX2                !
 ! R28   R(12,36)                1.4382         estimate D2E/DX2                !
 ! R29   R(13,15)                1.4557         estimate D2E/DX2                !
 ! R30   R(13,43)                1.3839         estimate D2E/DX2                !
 ! R31   R(14,16)                1.4557         estimate D2E/DX2                !
 ! R32   R(14,46)                1.3839         estimate D2E/DX2                !
 ! R33   R(15,17)                1.3741         estimate D2E/DX2                !
 ! R34   R(16,18)                1.3741         estimate D2E/DX2                !
 ! R35   R(17,19)                1.3991         estimate D2E/DX2                !
 ! R36   R(18,20)                1.3991         estimate D2E/DX2                !
 ! R37   R(19,21)                1.4969         estimate D2E/DX2                !
 ! R38   R(19,53)                1.3772         estimate D2E/DX2                !
 ! R39   R(20,22)                1.4969         estimate D2E/DX2                !
 ! R40   R(20,54)                1.3772         estimate D2E/DX2                !
 ! R41   R(21,23)                1.5354         estimate D2E/DX2                !
 ! R42   R(21,57)                1.5237         estimate D2E/DX2                !
 ! R43   R(22,24)                1.5605         estimate D2E/DX2                !
 ! R44   R(22,58)                1.5237         estimate D2E/DX2                !
 ! R45   R(23,25)                1.3073         estimate D2E/DX2                !
 ! R46   R(24,26)                1.3083         estimate D2E/DX2                !
 ! R47   R(24,62)                1.6003         estimate D2E/DX2                !
 ! R48   R(25,27)                1.546          estimate D2E/DX2                !
 ! R49   R(25,61)                1.5205         estimate D2E/DX2                !
 ! R50   R(26,28)                1.573          estimate D2E/DX2                !
 ! R51   R(27,29)                1.5021         estimate D2E/DX2                !
 ! R52   R(27,65)                1.5035         estimate D2E/DX2                !
 ! R53   R(28,30)                1.5021         estimate D2E/DX2                !
 ! R54   R(28,66)                1.5035         estimate D2E/DX2                !
 ! R55   R(29,31)                1.4089         estimate D2E/DX2                !
 ! R56   R(30,32)                1.4089         estimate D2E/DX2                !
 ! R57   R(31,33)                1.3727         estimate D2E/DX2                !
 ! R58   R(31,69)                1.5103         estimate D2E/DX2                !
 ! R59   R(32,34)                1.3727         estimate D2E/DX2                !
 ! R60   R(32,70)                1.5103         estimate D2E/DX2                !
 ! R61   R(33,35)                1.4262         estimate D2E/DX2                !
 ! R62   R(33,73)                1.4965         estimate D2E/DX2                !
 ! R63   R(34,36)                1.4262         estimate D2E/DX2                !
 ! R64   R(34,74)                1.4965         estimate D2E/DX2                !
 ! R65   R(35,37)                1.4307         estimate D2E/DX2                !
 ! R66   R(36,38)                1.4307         estimate D2E/DX2                !
 ! R67   R(37,39)                1.3964         estimate D2E/DX2                !
 ! R68   R(37,77)                1.5173         estimate D2E/DX2                !
 ! R69   R(38,42)                1.3964         estimate D2E/DX2                !
 ! R70   R(38,78)                1.5173         estimate D2E/DX2                !
 ! R71   R(39,43)                1.4033         estimate D2E/DX2                !
 ! R72   R(39,79)                1.5231         estimate D2E/DX2                !
 ! R73   R(40,41)                1.3821         estimate D2E/DX2                !
 ! R74   R(40,44)                1.3921         estimate D2E/DX2                !
 ! R75   R(40,79)                1.5129         estimate D2E/DX2                !
 ! R76   R(41,45)                1.3921         estimate D2E/DX2                !
 ! R77   R(41,80)                1.5129         estimate D2E/DX2                !
 ! R78   R(42,46)                1.4033         estimate D2E/DX2                !
 ! R79   R(42,80)                1.5231         estimate D2E/DX2                !
 ! R80   R(44,47)                1.4083         estimate D2E/DX2                !
 ! R81   R(45,48)                1.4083         estimate D2E/DX2                !
 ! R82   R(47,48)                1.4095         estimate D2E/DX2                !
 ! R83   R(47,49)                1.5232         estimate D2E/DX2                !
 ! R84   R(48,50)                1.5232         estimate D2E/DX2                !
 ! R85   R(49,51)                1.5158         estimate D2E/DX2                !
 ! R86   R(50,52)                1.5158         estimate D2E/DX2                !
 ! R87   R(51,52)                1.3221         estimate D2E/DX2                !
 ! R88   R(51,55)                1.5208         estimate D2E/DX2                !
 ! R89   R(52,56)                1.5208         estimate D2E/DX2                !
 ! R90   R(53,55)                1.5073         estimate D2E/DX2                !
 ! R91   R(54,56)                1.5073         estimate D2E/DX2                !
 ! R92   R(55,83)                1.5119         estimate D2E/DX2                !
 ! R93   R(56,84)                1.5119         estimate D2E/DX2                !
 ! R94   R(57,59)                1.3988         estimate D2E/DX2                !
 ! R95   R(57,83)                1.4015         estimate D2E/DX2                !
 ! R96   R(58,60)                1.3988         estimate D2E/DX2                !
 ! R97   R(58,84)                1.4015         estimate D2E/DX2                !
 ! R98   R(59,60)                1.4048         estimate D2E/DX2                !
 ! R99   R(59,61)                1.5114         estimate D2E/DX2                !
 ! R100  R(60,62)                1.5114         estimate D2E/DX2                !
 ! R101  R(61,63)                1.4984         estimate D2E/DX2                !
 ! R102  R(62,64)                1.4984         estimate D2E/DX2                !
 ! R103  R(63,64)                1.3737         estimate D2E/DX2                !
 ! R104  R(63,65)                1.401          estimate D2E/DX2                !
 ! R105  R(64,66)                1.401          estimate D2E/DX2                !
 ! R106  R(65,67)                1.4013         estimate D2E/DX2                !
 ! R107  R(66,68)                1.4013         estimate D2E/DX2                !
 ! R108  R(67,68)                1.392          estimate D2E/DX2                !
 ! R109  R(67,69)                1.5181         estimate D2E/DX2                !
 ! R110  R(68,70)                1.5181         estimate D2E/DX2                !
 ! R111  R(69,71)                1.5133         estimate D2E/DX2                !
 ! R112  R(70,72)                1.5133         estimate D2E/DX2                !
 ! R113  R(71,72)                1.3239         estimate D2E/DX2                !
 ! R114  R(71,73)                1.5092         estimate D2E/DX2                !
 ! R115  R(72,74)                1.5092         estimate D2E/DX2                !
 ! R116  R(73,75)                1.4687         estimate D2E/DX2                !
 ! R117  R(74,76)                1.4687         estimate D2E/DX2                !
 ! R118  R(75,76)                1.3396         estimate D2E/DX2                !
 ! R119  R(75,77)                1.5036         estimate D2E/DX2                !
 ! R120  R(76,78)                1.5036         estimate D2E/DX2                !
 ! R121  R(77,81)                1.5082         estimate D2E/DX2                !
 ! R122  R(78,81)                1.5082         estimate D2E/DX2                !
 ! R123  R(79,82)                1.5098         estimate D2E/DX2                !
 ! R124  R(80,82)                1.5098         estimate D2E/DX2                !
 ! R125  R(81,82)                1.319          estimate D2E/DX2                !
 ! R126  R(83,84)                1.418          estimate D2E/DX2                !
 ! A1    A(5,1,17)             112.3813         estimate D2E/DX2                !
 ! A2    A(5,1,23)             116.5601         estimate D2E/DX2                !
 ! A3    A(17,1,23)             95.7737         estimate D2E/DX2                !
 ! A4    A(6,2,43)             101.693          estimate D2E/DX2                !
 ! A5    A(6,2,44)             110.9107         estimate D2E/DX2                !
 ! A6    A(43,2,44)            109.7499         estimate D2E/DX2                !
 ! A7    A(7,3,18)             112.3813         estimate D2E/DX2                !
 ! A8    A(7,3,26)              87.6845         estimate D2E/DX2                !
 ! A9    A(18,3,26)            127.5415         estimate D2E/DX2                !
 ! A10   A(8,4,45)             110.9107         estimate D2E/DX2                !
 ! A11   A(8,4,46)             101.693          estimate D2E/DX2                !
 ! A12   A(45,4,46)            109.7499         estimate D2E/DX2                !
 ! A13   A(1,5,9)              121.4848         estimate D2E/DX2                !
 ! A14   A(1,5,29)             116.3115         estimate D2E/DX2                !
 ! A15   A(9,5,29)             120.0067         estimate D2E/DX2                !
 ! A16   A(2,6,10)             123.235          estimate D2E/DX2                !
 ! A17   A(2,6,15)             110.0148         estimate D2E/DX2                !
 ! A18   A(10,6,15)            119.298          estimate D2E/DX2                !
 ! A19   A(3,7,12)             121.4848         estimate D2E/DX2                !
 ! A20   A(3,7,30)             116.3115         estimate D2E/DX2                !
 ! A21   A(12,7,30)            120.0067         estimate D2E/DX2                !
 ! A22   A(4,8,11)             123.235          estimate D2E/DX2                !
 ! A23   A(4,8,16)             110.0148         estimate D2E/DX2                !
 ! A24   A(11,8,16)            119.298          estimate D2E/DX2                !
 ! A25   A(5,9,13)             118.8532         estimate D2E/DX2                !
 ! A26   A(5,9,35)             120.433          estimate D2E/DX2                !
 ! A27   A(13,9,35)            116.8525         estimate D2E/DX2                !
 ! A28   A(6,10,49)            121.8116         estimate D2E/DX2                !
 ! A29   A(6,10,53)            119.6            estimate D2E/DX2                !
 ! A30   A(49,10,53)           112.8434         estimate D2E/DX2                !
 ! A31   A(8,11,50)            121.8116         estimate D2E/DX2                !
 ! A32   A(8,11,54)            119.6            estimate D2E/DX2                !
 ! A33   A(50,11,54)           112.8434         estimate D2E/DX2                !
 ! A34   A(7,12,14)            118.8532         estimate D2E/DX2                !
 ! A35   A(7,12,36)            120.433          estimate D2E/DX2                !
 ! A36   A(14,12,36)           116.8525         estimate D2E/DX2                !
 ! A37   A(9,13,15)            119.9709         estimate D2E/DX2                !
 ! A38   A(9,13,43)            121.9347         estimate D2E/DX2                !
 ! A39   A(15,13,43)           109.1429         estimate D2E/DX2                !
 ! A40   A(12,14,16)           119.9709         estimate D2E/DX2                !
 ! A41   A(12,14,46)           121.9347         estimate D2E/DX2                !
 ! A42   A(16,14,46)           109.1429         estimate D2E/DX2                !
 ! A43   A(6,15,13)            108.3181         estimate D2E/DX2                !
 ! A44   A(6,15,17)            120.9887         estimate D2E/DX2                !
 ! A45   A(13,15,17)           121.6666         estimate D2E/DX2                !
 ! A46   A(8,16,14)            108.3181         estimate D2E/DX2                !
 ! A47   A(8,16,18)            120.9887         estimate D2E/DX2                !
 ! A48   A(14,16,18)           121.6666         estimate D2E/DX2                !
 ! A49   A(1,17,15)            120.7399         estimate D2E/DX2                !
 ! A50   A(1,17,19)            114.7701         estimate D2E/DX2                !
 ! A51   A(15,17,19)           119.4969         estimate D2E/DX2                !
 ! A52   A(3,18,16)            120.7399         estimate D2E/DX2                !
 ! A53   A(3,18,20)            114.7701         estimate D2E/DX2                !
 ! A54   A(16,18,20)           119.4969         estimate D2E/DX2                !
 ! A55   A(17,19,21)           114.2442         estimate D2E/DX2                !
 ! A56   A(17,19,53)           119.3874         estimate D2E/DX2                !
 ! A57   A(21,19,53)           121.8738         estimate D2E/DX2                !
 ! A58   A(18,20,22)           114.2442         estimate D2E/DX2                !
 ! A59   A(18,20,54)           119.3874         estimate D2E/DX2                !
 ! A60   A(22,20,54)           121.8738         estimate D2E/DX2                !
 ! A61   A(19,21,23)            96.0191         estimate D2E/DX2                !
 ! A62   A(19,21,57)           110.4885         estimate D2E/DX2                !
 ! A63   A(23,21,57)           116.4082         estimate D2E/DX2                !
 ! A64   A(20,22,24)           125.1341         estimate D2E/DX2                !
 ! A65   A(20,22,58)           110.4885         estimate D2E/DX2                !
 ! A66   A(24,22,58)            89.4445         estimate D2E/DX2                !
 ! A67   A(1,23,21)            117.8638         estimate D2E/DX2                !
 ! A68   A(1,23,25)            119.5348         estimate D2E/DX2                !
 ! A69   A(21,23,25)           119.091          estimate D2E/DX2                !
 ! A70   A(22,24,26)           117.1618         estimate D2E/DX2                !
 ! A71   A(22,24,62)           124.187          estimate D2E/DX2                !
 ! A72   A(26,24,62)           115.4525         estimate D2E/DX2                !
 ! A73   A(23,25,27)           118.277          estimate D2E/DX2                !
 ! A74   A(23,25,61)           119.0903         estimate D2E/DX2                !
 ! A75   A(27,25,61)           119.0167         estimate D2E/DX2                !
 ! A76   A(3,26,24)            113.4473         estimate D2E/DX2                !
 ! A77   A(3,26,28)            127.6115         estimate D2E/DX2                !
 ! A78   A(24,26,28)           114.2639         estimate D2E/DX2                !
 ! A79   A(25,27,29)           117.208          estimate D2E/DX2                !
 ! A80   A(25,27,65)            95.0782         estimate D2E/DX2                !
 ! A81   A(29,27,65)           109.1178         estimate D2E/DX2                !
 ! A82   A(26,28,30)            86.5315         estimate D2E/DX2                !
 ! A83   A(26,28,66)           125.5124         estimate D2E/DX2                !
 ! A84   A(30,28,66)           109.1178         estimate D2E/DX2                !
 ! A85   A(5,29,27)            119.7866         estimate D2E/DX2                !
 ! A86   A(5,29,31)            119.2898         estimate D2E/DX2                !
 ! A87   A(27,29,31)           118.597          estimate D2E/DX2                !
 ! A88   A(7,30,28)            119.7866         estimate D2E/DX2                !
 ! A89   A(7,30,32)            119.2898         estimate D2E/DX2                !
 ! A90   A(28,30,32)           118.597          estimate D2E/DX2                !
 ! A91   A(29,31,33)           121.5943         estimate D2E/DX2                !
 ! A92   A(29,31,69)           122.9403         estimate D2E/DX2                !
 ! A93   A(33,31,69)           111.9842         estimate D2E/DX2                !
 ! A94   A(30,32,34)           121.5943         estimate D2E/DX2                !
 ! A95   A(30,32,70)           122.9403         estimate D2E/DX2                !
 ! A96   A(34,32,70)           111.9842         estimate D2E/DX2                !
 ! A97   A(31,33,35)           121.4181         estimate D2E/DX2                !
 ! A98   A(31,33,73)           110.7137         estimate D2E/DX2                !
 ! A99   A(35,33,73)           124.0115         estimate D2E/DX2                !
 ! A100  A(32,34,36)           121.4181         estimate D2E/DX2                !
 ! A101  A(32,34,74)           110.7137         estimate D2E/DX2                !
 ! A102  A(36,34,74)           124.0115         estimate D2E/DX2                !
 ! A103  A(9,35,33)            116.13           estimate D2E/DX2                !
 ! A104  A(9,35,37)            120.1742         estimate D2E/DX2                !
 ! A105  A(33,35,37)           120.5869         estimate D2E/DX2                !
 ! A106  A(12,36,34)           116.13           estimate D2E/DX2                !
 ! A107  A(12,36,38)           120.1742         estimate D2E/DX2                !
 ! A108  A(34,36,38)           120.5869         estimate D2E/DX2                !
 ! A109  A(35,37,39)           120.1912         estimate D2E/DX2                !
 ! A110  A(35,37,77)           119.6257         estimate D2E/DX2                !
 ! A111  A(39,37,77)           118.5055         estimate D2E/DX2                !
 ! A112  A(36,38,42)           120.1912         estimate D2E/DX2                !
 ! A113  A(36,38,78)           119.6257         estimate D2E/DX2                !
 ! A114  A(42,38,78)           118.5055         estimate D2E/DX2                !
 ! A115  A(37,39,43)           119.0923         estimate D2E/DX2                !
 ! A116  A(37,39,79)           122.2325         estimate D2E/DX2                !
 ! A117  A(43,39,79)           116.4135         estimate D2E/DX2                !
 ! A118  A(41,40,44)           121.0296         estimate D2E/DX2                !
 ! A119  A(41,40,79)           111.651          estimate D2E/DX2                !
 ! A120  A(44,40,79)           124.769          estimate D2E/DX2                !
 ! A121  A(40,41,45)           121.0296         estimate D2E/DX2                !
 ! A122  A(40,41,80)           111.651          estimate D2E/DX2                !
 ! A123  A(45,41,80)           124.769          estimate D2E/DX2                !
 ! A124  A(38,42,46)           119.0923         estimate D2E/DX2                !
 ! A125  A(38,42,80)           122.2325         estimate D2E/DX2                !
 ! A126  A(46,42,80)           116.4135         estimate D2E/DX2                !
 ! A127  A(2,43,13)            109.7413         estimate D2E/DX2                !
 ! A128  A(2,43,39)            124.3086         estimate D2E/DX2                !
 ! A129  A(13,43,39)           121.0689         estimate D2E/DX2                !
 ! A130  A(2,44,40)            117.1702         estimate D2E/DX2                !
 ! A131  A(2,44,47)            122.2605         estimate D2E/DX2                !
 ! A132  A(40,44,47)           118.9693         estimate D2E/DX2                !
 ! A133  A(4,45,41)            117.1702         estimate D2E/DX2                !
 ! A134  A(4,45,48)            122.2605         estimate D2E/DX2                !
 ! A135  A(41,45,48)           118.9693         estimate D2E/DX2                !
 ! A136  A(4,46,14)            109.7413         estimate D2E/DX2                !
 ! A137  A(4,46,42)            124.3086         estimate D2E/DX2                !
 ! A138  A(14,46,42)           121.0689         estimate D2E/DX2                !
 ! A139  A(44,47,48)           119.9863         estimate D2E/DX2                !
 ! A140  A(44,47,49)           120.6493         estimate D2E/DX2                !
 ! A141  A(48,47,49)           118.5199         estimate D2E/DX2                !
 ! A142  A(45,48,47)           119.9863         estimate D2E/DX2                !
 ! A143  A(45,48,50)           120.6493         estimate D2E/DX2                !
 ! A144  A(47,48,50)           118.5199         estimate D2E/DX2                !
 ! A145  A(10,49,47)           110.3973         estimate D2E/DX2                !
 ! A146  A(10,49,51)            99.0801         estimate D2E/DX2                !
 ! A147  A(47,49,51)           113.4986         estimate D2E/DX2                !
 ! A148  A(11,50,48)           110.3973         estimate D2E/DX2                !
 ! A149  A(11,50,52)            99.0801         estimate D2E/DX2                !
 ! A150  A(48,50,52)           113.4986         estimate D2E/DX2                !
 ! A151  A(49,51,52)           120.5736         estimate D2E/DX2                !
 ! A152  A(49,51,55)           115.0576         estimate D2E/DX2                !
 ! A153  A(52,51,55)           120.8471         estimate D2E/DX2                !
 ! A154  A(50,52,51)           120.5736         estimate D2E/DX2                !
 ! A155  A(50,52,56)           115.0576         estimate D2E/DX2                !
 ! A156  A(51,52,56)           120.8471         estimate D2E/DX2                !
 ! A157  A(10,53,19)           121.039          estimate D2E/DX2                !
 ! A158  A(10,53,55)           112.592          estimate D2E/DX2                !
 ! A159  A(19,53,55)           121.6581         estimate D2E/DX2                !
 ! A160  A(11,54,20)           121.039          estimate D2E/DX2                !
 ! A161  A(11,54,56)           112.592          estimate D2E/DX2                !
 ! A162  A(20,54,56)           121.6581         estimate D2E/DX2                !
 ! A163  A(51,55,53)            98.9703         estimate D2E/DX2                !
 ! A164  A(51,55,83)           113.2863         estimate D2E/DX2                !
 ! A165  A(53,55,83)           110.581          estimate D2E/DX2                !
 ! A166  A(52,56,54)            98.9703         estimate D2E/DX2                !
 ! A167  A(52,56,84)           113.2863         estimate D2E/DX2                !
 ! A168  A(54,56,84)           110.581          estimate D2E/DX2                !
 ! A169  A(21,57,59)           116.5872         estimate D2E/DX2                !
 ! A170  A(21,57,83)           121.0669         estimate D2E/DX2                !
 ! A171  A(59,57,83)           120.7146         estimate D2E/DX2                !
 ! A172  A(22,58,60)           116.5872         estimate D2E/DX2                !
 ! A173  A(22,58,84)           121.0669         estimate D2E/DX2                !
 ! A174  A(60,58,84)           120.7146         estimate D2E/DX2                !
 ! A175  A(57,59,60)           119.821          estimate D2E/DX2                !
 ! A176  A(57,59,61)           118.1085         estimate D2E/DX2                !
 ! A177  A(60,59,61)           120.4066         estimate D2E/DX2                !
 ! A178  A(58,60,59)           119.821          estimate D2E/DX2                !
 ! A179  A(58,60,62)           118.1085         estimate D2E/DX2                !
 ! A180  A(59,60,62)           120.4066         estimate D2E/DX2                !
 ! A181  A(25,61,59)           117.2794         estimate D2E/DX2                !
 ! A182  A(25,61,63)            94.4609         estimate D2E/DX2                !
 ! A183  A(59,61,63)           109.545          estimate D2E/DX2                !
 ! A184  A(24,62,60)            88.5328         estimate D2E/DX2                !
 ! A185  A(24,62,64)           123.3297         estimate D2E/DX2                !
 ! A186  A(60,62,64)           109.545          estimate D2E/DX2                !
 ! A187  A(61,63,64)           121.3926         estimate D2E/DX2                !
 ! A188  A(61,63,65)           115.8595         estimate D2E/DX2                !
 ! A189  A(64,63,65)           119.9162         estimate D2E/DX2                !
 ! A190  A(62,64,63)           121.3926         estimate D2E/DX2                !
 ! A191  A(62,64,66)           115.8595         estimate D2E/DX2                !
 ! A192  A(63,64,66)           119.9162         estimate D2E/DX2                !
 ! A193  A(27,65,63)           112.9909         estimate D2E/DX2                !
 ! A194  A(27,65,67)           123.8718         estimate D2E/DX2                !
 ! A195  A(63,65,67)           120.6034         estimate D2E/DX2                !
 ! A196  A(28,66,64)           112.9909         estimate D2E/DX2                !
 ! A197  A(28,66,68)           123.8718         estimate D2E/DX2                !
 ! A198  A(64,66,68)           120.6034         estimate D2E/DX2                !
 ! A199  A(65,67,68)           119.4778         estimate D2E/DX2                !
 ! A200  A(65,67,69)           117.7669         estimate D2E/DX2                !
 ! A201  A(68,67,69)           121.3114         estimate D2E/DX2                !
 ! A202  A(66,68,67)           119.4778         estimate D2E/DX2                !
 ! A203  A(66,68,70)           117.7669         estimate D2E/DX2                !
 ! A204  A(67,68,70)           121.3114         estimate D2E/DX2                !
 ! A205  A(31,69,67)           108.7267         estimate D2E/DX2                !
 ! A206  A(31,69,71)           100.6406         estimate D2E/DX2                !
 ! A207  A(67,69,71)           112.4521         estimate D2E/DX2                !
 ! A208  A(32,70,68)           108.7267         estimate D2E/DX2                !
 ! A209  A(32,70,72)           100.6406         estimate D2E/DX2                !
 ! A210  A(68,70,72)           112.4521         estimate D2E/DX2                !
 ! A211  A(69,71,72)           122.9446         estimate D2E/DX2                !
 ! A212  A(69,71,73)           109.7893         estimate D2E/DX2                !
 ! A213  A(72,71,73)           122.6415         estimate D2E/DX2                !
 ! A214  A(70,72,71)           122.9446         estimate D2E/DX2                !
 ! A215  A(70,72,74)           109.7893         estimate D2E/DX2                !
 ! A216  A(71,72,74)           122.6415         estimate D2E/DX2                !
 ! A217  A(33,73,71)           101.1956         estimate D2E/DX2                !
 ! A218  A(33,73,75)           110.2992         estimate D2E/DX2                !
 ! A219  A(71,73,75)           112.3321         estimate D2E/DX2                !
 ! A220  A(34,74,72)           101.1956         estimate D2E/DX2                !
 ! A221  A(34,74,76)           110.2992         estimate D2E/DX2                !
 ! A222  A(72,74,76)           112.3321         estimate D2E/DX2                !
 ! A223  A(73,75,76)           123.2914         estimate D2E/DX2                !
 ! A224  A(73,75,77)           122.3344         estimate D2E/DX2                !
 ! A225  A(76,75,77)           112.348          estimate D2E/DX2                !
 ! A226  A(74,76,75)           123.2914         estimate D2E/DX2                !
 ! A227  A(74,76,78)           122.3344         estimate D2E/DX2                !
 ! A228  A(75,76,78)           112.348          estimate D2E/DX2                !
 ! A229  A(37,77,75)           112.5894         estimate D2E/DX2                !
 ! A230  A(37,77,81)           111.7347         estimate D2E/DX2                !
 ! A231  A(75,77,81)           101.4201         estimate D2E/DX2                !
 ! A232  A(38,78,76)           112.5894         estimate D2E/DX2                !
 ! A233  A(38,78,81)           111.7347         estimate D2E/DX2                !
 ! A234  A(76,78,81)           101.4201         estimate D2E/DX2                !
 ! A235  A(39,79,40)           109.336          estimate D2E/DX2                !
 ! A236  A(39,79,82)           112.3273         estimate D2E/DX2                !
 ! A237  A(40,79,82)           100.4474         estimate D2E/DX2                !
 ! A238  A(41,80,42)           109.336          estimate D2E/DX2                !
 ! A239  A(41,80,82)           100.4474         estimate D2E/DX2                !
 ! A240  A(42,80,82)           112.3273         estimate D2E/DX2                !
 ! A241  A(77,81,78)           110.8073         estimate D2E/DX2                !
 ! A242  A(77,81,82)           123.1194         estimate D2E/DX2                !
 ! A243  A(78,81,82)           123.1194         estimate D2E/DX2                !
 ! A244  A(79,82,80)           111.6709         estimate D2E/DX2                !
 ! A245  A(79,82,81)           121.9012         estimate D2E/DX2                !
 ! A246  A(80,82,81)           121.9012         estimate D2E/DX2                !
 ! A247  A(55,83,57)           120.6446         estimate D2E/DX2                !
 ! A248  A(55,83,84)           118.9507         estimate D2E/DX2                !
 ! A249  A(57,83,84)           119.4487         estimate D2E/DX2                !
 ! A250  A(56,84,58)           120.6446         estimate D2E/DX2                !
 ! A251  A(56,84,83)           118.9507         estimate D2E/DX2                !
 ! A252  A(58,84,83)           119.4487         estimate D2E/DX2                !
 ! D1    D(17,1,5,9)            21.4783         estimate D2E/DX2                !
 ! D2    D(17,1,5,29)         -141.6686         estimate D2E/DX2                !
 ! D3    D(23,1,5,9)           130.5943         estimate D2E/DX2                !
 ! D4    D(23,1,5,29)          -32.5526         estimate D2E/DX2                !
 ! D5    D(5,1,17,15)          -25.775          estimate D2E/DX2                !
 ! D6    D(5,1,17,19)          129.0921         estimate D2E/DX2                !
 ! D7    D(23,1,17,15)        -147.6228         estimate D2E/DX2                !
 ! D8    D(23,1,17,19)           7.2443         estimate D2E/DX2                !
 ! D9    D(5,1,23,21)         -130.4168         estimate D2E/DX2                !
 ! D10   D(5,1,23,25)           28.2726         estimate D2E/DX2                !
 ! D11   D(17,1,23,21)         -11.8352         estimate D2E/DX2                !
 ! D12   D(17,1,23,25)         146.8542         estimate D2E/DX2                !
 ! D13   D(43,2,6,10)         -139.0233         estimate D2E/DX2                !
 ! D14   D(43,2,6,15)           10.4441         estimate D2E/DX2                !
 ! D15   D(44,2,6,10)          -22.377          estimate D2E/DX2                !
 ! D16   D(44,2,6,15)          127.0904         estimate D2E/DX2                !
 ! D17   D(6,2,43,13)           -9.1592         estimate D2E/DX2                !
 ! D18   D(6,2,43,39)          146.1622         estimate D2E/DX2                !
 ! D19   D(44,2,43,13)        -126.6472         estimate D2E/DX2                !
 ! D20   D(44,2,43,39)          28.6742         estimate D2E/DX2                !
 ! D21   D(6,2,44,40)         -144.9367         estimate D2E/DX2                !
 ! D22   D(6,2,44,47)           20.4794         estimate D2E/DX2                !
 ! D23   D(43,2,44,40)         -33.3631         estimate D2E/DX2                !
 ! D24   D(43,2,44,47)         132.053          estimate D2E/DX2                !
 ! D25   D(18,3,7,12)          -21.4783         estimate D2E/DX2                !
 ! D26   D(18,3,7,30)          141.6686         estimate D2E/DX2                !
 ! D27   D(26,3,7,12)         -151.4841         estimate D2E/DX2                !
 ! D28   D(26,3,7,30)           11.6629         estimate D2E/DX2                !
 ! D29   D(7,3,18,16)           25.775          estimate D2E/DX2                !
 ! D30   D(7,3,18,20)         -129.0921         estimate D2E/DX2                !
 ! D31   D(26,3,18,16)         130.9249         estimate D2E/DX2                !
 ! D32   D(26,3,18,20)         -23.9421         estimate D2E/DX2                !
 ! D33   D(7,3,26,24)          138.4404         estimate D2E/DX2                !
 ! D34   D(7,3,26,28)          -15.6642         estimate D2E/DX2                !
 ! D35   D(18,3,26,24)          21.7265         estimate D2E/DX2                !
 ! D36   D(18,3,26,28)        -132.3781         estimate D2E/DX2                !
 ! D37   D(45,4,8,11)           22.377          estimate D2E/DX2                !
 ! D38   D(45,4,8,16)         -127.0904         estimate D2E/DX2                !
 ! D39   D(46,4,8,11)          139.0233         estimate D2E/DX2                !
 ! D40   D(46,4,8,16)          -10.4441         estimate D2E/DX2                !
 ! D41   D(8,4,45,41)          144.9367         estimate D2E/DX2                !
 ! D42   D(8,4,45,48)          -20.4794         estimate D2E/DX2                !
 ! D43   D(46,4,45,41)          33.3631         estimate D2E/DX2                !
 ! D44   D(46,4,45,48)        -132.053          estimate D2E/DX2                !
 ! D45   D(8,4,46,14)            9.1592         estimate D2E/DX2                !
 ! D46   D(8,4,46,42)         -146.1622         estimate D2E/DX2                !
 ! D47   D(45,4,46,14)         126.6472         estimate D2E/DX2                !
 ! D48   D(45,4,46,42)         -28.6742         estimate D2E/DX2                !
 ! D49   D(1,5,9,13)            -6.6246         estimate D2E/DX2                !
 ! D50   D(1,5,9,35)          -163.8156         estimate D2E/DX2                !
 ! D51   D(29,5,9,13)          155.9114         estimate D2E/DX2                !
 ! D52   D(29,5,9,35)           -1.2796         estimate D2E/DX2                !
 ! D53   D(1,5,29,27)            7.3802         estimate D2E/DX2                !
 ! D54   D(1,5,29,31)          169.8257         estimate D2E/DX2                !
 ! D55   D(9,5,29,27)         -156.0309         estimate D2E/DX2                !
 ! D56   D(9,5,29,31)            6.4146         estimate D2E/DX2                !
 ! D57   D(2,6,10,49)           -2.4569         estimate D2E/DX2                !
 ! D58   D(2,6,10,53)          148.9195         estimate D2E/DX2                !
 ! D59   D(15,6,10,49)        -149.2708         estimate D2E/DX2                !
 ! D60   D(15,6,10,53)           2.1057         estimate D2E/DX2                !
 ! D61   D(2,6,15,13)           -8.2171         estimate D2E/DX2                !
 ! D62   D(2,6,15,17)         -155.772          estimate D2E/DX2                !
 ! D63   D(10,6,15,13)         142.6225         estimate D2E/DX2                !
 ! D64   D(10,6,15,17)          -4.9325         estimate D2E/DX2                !
 ! D65   D(3,7,12,14)            6.6246         estimate D2E/DX2                !
 ! D66   D(3,7,12,36)          163.8156         estimate D2E/DX2                !
 ! D67   D(30,7,12,14)        -155.9114         estimate D2E/DX2                !
 ! D68   D(30,7,12,36)           1.2796         estimate D2E/DX2                !
 ! D69   D(3,7,30,28)           -7.3802         estimate D2E/DX2                !
 ! D70   D(3,7,30,32)         -169.8257         estimate D2E/DX2                !
 ! D71   D(12,7,30,28)         156.0309         estimate D2E/DX2                !
 ! D72   D(12,7,30,32)          -6.4146         estimate D2E/DX2                !
 ! D73   D(4,8,11,50)            2.4569         estimate D2E/DX2                !
 ! D74   D(4,8,11,54)         -148.9195         estimate D2E/DX2                !
 ! D75   D(16,8,11,50)         149.2708         estimate D2E/DX2                !
 ! D76   D(16,8,11,54)          -2.1057         estimate D2E/DX2                !
 ! D77   D(4,8,16,14)            8.2171         estimate D2E/DX2                !
 ! D78   D(4,8,16,18)          155.772          estimate D2E/DX2                !
 ! D79   D(11,8,16,14)        -142.6225         estimate D2E/DX2                !
 ! D80   D(11,8,16,18)           4.9325         estimate D2E/DX2                !
 ! D81   D(5,9,13,15)           -5.7951         estimate D2E/DX2                !
 ! D82   D(5,9,13,43)         -149.4525         estimate D2E/DX2                !
 ! D83   D(35,9,13,15)         152.2024         estimate D2E/DX2                !
 ! D84   D(35,9,13,43)           8.545          estimate D2E/DX2                !
 ! D85   D(5,9,35,33)           -7.7458         estimate D2E/DX2                !
 ! D86   D(5,9,35,37)          152.4427         estimate D2E/DX2                !
 ! D87   D(13,9,35,33)        -165.3767         estimate D2E/DX2                !
 ! D88   D(13,9,35,37)          -5.1882         estimate D2E/DX2                !
 ! D89   D(6,10,49,47)          28.1874         estimate D2E/DX2                !
 ! D90   D(6,10,49,51)         147.5428         estimate D2E/DX2                !
 ! D91   D(53,10,49,47)       -124.9416         estimate D2E/DX2                !
 ! D92   D(53,10,49,51)         -5.5862         estimate D2E/DX2                !
 ! D93   D(6,10,53,19)           0.4297         estimate D2E/DX2                !
 ! D94   D(6,10,53,55)        -155.616          estimate D2E/DX2                !
 ! D95   D(49,10,53,19)        154.2149         estimate D2E/DX2                !
 ! D96   D(49,10,53,55)         -1.8308         estimate D2E/DX2                !
 ! D97   D(8,11,50,48)         -28.1874         estimate D2E/DX2                !
 ! D98   D(8,11,50,52)        -147.5428         estimate D2E/DX2                !
 ! D99   D(54,11,50,48)        124.9416         estimate D2E/DX2                !
 ! D100  D(54,11,50,52)          5.5862         estimate D2E/DX2                !
 ! D101  D(8,11,54,20)          -0.4297         estimate D2E/DX2                !
 ! D102  D(8,11,54,56)         155.616          estimate D2E/DX2                !
 ! D103  D(50,11,54,20)       -154.2149         estimate D2E/DX2                !
 ! D104  D(50,11,54,56)          1.8308         estimate D2E/DX2                !
 ! D105  D(7,12,14,16)           5.7951         estimate D2E/DX2                !
 ! D106  D(7,12,14,46)         149.4525         estimate D2E/DX2                !
 ! D107  D(36,12,14,16)       -152.2024         estimate D2E/DX2                !
 ! D108  D(36,12,14,46)         -8.545          estimate D2E/DX2                !
 ! D109  D(7,12,36,34)           7.7458         estimate D2E/DX2                !
 ! D110  D(7,12,36,38)        -152.4427         estimate D2E/DX2                !
 ! D111  D(14,12,36,34)        165.3767         estimate D2E/DX2                !
 ! D112  D(14,12,36,38)          5.1882         estimate D2E/DX2                !
 ! D113  D(9,13,15,6)         -145.7719         estimate D2E/DX2                !
 ! D114  D(9,13,15,17)           1.5194         estimate D2E/DX2                !
 ! D115  D(43,13,15,6)           2.0631         estimate D2E/DX2                !
 ! D116  D(43,13,15,17)        149.3544         estimate D2E/DX2                !
 ! D117  D(9,13,43,2)          151.8894         estimate D2E/DX2                !
 ! D118  D(9,13,43,39)          -4.367          estimate D2E/DX2                !
 ! D119  D(15,13,43,2)           4.806          estimate D2E/DX2                !
 ! D120  D(15,13,43,39)       -151.4504         estimate D2E/DX2                !
 ! D121  D(12,14,16,8)         145.7719         estimate D2E/DX2                !
 ! D122  D(12,14,16,18)         -1.5194         estimate D2E/DX2                !
 ! D123  D(46,14,16,8)          -2.0631         estimate D2E/DX2                !
 ! D124  D(46,14,16,18)       -149.3544         estimate D2E/DX2                !
 ! D125  D(12,14,46,4)        -151.8894         estimate D2E/DX2                !
 ! D126  D(12,14,46,42)          4.367          estimate D2E/DX2                !
 ! D127  D(16,14,46,4)          -4.806          estimate D2E/DX2                !
 ! D128  D(16,14,46,42)        151.4504         estimate D2E/DX2                !
 ! D129  D(6,15,17,1)          158.8148         estimate D2E/DX2                !
 ! D130  D(6,15,17,19)           5.1149         estimate D2E/DX2                !
 ! D131  D(13,15,17,1)          15.5698         estimate D2E/DX2                !
 ! D132  D(13,15,17,19)       -138.13           estimate D2E/DX2                !
 ! D133  D(8,16,18,3)         -158.8148         estimate D2E/DX2                !
 ! D134  D(8,16,18,20)          -5.1149         estimate D2E/DX2                !
 ! D135  D(14,16,18,3)         -15.5698         estimate D2E/DX2                !
 ! D136  D(14,16,18,20)        138.13           estimate D2E/DX2                !
 ! D137  D(1,17,19,21)          -1.0275         estimate D2E/DX2                !
 ! D138  D(1,17,19,53)        -157.7032         estimate D2E/DX2                !
 ! D139  D(15,17,19,21)        154.1753         estimate D2E/DX2                !
 ! D140  D(15,17,19,53)         -2.5004         estimate D2E/DX2                !
 ! D141  D(3,18,20,22)           1.0275         estimate D2E/DX2                !
 ! D142  D(3,18,20,54)         157.7032         estimate D2E/DX2                !
 ! D143  D(16,18,20,22)       -154.1753         estimate D2E/DX2                !
 ! D144  D(16,18,20,54)          2.5004         estimate D2E/DX2                !
 ! D145  D(17,19,21,23)         -5.8449         estimate D2E/DX2                !
 ! D146  D(17,19,21,57)       -126.9647         estimate D2E/DX2                !
 ! D147  D(53,19,21,23)        150.186          estimate D2E/DX2                !
 ! D148  D(53,19,21,57)         29.0662         estimate D2E/DX2                !
 ! D149  D(17,19,53,10)         -0.2563         estimate D2E/DX2                !
 ! D150  D(17,19,53,55)        153.6153         estimate D2E/DX2                !
 ! D151  D(21,19,53,10)       -155.0981         estimate D2E/DX2                !
 ! D152  D(21,19,53,55)         -1.2265         estimate D2E/DX2                !
 ! D153  D(18,20,22,24)         22.4702         estimate D2E/DX2                !
 ! D154  D(18,20,22,58)        126.9647         estimate D2E/DX2                !
 ! D155  D(54,20,22,24)       -133.5607         estimate D2E/DX2                !
 ! D156  D(54,20,22,58)        -29.0662         estimate D2E/DX2                !
 ! D157  D(18,20,54,11)          0.2563         estimate D2E/DX2                !
 ! D158  D(18,20,54,56)       -153.6153         estimate D2E/DX2                !
 ! D159  D(22,20,54,11)        155.0981         estimate D2E/DX2                !
 ! D160  D(22,20,54,56)          1.2265         estimate D2E/DX2                !
 ! D161  D(19,21,23,1)          11.343          estimate D2E/DX2                !
 ! D162  D(19,21,23,25)       -147.4434         estimate D2E/DX2                !
 ! D163  D(57,21,23,1)         127.7873         estimate D2E/DX2                !
 ! D164  D(57,21,23,25)        -30.9991         estimate D2E/DX2                !
 ! D165  D(19,21,57,59)        138.4432         estimate D2E/DX2                !
 ! D166  D(19,21,57,83)        -27.0961         estimate D2E/DX2                !
 ! D167  D(23,21,57,59)         30.3517         estimate D2E/DX2                !
 ! D168  D(23,21,57,83)       -135.1875         estimate D2E/DX2                !
 ! D169  D(20,22,24,26)        -25.0872         estimate D2E/DX2                !
 ! D170  D(20,22,24,62)        133.7332         estimate D2E/DX2                !
 ! D171  D(58,22,24,26)       -139.9973         estimate D2E/DX2                !
 ! D172  D(58,22,24,62)         18.8231         estimate D2E/DX2                !
 ! D173  D(20,22,58,60)       -138.4432         estimate D2E/DX2                !
 ! D174  D(20,22,58,84)         27.0961         estimate D2E/DX2                !
 ! D175  D(24,22,58,60)        -10.7987         estimate D2E/DX2                !
 ! D176  D(24,22,58,84)        154.7406         estimate D2E/DX2                !
 ! D177  D(1,23,25,27)           1.5545         estimate D2E/DX2                !
 ! D178  D(1,23,25,61)        -156.8159         estimate D2E/DX2                !
 ! D179  D(21,23,25,27)        159.9825         estimate D2E/DX2                !
 ! D180  D(21,23,25,61)          1.612          estimate D2E/DX2                !
 ! D181  D(22,24,26,3)           2.7184         estimate D2E/DX2                !
 ! D182  D(22,24,26,28)        160.4166         estimate D2E/DX2                !
 ! D183  D(62,24,26,3)        -157.9527         estimate D2E/DX2                !
 ! D184  D(62,24,26,28)         -0.2546         estimate D2E/DX2                !
 ! D185  D(22,24,62,60)        -18.04           estimate D2E/DX2                !
 ! D186  D(22,24,62,64)       -130.6026         estimate D2E/DX2                !
 ! D187  D(26,24,62,60)        141.1051         estimate D2E/DX2                !
 ! D188  D(26,24,62,64)         28.5426         estimate D2E/DX2                !
 ! D189  D(23,25,27,29)        -26.9878         estimate D2E/DX2                !
 ! D190  D(23,25,27,65)       -141.532          estimate D2E/DX2                !
 ! D191  D(61,25,27,29)        131.3988         estimate D2E/DX2                !
 ! D192  D(61,25,27,65)         16.8546         estimate D2E/DX2                !
 ! D193  D(23,25,61,59)         27.8083         estimate D2E/DX2                !
 ! D194  D(23,25,61,63)        142.5031         estimate D2E/DX2                !
 ! D195  D(27,25,61,59)       -130.4013         estimate D2E/DX2                !
 ! D196  D(27,25,61,63)        -15.7065         estimate D2E/DX2                !
 ! D197  D(3,26,28,30)          12.3578         estimate D2E/DX2                !
 ! D198  D(3,26,28,66)         123.448          estimate D2E/DX2                !
 ! D199  D(24,26,28,30)       -141.5708         estimate D2E/DX2                !
 ! D200  D(24,26,28,66)        -30.4806         estimate D2E/DX2                !
 ! D201  D(25,27,29,5)          22.0902         estimate D2E/DX2                !
 ! D202  D(25,27,29,31)       -140.476          estimate D2E/DX2                !
 ! D203  D(65,27,29,5)         128.562          estimate D2E/DX2                !
 ! D204  D(65,27,29,31)        -34.0043         estimate D2E/DX2                !
 ! D205  D(25,27,65,63)        -10.2862         estimate D2E/DX2                !
 ! D206  D(25,27,65,67)        151.6786         estimate D2E/DX2                !
 ! D207  D(29,27,65,63)       -131.3921         estimate D2E/DX2                !
 ! D208  D(29,27,65,67)         30.5727         estimate D2E/DX2                !
 ! D209  D(26,28,30,7)          -2.0561         estimate D2E/DX2                !
 ! D210  D(26,28,30,32)        160.5102         estimate D2E/DX2                !
 ! D211  D(66,28,30,7)        -128.562          estimate D2E/DX2                !
 ! D212  D(66,28,30,32)         34.0043         estimate D2E/DX2                !
 ! D213  D(26,28,66,64)         31.68           estimate D2E/DX2                !
 ! D214  D(26,28,66,68)       -130.2848         estimate D2E/DX2                !
 ! D215  D(30,28,66,64)        131.3921         estimate D2E/DX2                !
 ! D216  D(30,28,66,68)        -30.5727         estimate D2E/DX2                !
 ! D217  D(5,29,31,33)          -2.1973         estimate D2E/DX2                !
 ! D218  D(5,29,31,69)        -159.4472         estimate D2E/DX2                !
 ! D219  D(27,29,31,33)        160.4571         estimate D2E/DX2                !
 ! D220  D(27,29,31,69)          3.2072         estimate D2E/DX2                !
 ! D221  D(7,30,32,34)           2.1973         estimate D2E/DX2                !
 ! D222  D(7,30,32,70)         159.4472         estimate D2E/DX2                !
 ! D223  D(28,30,32,34)       -160.4571         estimate D2E/DX2                !
 ! D224  D(28,30,32,70)         -3.2072         estimate D2E/DX2                !
 ! D225  D(29,31,33,35)         -7.4804         estimate D2E/DX2                !
 ! D226  D(29,31,33,73)       -166.1881         estimate D2E/DX2                !
 ! D227  D(69,31,33,35)        152.0327         estimate D2E/DX2                !
 ! D228  D(69,31,33,73)         -6.6749         estimate D2E/DX2                !
 ! D229  D(29,31,69,67)         32.406          estimate D2E/DX2                !
 ! D230  D(29,31,69,71)        150.7006         estimate D2E/DX2                !
 ! D231  D(33,31,69,67)       -126.7869         estimate D2E/DX2                !
 ! D232  D(33,31,69,71)         -8.4923         estimate D2E/DX2                !
 ! D233  D(30,32,34,36)          7.4804         estimate D2E/DX2                !
 ! D234  D(30,32,34,74)        166.1881         estimate D2E/DX2                !
 ! D235  D(70,32,34,36)       -152.0327         estimate D2E/DX2                !
 ! D236  D(70,32,34,74)          6.6749         estimate D2E/DX2                !
 ! D237  D(30,32,70,68)        -32.406          estimate D2E/DX2                !
 ! D238  D(30,32,70,72)       -150.7006         estimate D2E/DX2                !
 ! D239  D(34,32,70,68)        126.7869         estimate D2E/DX2                !
 ! D240  D(34,32,70,72)          8.4923         estimate D2E/DX2                !
 ! D241  D(31,33,35,9)          12.1082         estimate D2E/DX2                !
 ! D242  D(31,33,35,37)       -147.9929         estimate D2E/DX2                !
 ! D243  D(73,33,35,9)         167.919          estimate D2E/DX2                !
 ! D244  D(73,33,35,37)          7.8178         estimate D2E/DX2                !
 ! D245  D(31,33,73,71)         18.7168         estimate D2E/DX2                !
 ! D246  D(31,33,73,75)        137.8083         estimate D2E/DX2                !
 ! D247  D(35,33,73,71)       -139.3305         estimate D2E/DX2                !
 ! D248  D(35,33,73,75)        -20.2389         estimate D2E/DX2                !
 ! D249  D(32,34,36,12)        -12.1082         estimate D2E/DX2                !
 ! D250  D(32,34,36,38)        147.9929         estimate D2E/DX2                !
 ! D251  D(74,34,36,12)       -167.919          estimate D2E/DX2                !
 ! D252  D(74,34,36,38)         -7.8178         estimate D2E/DX2                !
 ! D253  D(32,34,74,72)        -18.7168         estimate D2E/DX2                !
 ! D254  D(32,34,74,76)       -137.8083         estimate D2E/DX2                !
 ! D255  D(36,34,74,72)        139.3305         estimate D2E/DX2                !
 ! D256  D(36,34,74,76)         20.2389         estimate D2E/DX2                !
 ! D257  D(9,35,37,39)          -2.2863         estimate D2E/DX2                !
 ! D258  D(9,35,37,77)        -167.3102         estimate D2E/DX2                !
 ! D259  D(33,35,37,39)        157.014          estimate D2E/DX2                !
 ! D260  D(33,35,37,77)         -8.0099         estimate D2E/DX2                !
 ! D261  D(12,36,38,42)          2.2863         estimate D2E/DX2                !
 ! D262  D(12,36,38,78)        167.3102         estimate D2E/DX2                !
 ! D263  D(34,36,38,42)       -157.014          estimate D2E/DX2                !
 ! D264  D(34,36,38,78)          8.0099         estimate D2E/DX2                !
 ! D265  D(35,37,39,43)          6.6901         estimate D2E/DX2                !
 ! D266  D(35,37,39,79)       -155.6083         estimate D2E/DX2                !
 ! D267  D(77,37,39,43)        171.8796         estimate D2E/DX2                !
 ! D268  D(77,37,39,79)          9.5812         estimate D2E/DX2                !
 ! D269  D(35,37,77,75)         20.9102         estimate D2E/DX2                !
 ! D270  D(35,37,77,81)        134.2836         estimate D2E/DX2                !
 ! D271  D(39,37,77,75)       -144.3651         estimate D2E/DX2                !
 ! D272  D(39,37,77,81)        -30.9917         estimate D2E/DX2                !
 ! D273  D(36,38,42,46)         -6.6901         estimate D2E/DX2                !
 ! D274  D(36,38,42,80)        155.6083         estimate D2E/DX2                !
 ! D275  D(78,38,42,46)       -171.8796         estimate D2E/DX2                !
 ! D276  D(78,38,42,80)         -9.5812         estimate D2E/DX2                !
 ! D277  D(36,38,78,76)        -20.9102         estimate D2E/DX2                !
 ! D278  D(36,38,78,81)       -134.2836         estimate D2E/DX2                !
 ! D279  D(42,38,78,76)        144.3651         estimate D2E/DX2                !
 ! D280  D(42,38,78,81)         30.9917         estimate D2E/DX2                !
 ! D281  D(37,39,43,2)        -156.1953         estimate D2E/DX2                !
 ! D282  D(37,39,43,13)         -3.5053         estimate D2E/DX2                !
 ! D283  D(79,39,43,2)           7.1155         estimate D2E/DX2                !
 ! D284  D(79,39,43,13)        159.8054         estimate D2E/DX2                !
 ! D285  D(37,39,79,40)        126.9673         estimate D2E/DX2                !
 ! D286  D(37,39,79,82)         16.3663         estimate D2E/DX2                !
 ! D287  D(43,39,79,40)        -35.7751         estimate D2E/DX2                !
 ! D288  D(43,39,79,82)       -146.376          estimate D2E/DX2                !
 ! D289  D(44,40,41,45)          0.0            estimate D2E/DX2                !
 ! D290  D(44,40,41,80)       -162.7103         estimate D2E/DX2                !
 ! D291  D(79,40,41,45)        162.7103         estimate D2E/DX2                !
 ! D292  D(79,40,41,80)          0.0            estimate D2E/DX2                !
 ! D293  D(41,40,44,2)         164.5149         estimate D2E/DX2                !
 ! D294  D(41,40,44,47)         -1.399          estimate D2E/DX2                !
 ! D295  D(79,40,44,2)           4.165          estimate D2E/DX2                !
 ! D296  D(79,40,44,47)       -161.7489         estimate D2E/DX2                !
 ! D297  D(41,40,79,39)       -130.2203         estimate D2E/DX2                !
 ! D298  D(41,40,79,82)        -11.9198         estimate D2E/DX2                !
 ! D299  D(44,40,79,39)         31.7188         estimate D2E/DX2                !
 ! D300  D(44,40,79,82)        150.0194         estimate D2E/DX2                !
 ! D301  D(40,41,45,4)        -164.5149         estimate D2E/DX2                !
 ! D302  D(40,41,45,48)          1.399          estimate D2E/DX2                !
 ! D303  D(80,41,45,4)          -4.165          estimate D2E/DX2                !
 ! D304  D(80,41,45,48)        161.7489         estimate D2E/DX2                !
 ! D305  D(40,41,80,42)        130.2203         estimate D2E/DX2                !
 ! D306  D(40,41,80,82)         11.9198         estimate D2E/DX2                !
 ! D307  D(45,41,80,42)        -31.7188         estimate D2E/DX2                !
 ! D308  D(45,41,80,82)       -150.0194         estimate D2E/DX2                !
 ! D309  D(38,42,46,4)         156.1953         estimate D2E/DX2                !
 ! D310  D(38,42,46,14)          3.5053         estimate D2E/DX2                !
 ! D311  D(80,42,46,4)          -7.1155         estimate D2E/DX2                !
 ! D312  D(80,42,46,14)       -159.8054         estimate D2E/DX2                !
 ! D313  D(38,42,80,41)       -126.9673         estimate D2E/DX2                !
 ! D314  D(38,42,80,82)        -16.3663         estimate D2E/DX2                !
 ! D315  D(46,42,80,41)         35.7751         estimate D2E/DX2                !
 ! D316  D(46,42,80,82)        146.376          estimate D2E/DX2                !
 ! D317  D(2,44,47,48)        -163.7801         estimate D2E/DX2                !
 ! D318  D(2,44,47,49)           5.5435         estimate D2E/DX2                !
 ! D319  D(40,44,47,48)          1.384          estimate D2E/DX2                !
 ! D320  D(40,44,47,49)        170.7077         estimate D2E/DX2                !
 ! D321  D(4,45,48,47)         163.7801         estimate D2E/DX2                !
 ! D322  D(4,45,48,50)          -5.5435         estimate D2E/DX2                !
 ! D323  D(41,45,48,47)         -1.384          estimate D2E/DX2                !
 ! D324  D(41,45,48,50)       -170.7077         estimate D2E/DX2                !
 ! D325  D(44,47,48,45)          0.0            estimate D2E/DX2                !
 ! D326  D(44,47,48,50)        169.5491         estimate D2E/DX2                !
 ! D327  D(49,47,48,45)       -169.5491         estimate D2E/DX2                !
 ! D328  D(49,47,48,50)          0.0            estimate D2E/DX2                !
 ! D329  D(44,47,49,10)        -29.4491         estimate D2E/DX2                !
 ! D330  D(44,47,49,51)       -139.6474         estimate D2E/DX2                !
 ! D331  D(48,47,49,10)        140.0282         estimate D2E/DX2                !
 ! D332  D(48,47,49,51)         29.83           estimate D2E/DX2                !
 ! D333  D(45,48,50,11)         29.4491         estimate D2E/DX2                !
 ! D334  D(45,48,50,52)        139.6474         estimate D2E/DX2                !
 ! D335  D(47,48,50,11)       -140.0282         estimate D2E/DX2                !
 ! D336  D(47,48,50,52)        -29.83           estimate D2E/DX2                !
 ! D337  D(10,49,51,52)       -147.5302         estimate D2E/DX2                !
 ! D338  D(10,49,51,55)         11.477          estimate D2E/DX2                !
 ! D339  D(47,49,51,52)        -30.5068         estimate D2E/DX2                !
 ! D340  D(47,49,51,55)        128.5004         estimate D2E/DX2                !
 ! D341  D(11,50,52,51)        147.5302         estimate D2E/DX2                !
 ! D342  D(11,50,52,56)        -11.477          estimate D2E/DX2                !
 ! D343  D(48,50,52,51)         30.5068         estimate D2E/DX2                !
 ! D344  D(48,50,52,56)       -128.5004         estimate D2E/DX2                !
 ! D345  D(49,51,52,50)          0.0            estimate D2E/DX2                !
 ! D346  D(49,51,52,56)        157.7897         estimate D2E/DX2                !
 ! D347  D(55,51,52,50)       -157.7897         estimate D2E/DX2                !
 ! D348  D(55,51,52,56)          0.0            estimate D2E/DX2                !
 ! D349  D(49,51,55,53)        -12.4135         estimate D2E/DX2                !
 ! D350  D(49,51,55,83)       -129.503          estimate D2E/DX2                !
 ! D351  D(52,51,55,53)        146.5312         estimate D2E/DX2                !
 ! D352  D(52,51,55,83)         29.4417         estimate D2E/DX2                !
 ! D353  D(50,52,56,54)         12.4135         estimate D2E/DX2                !
 ! D354  D(50,52,56,84)        129.503          estimate D2E/DX2                !
 ! D355  D(51,52,56,54)       -146.5312         estimate D2E/DX2                !
 ! D356  D(51,52,56,84)        -29.4417         estimate D2E/DX2                !
 ! D357  D(10,53,55,51)          8.2484         estimate D2E/DX2                !
 ! D358  D(10,53,55,83)        127.3775         estimate D2E/DX2                !
 ! D359  D(19,53,55,51)       -147.629          estimate D2E/DX2                !
 ! D360  D(19,53,55,83)        -28.4999         estimate D2E/DX2                !
[...]
 Alpha virt. eigenvalues --    1.11818   1.11855   1.12148   1.12403   1.13155
 Alpha virt. eigenvalues --    1.13759   1.13943   1.14423   1.14523   1.14628
 Alpha virt. eigenvalues --    1.14985   1.15365   1.15505   1.16089   1.16297
 Alpha virt. eigenvalues --    1.16710   1.16712   1.17025   1.17167   1.17417
 Alpha virt. eigenvalues --    1.17504   1.17735   1.18074   1.18157   1.18362
 Alpha virt. eigenvalues --    1.18765   1.19283   1.19593   1.19613   1.20028
 Alpha virt. eigenvalues --    1.20161   1.20398   1.20477   1.20834   1.21017
 Alpha virt. eigenvalues --    1.21533   1.21999   1.22292   1.22684   1.22934
 Alpha virt. eigenvalues --    1.23241   1.24015   1.24112   1.24519   1.24782
 Alpha virt. eigenvalues --    1.24846   1.25743   1.25979   1.26675   1.26982
 Alpha virt. eigenvalues --    1.27064   1.27303   1.27400   1.27818   1.27957
 Alpha virt. eigenvalues --    1.28105   1.28243   1.28403   1.28688   1.29397
 Alpha virt. eigenvalues --    1.29592   1.30078   1.30201   1.30629   1.30907
 Alpha virt. eigenvalues --    1.31440   1.31739   1.31803   1.32364   1.32384
 Alpha virt. eigenvalues --    1.32822   1.33246   1.33386   1.34112   1.34190
 Alpha virt. eigenvalues --    1.34762   1.34987   1.35094   1.35339   1.35908
 Alpha virt. eigenvalues --    1.36018   1.36909   1.36927   1.37429   1.38180
 Alpha virt. eigenvalues --    1.38219   1.39367   1.40115   1.40622   1.41210
 Alpha virt. eigenvalues --    1.41275   1.42203   1.42918   1.43243   1.43354
 Alpha virt. eigenvalues --    1.43842   1.44799   1.44955   1.46338   1.46475
 Alpha virt. eigenvalues --    1.47594   1.47597   1.47985   1.48459   1.48622
 Alpha virt. eigenvalues --    1.49455   1.49771   1.50270   1.50420   1.51351
 Alpha virt. eigenvalues --    1.51805   1.52887   1.53285   1.53810   1.54347
 Alpha virt. eigenvalues --    1.54581   1.55351   1.55415   1.56036   1.56080
 Alpha virt. eigenvalues --    1.56807   1.56819   1.57780   1.58411   1.58472
 Alpha virt. eigenvalues --    1.58641   1.58971   1.59055   1.59635   1.60244
 Alpha virt. eigenvalues --    1.60406   1.60739   1.61504   1.61796   1.62697
 Alpha virt. eigenvalues --    1.63609   1.63838   1.64397   1.64921   1.65705
 Alpha virt. eigenvalues --    1.65773   1.65792   1.66343   1.66554   1.66730
 Alpha virt. eigenvalues --    1.66950   1.67175   1.67226   1.68100   1.68368
 Alpha virt. eigenvalues --    1.68369   1.69045   1.69188   1.69683   1.69865
 Alpha virt. eigenvalues --    1.70138   1.70375   1.70583   1.70768   1.70808
 Alpha virt. eigenvalues --    1.71071   1.71533   1.71689   1.71812   1.72117
 Alpha virt. eigenvalues --    1.72203   1.72437   1.72982   1.73100   1.73184
 Alpha virt. eigenvalues --    1.73402   1.73621   1.73656   1.74214   1.74378
 Alpha virt. eigenvalues --    1.74527   1.74716   1.74909   1.75077   1.75413
 Alpha virt. eigenvalues --    1.75920   1.76134   1.76433   1.76664   1.76873
 Alpha virt. eigenvalues --    1.77046   1.77510   1.77580   1.77823   1.78004
 Alpha virt. eigenvalues --    1.78130   1.78443   1.79095   1.79383   1.79544
 Alpha virt. eigenvalues --    1.79766   1.79912   1.80198   1.80237   1.80648
 Alpha virt. eigenvalues --    1.82226   1.82328   1.83928   1.84900   1.85088
 Alpha virt. eigenvalues --    1.85597   1.85781   1.86334   1.86767   1.86990
 Alpha virt. eigenvalues --    1.87011   1.87052   1.88103   1.88862   1.90638
 Alpha virt. eigenvalues --    1.91232   1.92237   1.92398   1.92410   1.93259
 Alpha virt. eigenvalues --    1.93359   1.93711   1.94193   1.94452   1.94596
 Alpha virt. eigenvalues --    1.95475   1.95720   1.95778   1.95920   1.96203
 Alpha virt. eigenvalues --    1.96551   1.96697   1.96917   1.97748   1.97854
 Alpha virt. eigenvalues --    1.97959   1.98530   1.98679   1.98847   1.99129
 Alpha virt. eigenvalues --    1.99223   1.99550   1.99803   1.99889   2.00033
 Alpha virt. eigenvalues --    2.00176   2.00570   2.00739   2.00981   2.01110
 Alpha virt. eigenvalues --    2.01123   2.01268   2.01279   2.01522   2.01752
 Alpha virt. eigenvalues --    2.01754   2.01814   2.02306   2.02388   2.02413
 Alpha virt. eigenvalues --    2.02665   2.03116   2.03318   2.03488   2.03587
 Alpha virt. eigenvalues --    2.03875   2.04129   2.04366   2.04546   2.04667
 Alpha virt. eigenvalues --    2.04867   2.05107   2.05349   2.05626   2.05902
 Alpha virt. eigenvalues --    2.06118   2.06862   2.07410   2.08186   2.08499
 Alpha virt. eigenvalues --    2.08909   2.09638   2.10063   2.11362   2.11544
 Alpha virt. eigenvalues --    2.11692   2.12075   2.12939   2.13356   2.13372
 Alpha virt. eigenvalues --    2.14214   2.14397   2.14714   2.15143   2.15788
 Alpha virt. eigenvalues --    2.16448   2.16731   2.17251   2.17424   2.18974
 Alpha virt. eigenvalues --    2.19084   2.19873   2.20065   2.21326   2.21704
 Alpha virt. eigenvalues --    2.21975   2.22101   2.22464   2.22611   2.23088
 Alpha virt. eigenvalues --    2.23190   2.23552   2.23738   2.23808   2.24394
 Alpha virt. eigenvalues --    2.25574   2.25659   2.25975   2.26093   2.26499
 Alpha virt. eigenvalues --    2.26579   2.27687   2.28110   2.28291   2.28994
 Alpha virt. eigenvalues --    2.29173   2.29506   2.29677   2.29818   2.29939
 Alpha virt. eigenvalues --    2.30075   2.30933   2.31741   2.31942   2.32236
 Alpha virt. eigenvalues --    2.32243   2.33095   2.33186   2.33818   2.34476
 Alpha virt. eigenvalues --    2.35303   2.35483   2.36031   2.36047   2.37960
 Alpha virt. eigenvalues --    2.38874   2.39541   2.40123   2.40550   2.40800
 Alpha virt. eigenvalues --    2.41078   2.41766   2.42630   2.43104   2.43321
 Alpha virt. eigenvalues --    2.44144   2.44301   2.44966   2.45067   2.45550
 Alpha virt. eigenvalues --    2.45609   2.46523   2.46558   2.47346   2.47353
 Alpha virt. eigenvalues --    2.48703   2.49106   2.49571   2.51285   2.51306
 Alpha virt. eigenvalues --    2.51760   2.51944   2.52641   2.53022   2.53388
 Alpha virt. eigenvalues --    2.53829   2.54223   2.54569   2.55516   2.55560
 Alpha virt. eigenvalues --    2.56442   2.56657   2.56886   2.56905   2.57306
 Alpha virt. eigenvalues --    2.57885   2.58075   2.58424   2.58426   2.58471
 Alpha virt. eigenvalues --    2.58799   2.58940   2.59278   2.59374   2.60024
 Alpha virt. eigenvalues --    2.60133   2.60371   2.60439   2.60657   2.61016
 Alpha virt. eigenvalues --    2.61024   2.61579   2.61749   2.62090   2.62684
 Alpha virt. eigenvalues --    2.63492   2.63730   2.64180   2.64210   2.64244
 Alpha virt. eigenvalues --    2.65242   2.65322   2.65843   2.66286   2.66565
 Alpha virt. eigenvalues --    2.66797   2.66800   2.67230   2.67468   2.68229
 Alpha virt. eigenvalues --    2.68565   2.68717   2.68781   2.68871   2.69372
 Alpha virt. eigenvalues --    2.69896   2.70290   2.70470   2.70865   2.71303
 Alpha virt. eigenvalues --    2.71545   2.72247   2.72804   2.73257   2.73944
 Alpha virt. eigenvalues --    2.74196   2.74632   2.76994   2.77046   2.77839
 Alpha virt. eigenvalues --    2.78476   2.78641   2.78962   2.79701   2.79715
 Alpha virt. eigenvalues --    2.80751   2.80795   2.80964   2.82010   2.82394
 Alpha virt. eigenvalues --    2.82535   2.82924   2.82936   2.83374   2.83747
 Alpha virt. eigenvalues --    2.83835   2.83933   2.84493   2.85238   2.85484
 Alpha virt. eigenvalues --    2.85506   2.86478   2.86738   2.87647   2.87911
 Alpha virt. eigenvalues --    2.88255   2.89211   2.89316   2.89723   2.90560
 Alpha virt. eigenvalues --    2.91272   2.91285   2.91859   2.92034   2.92103
 Alpha virt. eigenvalues --    2.92398   2.92771   2.93233   2.93598   2.94198
 Alpha virt. eigenvalues --    2.94251   2.94932   2.95070   2.95656   2.96506
 Alpha virt. eigenvalues --    2.96919   2.97752   2.98477   2.98485   2.99085
 Alpha virt. eigenvalues --    2.99546   2.99913   3.01423   3.02182   3.03219
 Alpha virt. eigenvalues --    3.03515   3.04342   3.06973   3.07542   3.08301
 Alpha virt. eigenvalues --    3.09462   3.12813   3.15961   3.16293   3.16789
 Alpha virt. eigenvalues --    3.17838   3.19493   3.19735   3.20985   3.23764
 Alpha virt. eigenvalues --    3.24786   3.26541   3.30247   3.30269   3.31567
 Alpha virt. eigenvalues --    3.33269   3.34382   3.36040   3.36560   3.37850
 Alpha virt. eigenvalues --    3.38246   3.40278   3.41698   3.43061   3.43902
 Alpha virt. eigenvalues --    3.46053   3.48798   3.49227   3.52809   3.54551
 Alpha virt. eigenvalues --    3.55457   3.56732   3.58689   3.63042   4.01756
 Alpha virt. eigenvalues --    4.02039   4.02174   4.02399   4.02595   4.03968
 Alpha virt. eigenvalues --    4.04667   4.05219   4.05304   4.06858   4.06938
 Alpha virt. eigenvalues --    4.07406   4.07412   4.07504   4.07839   4.08009
 Alpha virt. eigenvalues --    4.10079   4.10436   4.11252   4.11790   4.12089
 Alpha virt. eigenvalues --    4.13126   4.13377   4.14732   4.14921   4.17712
 Alpha virt. eigenvalues --    4.17759   4.19524   4.20839   4.21205   4.21398
 Alpha virt. eigenvalues --    4.21906   4.22170   4.22652   4.22956   4.23681
 Alpha virt. eigenvalues --    4.27447   4.28712   4.29622   4.29831   4.30327
 Alpha virt. eigenvalues --    4.31254   4.32583   4.33076   4.35224   4.38213
 Alpha virt. eigenvalues --    4.40309   4.41750   4.41900   4.44658   4.45243
 Alpha virt. eigenvalues --    4.49417   4.49637   4.49838   4.52322   4.53098
 Alpha virt. eigenvalues --    4.56132   4.57066   4.57423   4.58723   4.61056
 Alpha virt. eigenvalues --    4.65229   4.66412   4.68236   4.68261   4.69228
 Alpha virt. eigenvalues --    4.70016   4.74531   4.79057   4.83667   4.85776
 Alpha virt. eigenvalues --    4.86999   4.88080   4.91517   4.94651   4.95084
 Alpha virt. eigenvalues --    4.97893   5.10012   5.13024   5.14823   5.17452
 Alpha virt. eigenvalues --    5.19703   5.25894   5.27155
          Condensed to atoms (all electrons):
 Mulliken charges:
               1
     1  C   -0.027816
     2  C   -0.021324
     3  C   -0.025947
     4  C   -0.021837
     5  C    0.046280
     6  C   -0.010383
     7  C   -0.018648
     8  C   -0.018395
     9  C    0.040277
    10  C    0.002103
    11  C   -0.003967
    12  C    0.052470
    13  C   -0.028341
    14  C   -0.029490
    15  C   -0.010671
    16  C   -0.023961
    17  C   -0.002523
    18  C    0.056396
    19  C   -0.003947
    20  C    0.056340
    21  C   -0.024908
    22  C   -0.023834
    23  C   -0.000576
    24  C   -0.018479
    25  C   -0.024657
    26  C   -0.003931
    27  C   -0.020902
    28  C   -0.023968
    29  C    0.050545
    30  C   -0.017004
    31  C   -0.034889
    32  C   -0.011819
    33  C   -0.028303
    34  C   -0.024234
    35  C    0.040243
    36  C    0.044090
    37  C    0.046332
    38  C    0.044328
    39  C    0.050532
    40  C   -0.030794
    41  C   -0.032136
    42  C    0.054110
    43  C   -0.034849
    44  C    0.049822
    45  C    0.051059
    46  C   -0.033346
    47  C    0.045717
    48  C    0.045574
    49  C   -0.026004
    50  C   -0.023919
    51  C   -0.011827
    52  C   -0.017016
    53  C   -0.008565
    54  C   -0.025973
    55  C   -0.024226
    56  C   -0.018586
    57  C    0.044229
    58  C   -0.029495
    59  C    0.054142
    60  C   -0.033375
    61  C   -0.021671
    62  C   -0.021793
    63  C   -0.032149
    64  C    0.051025
    65  C   -0.030844
    66  C    0.045634
    67  C    0.049871
    68  C    0.045710
    69  C   -0.021373
    70  C   -0.026001
    71  C   -0.010431
    72  C    0.002121
    73  C   -0.010600
    74  C   -0.008540
    75  C   -0.002554
    76  C   -0.003951
    77  C   -0.027870
    78  C   -0.025015
    79  C   -0.020940
    80  C   -0.021660
    81  C   -0.000536
    82  C   -0.024675
    83  C    0.044096
    84  C    0.052419
 Sum of Mulliken charges =  -0.00000
 Mulliken charges with hydrogens summed into heavy atoms:
               1
     1  C   -0.027816
     2  C   -0.021324
     3  C   -0.025947
     4  C   -0.021837
     5  C    0.046280
     6  C   -0.010383
     7  C   -0.018648
     8  C   -0.018395
     9  C    0.040277
    10  C    0.002103
    11  C   -0.003967
    12  C    0.052470
    13  C   -0.028341
    14  C   -0.029490
    15  C   -0.010671
    16  C   -0.023961
    17  C   -0.002523
    18  C    0.056396
    19  C   -0.003947
    20  C    0.056340
    21  C   -0.024908
    22  C   -0.023834
    23  C   -0.000576
    24  C   -0.018479
    25  C   -0.024657
    26  C   -0.003931
    27  C   -0.020902
    28  C   -0.023968
    29  C    0.050545
    30  C   -0.017004
    31  C   -0.034889
    32  C   -0.011819
    33  C   -0.028303
    34  C   -0.024234
    35  C    0.040243
    36  C    0.044090
    37  C    0.046332
    38  C    0.044328
    39  C    0.050532
    40  C   -0.030794
    41  C   -0.032136
    42  C    0.054110
    43  C   -0.034849
    44  C    0.049822
    45  C    0.051059
    46  C   -0.033346
    47  C    0.045717
    48  C    0.045574
    49  C   -0.026004
    50  C   -0.023919
    51  C   -0.011827
    52  C   -0.017016
    53  C   -0.008565
    54  C   -0.025973
    55  C   -0.024226
    56  C   -0.018586
    57  C    0.044229
    58  C   -0.029495
    59  C    0.054142
    60  C   -0.033375
    61  C   -0.021671
    62  C   -0.021793
    63  C   -0.032149
    64  C    0.051025
    65  C   -0.030844
    66  C    0.045634
    67  C    0.049871
    68  C    0.045710
    69  C   -0.021373
    70  C   -0.026001
    71  C   -0.010431
    72  C    0.002121
    73  C   -0.010600
    74  C   -0.008540
    75  C   -0.002554
    76  C   -0.003951
    77  C   -0.027870
    78  C   -0.025015
    79  C   -0.020940
    80  C   -0.021660
    81  C   -0.000536
    82  C   -0.024675
    83  C    0.044096
    84  C    0.052419
 Electronic spatial extent (au):  <R**2>=          32819.8719
 Charge=             -0.0000 electrons
 Dipole moment (field-independent basis, Debye):
    X=             -0.0002    Y=             -0.1620    Z=              0.0000  Tot=              0.1620
 Quadrupole moment (field-independent basis, Debye-Ang):
   XX=           -450.3691   YY=           -453.7793   ZZ=           -455.7944
   XY=              0.0025   XZ=              0.4532   YZ=              0.0002
 Traceless Quadrupole moment (field-independent basis, Debye-Ang):
   XX=              2.9452   YY=             -0.4651   ZZ=             -2.4801
   XY=              0.0025   XZ=              0.4532   YZ=              0.0002
 Octapole moment (field-independent basis, Debye-Ang**2):
  XXX=              0.0006  YYY=             -3.3015  ZZZ=              0.0002  XYY=             -0.0015
  XXY=             -0.6123  XXZ=             -0.0007  XZZ=             -0.0037  YZZ=              0.2928
  YYZ=             -0.0024  XYZ=             -3.2541
 Hexadecapole moment (field-independent basis, Debye-Ang**3):
 XXXX=         -17699.3342 YYYY=         -16204.3697 ZZZZ=         -15595.4539 XXXY=              0.0237
 XXXZ=             10.2293 YYYX=              0.0136 YYYZ=              0.0048 ZZZX=             -3.9726
 ZZZY=              0.0012 XXYY=          -5656.0012 XXZZ=          -5529.1720 YYZZ=          -5304.8169
 XXYZ=             -0.0150 YYXZ=              4.6103 ZZXY=              0.0183
 N-N= 1.413266055747D+04 E-N=-3.567382837928D+04  KE= 3.171034093631D+03
 No NMR shielding tensors so no spin-rotation constants.
 Leave Link  601 at Sun Jun 26 05:04:40 2022, MaxMem=  1342177280 cpu:              51.3 elap:               1.3
 (Enter /home/mkliu/g16/l9999.exe)
 1\1\GINC-NODE03\FOpt\RB3LYP\6-31G(d,p)\C84\MKLIU\26-Jun-2022\0\\#P opt
  b3lyp/6-31G(d, p) empiricaldispersion=GD3\\force\\0,1\C,8.4982270706,
 18.8491539192,10.7628101294\C,12.393556071,20.1326213904,8.9325128741\
 C,8.2597029025,26.9123083242,10.5412230388\C,12.3010274612,25.60735114
 96,8.9481232988\C,8.0184583446,19.072449211,9.4471226971\C,12.05805492
 35,19.5026534331,10.1815592511\C,7.9497996896,26.8777427944,9.14974992
 21\C,11.865964879,26.1786368084,10.1994465695\C,8.9919706174,19.161118
 1161,8.3531347055\C,12.3320787273,20.1545937831,11.366850676\C,12.1306
 128072,25.5201695942,11.3709578875\C,8.9517501412,26.6941942859,8.1533
 483043\C,10.3566215946,18.9980073326,8.6688576267\C,10.2848148462,26.7
 502437673,8.6202806807\C,10.8093824297,18.7843695586,10.0099078371\C,1
 0.6000084465,26.8560946243,10.0041200506\C,9.889857126,18.7328571657,1
 1.048076959\C,9.5939318461,26.8250528074,11.010855946\C,10.1713630669,
 19.427612285,12.2988898822\C,9.8631893961,26.0911452268,12.2542957774\
 C,8.9536313069,19.9964456704,12.7892960799\C,8.7784706585,25.453884434
 1,12.9202740082\C,7.8966870698,19.5278485336,11.9039947826\C,7.4338460
 11,25.5262857237,12.385108589\C,6.7478313626,20.2504218689,11.75453694
 6\C,7.1758473547,26.2361303397,11.2424572696\C,6.1130998706,20.3337178
 596,10.4659388256\C,6.2183126747,25.741545033,10.2723469678\C,6.734735
 1125,19.7594880971,9.3181102088\C,6.6532221485,26.2436141483,9.0057358
 534\C,6.4040643795,20.3480098092,8.0885230061\C,6.3461589826,25.570266
 7807,7.8515387913\C,7.3367660644,20.3455649604,6.9693436712\C,7.311764
 2777,25.4820294136,6.7669591832\C,8.6640210421,19.8948568741,7.1234019
 057\C,8.6468118805,25.9241281338,6.938379448\C,9.7153737917,20.5831257
 824,6.3662430774\C,9.7136174098,25.1724245561,6.2718510903\C,11.086550
 5847,20.5680055906,6.8728428431\C,12.8084547644,22.1560331722,7.710788
 1238\C,12.7940664973,23.6131429433,7.711229906\C,11.0706265428,25.1903
 291265,6.8357824899\C,11.3888434636,19.7613617048,7.9798183439\C,13.00
 74708385,21.4211768569,8.8982066205\C,12.9586027517,24.3416248559,8.90
 83253642\C,11.3420107018,25.9897713092,7.9626057334\C,13.2512132389,22
 .1466382764,10.1506047086\C,13.2140895863,23.6139065337,10.1538594346\
 C,12.9506469201,21.4644835455,11.355760223\C,12.8609731944,24.26751725
 63,11.3592130099\C,12.4377957193,22.1651284422,12.502215706\C,12.39625
 49043,23.5356802869,12.4966380221\C,11.3629705831,20.1195109136,12.453
 2039986\C,11.1293665538,25.4788008927,12.4289514624\C,11.3604889162,21
 .3946060668,13.1041841185\C,11.2720458686,24.2273997998,13.0976700788\
 C,8.9048938308,21.2904966897,13.3669664812\C,8.9133711319,24.172546426
 9,13.5245885636\C,7.6477793961,22.0397174592,13.2341434999\C,7.6625971
 476,23.4433297941,13.3452092065\C,6.5831233727,21.5022216917,12.451563
 6005\C,6.7612305657,24.27000632,12.6094194114\C,5.7562326476,22.324419
 614,11.6323863387\C,5.8691001277,23.7309766718,11.6348005396\C,5.45796
 82137,21.5971948383,10.4052756119\C,5.6146024309,24.4667042777,10.3941
 61876\C,5.2507926588,22.2695050733,9.1826538688\C,5.291962403,23.73634
 11125,9.1621844503\C,5.6015178898,21.5332834822,8.0106533804\C,5.58400
 99722,24.3526013911,7.9200679173\C,5.9426340288,22.2057533142,6.785476
 8628\C,5.9326534085,23.5853765273,6.7417880282\C,7.0008542682,21.45802
 60986,6.1333699399\C,6.9894320294,24.2948331325,6.0345592649\C,8.00059
 53451,22.1283896872,5.4427101571\C,7.9987989833,23.5857917291,5.401306
 1674\C,9.3484498195,21.6744501904,5.538367103\C,9.350428629,24.0468203
 483,5.4897372599\C,11.9301438635,21.7022565516,6.685063772\C,11.917653
 1762,24.0536176356,6.677425676\C,10.1921369408,22.8594173804,5.4443546
 689\C,11.4364883305,22.8711264714,6.0064705175\C,10.1644465565,22.0209
 260964,13.5335642988\C,10.1505925013,23.4906229252,13.5770989143\\Vers
 ion=ES64L-G16RevA.03\State=1-A\HF=-3201.0258759\RMSD=8.615e-09\RMSF=5.
 774e-05\Dipole=-0.0070975,-0.0552463,-0.03097\Quadrupole=-0.8566148,0.
 1932776,0.6633372,-0.8087355,1.5547879,-0.7704924\PG=C01 [X(C84)]\\@


 ALMOST ALL THE CHEMICAL PROCESSES WHICH OCCUR IN NATURE,
 WHETHER IN ANIMAL OR VEGETABLE ORGANISMS,
 OR IN THE NON-LIVING SURFACE OF THE EARTH ... 
 TAKE PLACE BETWEEN SUBSTANCES IN SOLUTION

                                    -- W. OSTWALD, 1890
 Job cpu time:       2 days  2 hours 27 minutes 37.4 seconds.
 Elapsed time:       0 days  1 hours  3 minutes 16.3 seconds.
 File lengths (MBytes):  RWF=    978 Int=      0 D2E=      0 Chk=    124 Scr=      1
 Normal termination of Gaussian 16 at Sun Jun 26 05:04:41 2022.
