 Entering Gaussian System, Link 0=g16
 Input=10_addons_C84_11_Cl22_rank_3.gjf
 Output=10_addons_C84_11_Cl22_rank_3.log
 Initial command:
 /home/mkliu/g16/l1.exe "/data/scratch/Gau-161628.inp" -scrdir="/data/scratch/"
 Entering Link 1 = /home/mkliu/g16/l1.exe PID=    161629.
  
 Copyright (c) 1988,1990,1992,1993,1995,1998,2003,2009,2016,
            Gaussian, Inc.  All Rights Reserved.
  
 This is part of the Gaussian(R) 16 program.  It is based on
 the Gaussian(R) 09 system (copyright 2009, Gaussian, Inc.),
 the Gaussian(R) 03 system (copyright 2003, Gaussian, Inc.),
 the Gaussian(R) 98 system (copyright 1998, Gaussian, Inc.),
 the Gaussian(R) 94 system (copyright 1995, Gaussian, Inc.),
 the Gaussian 92(TM) system (copyright 1992, Gaussian, Inc.),
 the Gaussian 90(TM) system (copyright 1990, Gaussian, Inc.),
 the Gaussian 88(TM) system (copyright 1988, Gaussian, Inc.),
 the Gaussian 86(TM) system (copyright 1986, Carnegie Mellon
 University), and the Gaussian 82(TM) system (copyright 1983,
 Carnegie Mellon University). Gaussian is a federally registered
 trademark of Gaussian, Inc.
  
 This software contains proprietary and confidential information,
 including trade secrets, belonging to Gaussian, Inc.
  
 This software is provided under written license and may be
 used, copied, transmitted, or stored only in accord with that
 written license.
  
 The following legend is applicable only to US Government
 contracts under FAR:
  
                    RESTRICTED RIGHTS LEGEND
  
 Use, reproduction and disclosure by the US Government is
 subject to restrictions as set forth in subparagraphs (a)
 and (c) of the Commercial Computer Software - Restricted
 Rights clause in FAR 52.227-19.
  
 Gaussian, Inc.
 340 Quinnipiac St., Bldg. 40, Wallingford CT 06492
  
  
 ---------------------------------------------------------------
 Warning -- This program may not be used in any manner that
 competes with the business of Gaussian, Inc. or will provide
 assistance to any competitor of Gaussian, Inc.  The licensee
 of this program is prohibited from giving any competitor of
 Gaussian, Inc. access to this program.  By using this program,
 the user acknowledges that Gaussian, Inc. is engaged in the
 business of creating and licensing software in the field of
 computational chemistry and represents and warrants to the
 licensee that it is not a competitor of Gaussian, Inc. and that
 it will not use this program in any manner prohibited above.
 ---------------------------------------------------------------
  

 Cite this work as:
 Gaussian 16, Revision A.03,
 M. J. Frisch, G. W. Trucks, H. B. Schlegel, G. E. Scuseria, 
 M. A. Robb, J. R. Cheeseman, G. Scalmani, V. Barone, 
 G. A. Petersson, H. Nakatsuji, X. Li, M. Caricato, A. V. Marenich, 
 J. Bloino, B. G. Janesko, R. Gomperts, B. Mennucci, H. P. Hratchian, 
 J. V. Ortiz, A. F. Izmaylov, J. L. Sonnenberg, D. Williams-Young, 
 F. Ding, F. Lipparini, F. Egidi, J. Goings, B. Peng, A. Petrone, 
 T. Henderson, D. Ranasinghe, V. G. Zakrzewski, J. Gao, N. Rega, 
 G. Zheng, W. Liang, M. Hada, M. Ehara, K. Toyota, R. Fukuda, 
 J. Hasegawa, M. Ishida, T. Nakajima, Y. Honda, O. Kitao, H. Nakai, 
 T. Vreven, K. Throssell, J. A. Montgomery, Jr., J. E. Peralta, 
 F. Ogliaro, M. J. Bearpark, J. J. Heyd, E. N. Brothers, K. N. Kudin, 
 V. N. Staroverov, T. A. Keith, R. Kobayashi, J. Normand, 
 K. Raghavachari, A. P. Rendell, J. C. Burant, S. S. Iyengar, 
 J. Tomasi, M. Cossi, J. M. Millam, M. Klene, C. Adamo, R. Cammi, 
 J. W. Ochterski, R. L. Martin, K. Morokuma, O. Farkas, 
 J. B. Foresman, and D. J. Fox, Gaussian, Inc., Wallingford CT, 2016.
 
 ******************************************
 Gaussian 16:  ES64L-G16RevA.03 25-Dec-2016
                27-Jun-2022 
 ******************************************
 %mem=10GB
 %chk=10_addons_C84_11_Cl22_rank_3.chk
 %nprocshared=24
 Will use up to   24 processors via shared memory.
 ------------------------------------------------
 #P opt b3lyp/6-31G(d, p) empiricaldispersion=GD3
 ------------------------------------------------
 1/18=20,19=15,26=3,38=1/1,3;
 2/9=110,12=2,17=6,18=5,40=1/2;
 3/5=1,6=6,7=101,11=2,25=1,30=1,71=1,74=-5,124=31/1,2,3;
 4//1;
 5/5=2,38=5/2;
 6/7=2,8=2,9=2,10=2,28=1/1;
 7//1,2,3,16;
 1/18=20,19=15,26=3/3(2);
 2/9=110/2;
 99//99;
 2/9=110/2;
 3/5=1,6=6,7=101,11=2,25=1,30=1,71=1,74=-5,124=31/1,2,3;
 4/5=5,16=3,69=1/1;
 5/5=2,38=5/2;
 7//1,2,3,16;
 1/18=20,19=15,26=3/3(-5);
 2/9=110/2;
 6/7=2,8=2,9=2,10=2,19=2,28=1/1;
 99/9=1/99;
 Leave Link    1 at Mon Jun 27 01:58:26 2022, MaxMem=  1342177280 cpu:               0.7 elap:               0.1
 (Enter /home/mkliu/g16/l101.exe)
 -----
 force
 -----
 Symbolic Z-matrix:
 Charge =  0 Multiplicity = 1
 C                     8.49342   18.85764   10.76775 
 C                     12.56239   19.9742   8.89237 
 C                     8.25172   26.86745   10.53828 
 C                     12.43731   25.70691   8.94374 
 C                     8.01389   19.08583   9.4619 
 C                     12.07402   19.46867   10.21361 
 C                     7.86313   27.09791   9.09307 
 C                     11.85339   26.15506   10.2518 
 C                     8.97008   19.19347   8.38063 
 C                     12.34076   20.11117   11.38391 
 C                     12.09827   25.50853   11.38178 
 C                     8.92784   26.5352   8.18558 
 C                     10.34865   19.06086   8.6968 
 C                     10.22519   26.57095   8.6653 
 C                     10.81358   18.81956   10.03316 
 C                     10.65042   27.0311   10.03614 
 C                     9.89547   18.7372   11.05476 
 C                     9.54685   26.75716   11.01635 
 C                     10.16903   19.40985   12.28373 
 C                     9.80319   26.0311   12.20311 
 C                     8.94147   19.97436   12.77081 
 C                     8.75571   25.39913   12.85831 
 C                     7.90355   19.50165   11.90108 
 C                     7.43712   25.47308   12.3387 
 C                     6.74582   20.23782   11.74834 
 C                     7.19436   26.19156   11.18679 
 C                     6.12798   20.326    10.47384 
 C                     6.25242   25.70456   10.22384 
 C                     6.74179   19.76003   9.34228 
 C                     6.62863   26.2477   8.97228 
 C                     6.40795   20.35432   8.11181 
 C                     6.32697   25.5718   7.83543 
 C                     7.31195   20.35004   7.02312 
 C                     7.19129   25.6319   6.60251 
 C                     8.6477    19.90296   7.17859 
 C                     8.64279   25.78237   7.03365 
 C                     9.67482   20.58964   6.43713 
 C                     9.66025   25.04598   6.40637 
 C                     11.02425   20.57012   6.91957 
 C                     12.67819   22.1661   7.80647 
 C                     12.69971   23.56346   7.79487 
 C                     10.95978   25.06229   6.93664 
 C                     11.34684   19.75558   8.00986 
 C                     12.89041   21.44378   8.97322 
 C                     12.85555   24.26264   8.97451 
 C                     11.22938   25.83841   8.04963 
 C                     13.11251   22.14569   10.16478 
 C                     13.0758   23.55312   10.16609 
 C                     13.15914   21.37392   11.47272 
 C                     13.02612   24.32478   11.46827 
 C                     12.40163   22.13888   12.5222 
 C                     12.33253   23.50459   12.50723 
 C                     11.35013   20.10796   12.41623 
 C                     11.18438   25.57966   12.57167 
 C                     11.32744   21.39154   13.04594 
 C                     11.22811   24.1539   13.05957 
 C                     8.88777   21.2627   13.33543 
 C                     8.87587   24.10768   13.49647 
 C                     7.64547   21.99529   13.20389 
 C                     7.6722    23.40871   13.30936 
 C                     6.59381   21.47652   12.43494 
 C                     6.76161   24.24084   12.56614 
 C                     5.76882   22.31184   11.59861 
 C                     5.88833   23.71876   11.59938 
 C                     5.4807    21.60915   10.40974 
 C                     5.64665   24.43903   10.36405 
 C                     5.26617   22.27684   9.18279 
 C                     5.32581   23.72262   9.16027 
 C                     5.59449   21.54071   8.032 
 C                     5.62842   24.3408   7.92556 
 C                     5.93021   22.19836   6.81194 
 C                     5.94949   23.58216   6.75596 
 C                     6.97437   21.46121   6.18159 
 C                     6.95305   24.27211   6.01053 
 C                     7.96522   22.14525   5.50948 
 C                     7.94178   23.56593   5.3927 
 C                     9.31889   21.69693   5.62395 
 C                     9.34672   24.08471   5.26788 
 C                     11.8416   21.70555   6.71724 
 C                     12.03076   24.08274   6.54157 
 C                     10.15122   22.82065   5.44967 
 C                     11.40254   22.8277   6.0124 
 C                     10.12796   21.99621   13.4833 
 C                     10.12068   23.43053   13.52729 
 Cl                    13.80022   26.75149   8.39732 
 Cl                    13.19178   24.84754   5.40153 
 Cl                    9.67652   24.9185   3.70596 
 Cl                    6.77404   26.98364   5.48955 
 Cl                    14.69905   24.81587   11.93583 
 Cl                    14.88371   21.07136   11.9039 
 Cl                    7.58848   28.83679   8.71889 
 Cl                    11.09286   28.78265   10.03461 
 Cl                    14.01128   19.07487   8.27855 
 Cl                    11.84586   26.70532   13.84166 
 
 ITRead=  0  0  0  0  0  0  0  0  0  0  0  0  0  0  0  0  0  0  0  0
 ITRead=  0  0  0  0  0  0  0  0  0  0  0  0  0  0  0  0  0  0  0  0
 ITRead=  0  0  0  0  0  0  0  0  0  0  0  0  0  0  0  0  0  0  0  0
 ITRead=  0  0  0  0  0  0  0  0  0  0  0  0  0  0  0  0  0  0  0  0
 ITRead=  0  0  0  0  0  0  0  0  0  0  0  0  0  0
 MicOpt= -1 -1 -1 -1 -1 -1 -1 -1 -1 -1 -1 -1 -1 -1 -1 -1 -1 -1 -1 -1
 MicOpt= -1 -1 -1 -1 -1 -1 -1 -1 -1 -1 -1 -1 -1 -1 -1 -1 -1 -1 -1 -1
 MicOpt= -1 -1 -1 -1 -1 -1 -1 -1 -1 -1 -1 -1 -1 -1 -1 -1 -1 -1 -1 -1
 MicOpt= -1 -1 -1 -1 -1 -1 -1 -1 -1 -1 -1 -1 -1 -1 -1 -1 -1 -1 -1 -1
 MicOpt= -1 -1 -1 -1 -1 -1 -1 -1 -1 -1 -1 -1 -1 -1
 NAtoms=     94 NQM=       94 NQMF=       0 NMMI=      0 NMMIF=      0
                NMic=       0 NMicF=      0.
                    Isotopes and Nuclear Properties:
 (Nuclear quadrupole moments (NQMom) in fm**2, nuclear magnetic moments (NMagM)
  in nuclear magnetons)

  Atom         1           2           3           4           5           6           7           8           9          10
 IAtWgt=          12          12          12          12          12          12          12          12          12          12
 AtmWgt=  12.0000000  12.0000000  12.0000000  12.0000000  12.0000000  12.0000000  12.0000000  12.0000000  12.0000000  12.0000000
 NucSpn=           0           0           0           0           0           0           0           0           0           0
 AtZEff=  -0.0000000  -0.0000000  -0.0000000  -0.0000000  -0.0000000  -0.0000000  -0.0000000  -0.0000000  -0.0000000  -0.0000000
 NQMom=    0.0000000   0.0000000   0.0000000   0.0000000   0.0000000   0.0000000   0.0000000   0.0000000   0.0000000   0.0000000
 NMagM=    0.0000000   0.0000000   0.0000000   0.0000000   0.0000000   0.0000000   0.0000000   0.0000000   0.0000000   0.0000000
 AtZNuc=   6.0000000   6.0000000   6.0000000   6.0000000   6.0000000   6.0000000   6.0000000   6.0000000   6.0000000   6.0000000

  Atom        11          12          13          14          15          16          17          18          19          20
 IAtWgt=          12          12          12          12          12          12          12          12          12          12
 AtmWgt=  12.0000000  12.0000000  12.0000000  12.0000000  12.0000000  12.0000000  12.0000000  12.0000000  12.0000000  12.0000000
 NucSpn=           0           0           0           0           0           0           0           0           0           0
 AtZEff=  -0.0000000  -0.0000000  -0.0000000  -0.0000000  -0.0000000  -0.0000000  -0.0000000  -0.0000000  -0.0000000  -0.0000000
 NQMom=    0.0000000   0.0000000   0.0000000   0.0000000   0.0000000   0.0000000   0.0000000   0.0000000   0.0000000   0.0000000
 NMagM=    0.0000000   0.0000000   0.0000000   0.0000000   0.0000000   0.0000000   0.0000000   0.0000000   0.0000000   0.0000000
 AtZNuc=   6.0000000   6.0000000   6.0000000   6.0000000   6.0000000   6.0000000   6.0000000   6.0000000   6.0000000   6.0000000

  Atom        21          22          23          24          25          26          27          28          29          30
 IAtWgt=          12          12          12          12          12          12          12          12          12          12
 AtmWgt=  12.0000000  12.0000000  12.0000000  12.0000000  12.0000000  12.0000000  12.0000000  12.0000000  12.0000000  12.0000000
 NucSpn=           0           0           0           0           0           0           0           0           0           0
 AtZEff=  -0.0000000  -0.0000000  -0.0000000  -0.0000000  -0.0000000  -0.0000000  -0.0000000  -0.0000000  -0.0000000  -0.0000000
 NQMom=    0.0000000   0.0000000   0.0000000   0.0000000   0.0000000   0.0000000   0.0000000   0.0000000   0.0000000   0.0000000
 NMagM=    0.0000000   0.0000000   0.0000000   0.0000000   0.0000000   0.0000000   0.0000000   0.0000000   0.0000000   0.0000000
 AtZNuc=   6.0000000   6.0000000   6.0000000   6.0000000   6.0000000   6.0000000   6.0000000   6.0000000   6.0000000   6.0000000

  Atom        31          32          33          34          35          36          37          38          39          40
 IAtWgt=          12          12          12          12          12          12          12          12          12          12
 AtmWgt=  12.0000000  12.0000000  12.0000000  12.0000000  12.0000000  12.0000000  12.0000000  12.0000000  12.0000000  12.0000000
 NucSpn=           0           0           0           0           0           0           0           0           0           0
 AtZEff=  -0.0000000  -0.0000000  -0.0000000  -0.0000000  -0.0000000  -0.0000000  -0.0000000  -0.0000000  -0.0000000  -0.0000000
 NQMom=    0.0000000   0.0000000   0.0000000   0.0000000   0.0000000   0.0000000   0.0000000   0.0000000   0.0000000   0.0000000
 NMagM=    0.0000000   0.0000000   0.0000000   0.0000000   0.0000000   0.0000000   0.0000000   0.0000000   0.0000000   0.0000000
 AtZNuc=   6.0000000   6.0000000   6.0000000   6.0000000   6.0000000   6.0000000   6.0000000   6.0000000   6.0000000   6.0000000

  Atom        41          42          43          44          45          46          47          48          49          50
 IAtWgt=          12          12          12          12          12          12          12          12          12          12
 AtmWgt=  12.0000000  12.0000000  12.0000000  12.0000000  12.0000000  12.0000000  12.0000000  12.0000000  12.0000000  12.0000000
 NucSpn=           0           0           0           0           0           0           0           0           0           0
 AtZEff=  -0.0000000  -0.0000000  -0.0000000  -0.0000000  -0.0000000  -0.0000000  -0.0000000  -0.0000000  -0.0000000  -0.0000000
 NQMom=    0.0000000   0.0000000   0.0000000   0.0000000   0.0000000   0.0000000   0.0000000   0.0000000   0.0000000   0.0000000
 NMagM=    0.0000000   0.0000000   0.0000000   0.0000000   0.0000000   0.0000000   0.0000000   0.0000000   0.0000000   0.0000000
 AtZNuc=   6.0000000   6.0000000   6.0000000   6.0000000   6.0000000   6.0000000   6.0000000   6.0000000   6.0000000   6.0000000

  Atom        51          52          53          54          55          56          57          58          59          60
 IAtWgt=          12          12          12          12          12          12          12          12          12          12
 AtmWgt=  12.0000000  12.0000000  12.0000000  12.0000000  12.0000000  12.0000000  12.0000000  12.0000000  12.0000000  12.0000000
 NucSpn=           0           0           0           0           0           0           0           0           0           0
 AtZEff=  -0.0000000  -0.0000000  -0.0000000  -0.0000000  -0.0000000  -0.0000000  -0.0000000  -0.0000000  -0.0000000  -0.0000000
 NQMom=    0.0000000   0.0000000   0.0000000   0.0000000   0.0000000   0.0000000   0.0000000   0.0000000   0.0000000   0.0000000
 NMagM=    0.0000000   0.0000000   0.0000000   0.0000000   0.0000000   0.0000000   0.0000000   0.0000000   0.0000000   0.0000000
 AtZNuc=   6.0000000   6.0000000   6.0000000   6.0000000   6.0000000   6.0000000   6.0000000   6.0000000   6.0000000   6.0000000

  Atom        61          62          63          64          65          66          67          68          69          70
 IAtWgt=          12          12          12          12          12          12          12          12          12          12
 AtmWgt=  12.0000000  12.0000000  12.0000000  12.0000000  12.0000000  12.0000000  12.0000000  12.0000000  12.0000000  12.0000000
 NucSpn=           0           0           0           0           0           0           0           0           0           0
 AtZEff=  -0.0000000  -0.0000000  -0.0000000  -0.0000000  -0.0000000  -0.0000000  -0.0000000  -0.0000000  -0.0000000  -0.0000000
 NQMom=    0.0000000   0.0000000   0.0000000   0.0000000   0.0000000   0.0000000   0.0000000   0.0000000   0.0000000   0.0000000
 NMagM=    0.0000000   0.0000000   0.0000000   0.0000000   0.0000000   0.0000000   0.0000000   0.0000000   0.0000000   0.0000000
 AtZNuc=   6.0000000   6.0000000   6.0000000   6.0000000   6.0000000   6.0000000   6.0000000   6.0000000   6.0000000   6.0000000

  Atom        71          72          73          74          75          76          77          78          79          80
 IAtWgt=          12          12          12          12          12          12          12          12          12          12
 AtmWgt=  12.0000000  12.0000000  12.0000000  12.0000000  12.0000000  12.0000000  12.0000000  12.0000000  12.0000000  12.0000000
 NucSpn=           0           0           0           0           0           0           0           0           0           0
 AtZEff=  -0.0000000  -0.0000000  -0.0000000  -0.0000000  -0.0000000  -0.0000000  -0.0000000  -0.0000000  -0.0000000  -0.0000000
 NQMom=    0.0000000   0.0000000   0.0000000   0.0000000   0.0000000   0.0000000   0.0000000   0.0000000   0.0000000   0.0000000
 NMagM=    0.0000000   0.0000000   0.0000000   0.0000000   0.0000000   0.0000000   0.0000000   0.0000000   0.0000000   0.0000000
 AtZNuc=   6.0000000   6.0000000   6.0000000   6.0000000   6.0000000   6.0000000   6.0000000   6.0000000   6.0000000   6.0000000

  Atom        81          82          83          84          85          86          87          88          89          90
 IAtWgt=          12          12          12          12          35          35          35          35          35          35
 AtmWgt=  12.0000000  12.0000000  12.0000000  12.0000000  34.9688527  34.9688527  34.9688527  34.9688527  34.9688527  34.9688527
 NucSpn=           0           0           0           0           3           3           3           3           3           3
 AtZEff=  -0.0000000  -0.0000000  -0.0000000  -0.0000000  -0.0000000  -0.0000000  -0.0000000  -0.0000000  -0.0000000  -0.0000000
 NQMom=    0.0000000   0.0000000   0.0000000   0.0000000  -8.1650000  -8.1650000  -8.1650000  -8.1650000  -8.1650000  -8.1650000
 NMagM=    0.0000000   0.0000000   0.0000000   0.0000000   0.8218740   0.8218740   0.8218740   0.8218740   0.8218740   0.8218740
 AtZNuc=   6.0000000   6.0000000   6.0000000   6.0000000  17.0000000  17.0000000  17.0000000  17.0000000  17.0000000  17.0000000

  Atom        91          92          93          94
 IAtWgt=          35          35          35          35
 AtmWgt=  34.9688527  34.9688527  34.9688527  34.9688527
 NucSpn=           3           3           3           3
 AtZEff=  -0.0000000  -0.0000000  -0.0000000  -0.0000000
 NQMom=   -8.1650000  -8.1650000  -8.1650000  -8.1650000
 NMagM=    0.8218740   0.8218740   0.8218740   0.8218740
 AtZNuc=  17.0000000  17.0000000  17.0000000  17.0000000
 Leave Link  101 at Mon Jun 27 01:58:26 2022, MaxMem=  1342177280 cpu:               6.6 elap:               0.3
 (Enter /home/mkliu/g16/l103.exe)

 GradGradGradGradGradGradGradGradGradGradGradGradGradGradGradGradGradGrad
 Berny optimization.
 Initialization pass.
                           ----------------------------
                           !    Initial Parameters    !
                           ! (Angstroms and Degrees)  !
 --------------------------                            --------------------------
 ! Name  Definition              Value          Derivative Info.                !
 --------------------------------------------------------------------------------
 ! R1    R(1,5)                  1.4097         estimate D2E/DX2                !
 ! R2    R(1,17)                 1.4362         estimate D2E/DX2                !
 ! R3    R(1,23)                 1.4308         estimate D2E/DX2                !
 ! R4    R(2,6)                  1.4966         estimate D2E/DX2                !
 ! R5    R(2,43)                 1.518          estimate D2E/DX2                !
 ! R6    R(2,44)                 1.5079         estimate D2E/DX2                !
 ! R7    R(2,93)                 1.8124         estimate D2E/DX2                !
 ! R8    R(3,7)                  1.5142         estimate D2E/DX2                !
 ! R9    R(3,18)                 1.3849         estimate D2E/DX2                !
 ! R10   R(3,26)                 1.4126         estimate D2E/DX2                !
 ! R11   R(4,8)                  1.5009         estimate D2E/DX2                !
 ! R12   R(4,45)                 1.5039         estimate D2E/DX2                !
 ! R13   R(4,46)                 1.5086         estimate D2E/DX2                !
 ! R14   R(4,85)                 1.802          estimate D2E/DX2                !
 ! R15   R(5,9)                  1.4474         estimate D2E/DX2                !
 ! R16   R(5,29)                 1.4447         estimate D2E/DX2                !
 ! R17   R(6,10)                 1.3615         estimate D2E/DX2                !
 ! R18   R(6,15)                 1.4292         estimate D2E/DX2                !
 ! R19   R(7,12)                 1.5079         estimate D2E/DX2                !
 ! R20   R(7,30)                 1.5038         estimate D2E/DX2                !
 ! R21   R(7,91)                 1.7998         estimate D2E/DX2                !
 ! R22   R(8,11)                 1.3247         estimate D2E/DX2                !
 ! R23   R(8,16)                 1.5037         estimate D2E/DX2                !
 ! R24   R(9,13)                 1.4206         estimate D2E/DX2                !
 ! R25   R(9,35)                 1.4325         estimate D2E/DX2                !
 ! R26   R(10,49)                1.5074         estimate D2E/DX2                !
 ! R27   R(10,53)                1.4307         estimate D2E/DX2                !
 ! R28   R(11,50)                1.5065         estimate D2E/DX2                !
 ! R29   R(11,54)                1.502          estimate D2E/DX2                !
 ! R30   R(12,14)                1.3837         estimate D2E/DX2                !
 ! R31   R(12,36)                1.4053         estimate D2E/DX2                !
 ! R32   R(13,15)                1.4353         estimate D2E/DX2                !
 ! R33   R(13,43)                1.3967         estimate D2E/DX2                !
 ! R34   R(14,16)                1.5072         estimate D2E/DX2                !
 ! R35   R(14,46)                1.3871         estimate D2E/DX2                !
 ! R36   R(15,17)                1.376          estimate D2E/DX2                !
 ! R37   R(16,18)                1.5012         estimate D2E/DX2                !
 ! R38   R(16,92)                1.8066         estimate D2E/DX2                !
 ! R39   R(17,19)                1.4275         estimate D2E/DX2                !
 ! R40   R(18,20)                1.4147         estimate D2E/DX2                !
 ! R41   R(19,21)                1.4363         estimate D2E/DX2                !
 ! R42   R(19,53)                1.3784         estimate D2E/DX2                !
 ! R43   R(20,22)                1.3878         estimate D2E/DX2                !
 ! R44   R(20,54)                1.4991         estimate D2E/DX2                !
 ! R45   R(21,23)                1.4343         estimate D2E/DX2                !
 ! R46   R(21,57)                1.4077         estimate D2E/DX2                !
 ! R47   R(22,24)                1.4192         estimate D2E/DX2                !
 ! R48   R(22,58)                1.4455         estimate D2E/DX2                !
 ! R49   R(23,25)                1.3804         estimate D2E/DX2                !
 ! R50   R(24,26)                1.3791         estimate D2E/DX2                !
 ! R51   R(24,62)                1.4235         estimate D2E/DX2                !
 ! R52   R(25,27)                1.4191         estimate D2E/DX2                !
 ! R53   R(25,61)                1.4244         estimate D2E/DX2                !
 ! R54   R(26,28)                1.4324         estimate D2E/DX2                !
 ! R55   R(27,29)                1.4062         estimate D2E/DX2                !
 ! R56   R(27,65)                1.4386         estimate D2E/DX2                !
 ! R57   R(28,30)                1.4152         estimate D2E/DX2                !
 ! R58   R(28,66)                1.41           estimate D2E/DX2                !
 ! R59   R(29,31)                1.4067         estimate D2E/DX2                !
 ! R60   R(30,32)                1.3566         estimate D2E/DX2                !
 ! R61   R(31,33)                1.4151         estimate D2E/DX2                !
 ! R62   R(31,69)                1.4407         estimate D2E/DX2                !
 ! R63   R(32,34)                1.5069         estimate D2E/DX2                !
 ! R64   R(32,70)                1.4183         estimate D2E/DX2                !
 ! R65   R(33,35)                1.4171         estimate D2E/DX2                !
 ! R66   R(33,73)                1.4342         estimate D2E/DX2                !
 ! R67   R(34,36)                1.5216         estimate D2E/DX2                !
 ! R68   R(34,74)                1.5021         estimate D2E/DX2                !
 ! R69   R(34,88)                1.8            estimate D2E/DX2                !
 ! R70   R(35,37)                1.4409         estimate D2E/DX2                !
 ! R71   R(36,38)                1.4039         estimate D2E/DX2                !
 ! R72   R(37,39)                1.4332         estimate D2E/DX2                !
 ! R73   R(37,77)                1.4192         estimate D2E/DX2                !
 ! R74   R(38,42)                1.4036         estimate D2E/DX2                !
 ! R75   R(38,78)                1.5227         estimate D2E/DX2                !
 ! R76   R(39,43)                1.3987         estimate D2E/DX2                !
 ! R77   R(39,79)                1.4136         estimate D2E/DX2                !
 ! R78   R(40,41)                1.3976         estimate D2E/DX2                !
 ! R79   R(40,44)                1.3886         estimate D2E/DX2                !
 ! R80   R(40,79)                1.4486         estimate D2E/DX2                !
 ! R81   R(41,45)                1.3801         estimate D2E/DX2                !
 ! R82   R(41,80)                1.5126         estimate D2E/DX2                !
 ! R83   R(42,46)                1.3834         estimate D2E/DX2                !
 ! R84   R(42,80)                1.5042         estimate D2E/DX2                !
 ! R85   R(44,47)                1.4007         estimate D2E/DX2                !
 ! R86   R(45,48)                1.4042         estimate D2E/DX2                !
 ! R87   R(47,48)                1.4079         estimate D2E/DX2                !
 ! R88   R(47,49)                1.5194         estimate D2E/DX2                !
 ! R89   R(48,50)                1.5145         estimate D2E/DX2                !
 ! R90   R(49,51)                1.5035         estimate D2E/DX2                !
 ! R91   R(49,90)                1.8032         estimate D2E/DX2                !
 ! R92   R(50,52)                1.4944         estimate D2E/DX2                !
 ! R93   R(50,89)                1.8051         estimate D2E/DX2                !
 ! R94   R(51,52)                1.3675         estimate D2E/DX2                !
 ! R95   R(51,55)                1.4095         estimate D2E/DX2                !
 ! R96   R(52,56)                1.3952         estimate D2E/DX2                !
 ! R97   R(53,55)                1.4299         estimate D2E/DX2                !
 ! R98   R(54,56)                1.5076         estimate D2E/DX2                !
 ! R99   R(54,94)                1.8214         estimate D2E/DX2                !
 ! R100  R(55,83)                1.4127         estimate D2E/DX2                !
 ! R101  R(56,84)                1.403          estimate D2E/DX2                !
 ! R102  R(57,59)                1.4482         estimate D2E/DX2                !
 ! R103  R(57,83)                1.4484         estimate D2E/DX2                !
 ! R104  R(58,60)                1.4044         estimate D2E/DX2                !
 ! R105  R(58,84)                1.4174         estimate D2E/DX2                !
 ! R106  R(59,60)                1.4176         estimate D2E/DX2                !
 ! R107  R(59,61)                1.4023         estimate D2E/DX2                !
 ! R108  R(60,62)                1.4401         estimate D2E/DX2                !
 ! R109  R(61,63)                1.4415         estimate D2E/DX2                !
 ! R110  R(62,64)                1.4035         estimate D2E/DX2                !
 ! R111  R(63,64)                1.412          estimate D2E/DX2                !
 ! R112  R(63,65)                1.4107         estimate D2E/DX2                !
 ! R113  R(64,66)                1.4503         estimate D2E/DX2                !
 ! R114  R(65,67)                1.4132         estimate D2E/DX2                !
 ! R115  R(66,68)                1.4371         estimate D2E/DX2                !
 ! R116  R(67,68)                1.4472         estimate D2E/DX2                !
 ! R117  R(67,69)                1.405          estimate D2E/DX2                !
 ! R118  R(68,70)                1.4136         estimate D2E/DX2                !
 ! R119  R(69,71)                1.4261         estimate D2E/DX2                !
 ! R120  R(70,72)                1.4306         estimate D2E/DX2                !
 ! R121  R(71,72)                1.3851         estimate D2E/DX2                !
 ! R122  R(71,73)                1.4251         estimate D2E/DX2                !
 ! R123  R(72,74)                1.4279         estimate D2E/DX2                !
 ! R124  R(73,75)                1.3789         estimate D2E/DX2                !
 ! R125  R(74,76)                1.3631         estimate D2E/DX2                !
 ! R126  R(75,76)                1.4257         estimate D2E/DX2                !
 ! R127  R(75,77)                1.4306         estimate D2E/DX2                !
 ! R128  R(76,78)                1.5029         estimate D2E/DX2                !
 ! R129  R(77,81)                1.4092         estimate D2E/DX2                !
 ! R130  R(78,81)                1.5093         estimate D2E/DX2                !
 ! R131  R(78,87)                1.801          estimate D2E/DX2                !
 ! R132  R(79,82)                1.396          estimate D2E/DX2                !
 ! R133  R(80,82)                1.4999         estimate D2E/DX2                !
 ! R134  R(80,86)                1.7979         estimate D2E/DX2                !
 ! R135  R(81,82)                1.372          estimate D2E/DX2                !
 ! R136  R(83,84)                1.435          estimate D2E/DX2                !
 ! A1    A(5,1,17)             122.0578         estimate D2E/DX2                !
 ! A2    A(5,1,23)             121.3757         estimate D2E/DX2                !
 ! A3    A(17,1,23)            106.3753         estimate D2E/DX2                !
 ! A4    A(6,2,43)             101.7301         estimate D2E/DX2                !
 ! A5    A(6,2,44)             110.6621         estimate D2E/DX2                !
 ! A6    A(6,2,93)             113.0949         estimate D2E/DX2                !
 ! A7    A(43,2,44)            110.2264         estimate D2E/DX2                !
 ! A8    A(43,2,93)            111.827          estimate D2E/DX2                !
 ! A9    A(44,2,93)            109.138          estimate D2E/DX2                !
 ! A10   A(7,3,18)             125.5614         estimate D2E/DX2                !
 ! A11   A(7,3,26)             108.5972         estimate D2E/DX2                !
 ! A12   A(18,3,26)            120.2258         estimate D2E/DX2                !
 ! A13   A(8,4,45)             112.1538         estimate D2E/DX2                !
 ! A14   A(8,4,46)             100.311          estimate D2E/DX2                !
 ! A15   A(8,4,85)             112.6698         estimate D2E/DX2                !
 ! A16   A(45,4,46)            108.573          estimate D2E/DX2                !
 ! A17   A(45,4,85)            110.6433         estimate D2E/DX2                !
 ! A18   A(46,4,85)            112.0461         estimate D2E/DX2                !
 ! A19   A(1,5,9)              118.6408         estimate D2E/DX2                !
 ! A20   A(1,5,29)             116.8572         estimate D2E/DX2                !
 ! A21   A(9,5,29)             119.022          estimate D2E/DX2                !
 ! A22   A(2,6,10)             122.3808         estimate D2E/DX2                !
 ! A23   A(2,6,15)             109.2531         estimate D2E/DX2                !
 ! A24   A(10,6,15)            119.7129         estimate D2E/DX2                !
 ! A25   A(3,7,12)             109.658          estimate D2E/DX2                !
 ! A26   A(3,7,30)             101.6118         estimate D2E/DX2                !
 ! A27   A(3,7,91)             112.6224         estimate D2E/DX2                !
 ! A28   A(12,7,30)            108.6817         estimate D2E/DX2                !
 ! A29   A(12,7,91)            110.0711         estimate D2E/DX2                !
 ! A30   A(30,7,91)            113.8454         estimate D2E/DX2                !
 ! A31   A(4,8,11)             121.7191         estimate D2E/DX2                !
 ! A32   A(4,8,16)             111.1117         estimate D2E/DX2                !
 ! A33   A(11,8,16)            123.6811         estimate D2E/DX2                !
 ! A34   A(5,9,13)             117.8965         estimate D2E/DX2                !
 ! A35   A(5,9,35)             120.9971         estimate D2E/DX2                !
 ! A36   A(13,9,35)            116.8319         estimate D2E/DX2                !
 ! A37   A(6,10,49)            123.5286         estimate D2E/DX2                !
 ! A38   A(6,10,53)            118.9147         estimate D2E/DX2                !
 ! A39   A(49,10,53)           109.5893         estimate D2E/DX2                !
 ! A40   A(8,11,50)            123.1142         estimate D2E/DX2                !
 ! A41   A(8,11,54)            122.6943         estimate D2E/DX2                !
 ! A42   A(50,11,54)           111.4972         estimate D2E/DX2                !
 ! A43   A(7,12,14)            116.3429         estimate D2E/DX2                !
 ! A44   A(7,12,36)            123.3667         estimate D2E/DX2                !
 ! A45   A(14,12,36)           119.223          estimate D2E/DX2                !
 ! A46   A(9,13,15)            122.4965         estimate D2E/DX2                !
 ! A47   A(9,13,43)            122.5224         estimate D2E/DX2                !
 ! A48   A(15,13,43)           108.061          estimate D2E/DX2                !
 ! A49   A(12,14,16)           125.9969         estimate D2E/DX2                !
 ! A50   A(12,14,46)           120.7479         estimate D2E/DX2                !
 ! A51   A(16,14,46)           111.141          estimate D2E/DX2                !
 ! A52   A(6,15,13)            109.0784         estimate D2E/DX2                !
 ! A53   A(6,15,17)            121.4589         estimate D2E/DX2                !
 ! A54   A(13,15,17)           119.0243         estimate D2E/DX2                !
 ! A55   A(8,16,14)            100.27           estimate D2E/DX2                !
 ! A56   A(8,16,18)            112.8384         estimate D2E/DX2                !
 ! A57   A(8,16,92)            111.6565         estimate D2E/DX2                !
 ! A58   A(14,16,18)           109.3143         estimate D2E/DX2                !
 ! A59   A(14,16,92)           111.366          estimate D2E/DX2                !
 ! A60   A(18,16,92)           110.9469         estimate D2E/DX2                !
 ! A61   A(1,17,15)            119.8663         estimate D2E/DX2                !
 ! A62   A(1,17,19)            108.6398         estimate D2E/DX2                !
 ! A63   A(15,17,19)           118.8901         estimate D2E/DX2                !
 ! A64   A(3,18,16)            116.5841         estimate D2E/DX2                !
 ! A65   A(3,18,20)            119.9933         estimate D2E/DX2                !
 ! A66   A(16,18,20)           120.5441         estimate D2E/DX2                !
 ! A67   A(17,19,21)           108.2635         estimate D2E/DX2                !
 ! A68   A(17,19,53)           119.0539         estimate D2E/DX2                !
 ! A69   A(21,19,53)           120.0469         estimate D2E/DX2                !
 ! A70   A(18,20,22)           119.5394         estimate D2E/DX2                !
 ! A71   A(18,20,54)           121.8534         estimate D2E/DX2                !
 ! A72   A(22,20,54)           116.2456         estimate D2E/DX2                !
 ! A73   A(19,21,23)           106.4586         estimate D2E/DX2                !
 ! A74   A(19,21,57)           121.8946         estimate D2E/DX2                !
 ! A75   A(23,21,57)           121.1489         estimate D2E/DX2                !
 ! A76   A(20,22,24)           120.3109         estimate D2E/DX2                !
 ! A77   A(20,22,58)           123.5412         estimate D2E/DX2                !
 ! A78   A(24,22,58)           106.5841         estimate D2E/DX2                !
 ! A79   A(1,23,21)            109.2886         estimate D2E/DX2                !
 ! A80   A(1,23,25)            119.8782         estimate D2E/DX2                !
 ! A81   A(21,23,25)           119.8838         estimate D2E/DX2                !
 ! A82   A(22,24,26)           119.7684         estimate D2E/DX2                !
 ! A83   A(22,24,62)           109.7114         estimate D2E/DX2                !
 ! A84   A(26,24,62)           120.058          estimate D2E/DX2                !
 ! A85   A(23,25,27)           119.8441         estimate D2E/DX2                !
 ! A86   A(23,25,61)           119.9951         estimate D2E/DX2                !
 ! A87   A(27,25,61)           109.4151         estimate D2E/DX2                !
 ! A88   A(3,26,24)            120.0635         estimate D2E/DX2                !
 ! A89   A(3,26,28)            110.2598         estimate D2E/DX2                !
 ! A90   A(24,26,28)           120.0089         estimate D2E/DX2                !
 ! A91   A(25,27,29)           120.5062         estimate D2E/DX2                !
 ! A92   A(25,27,65)           106.9378         estimate D2E/DX2                !
 ! A93   A(29,27,65)           121.3001         estimate D2E/DX2                !
 ! A94   A(26,28,30)           106.8118         estimate D2E/DX2                !
 ! A95   A(26,28,66)           121.3874         estimate D2E/DX2                !
 ! A96   A(30,28,66)           123.1334         estimate D2E/DX2                !
 ! A97   A(5,29,27)            120.3677         estimate D2E/DX2                !
 ! A98   A(5,29,31)            118.5922         estimate D2E/DX2                !
 ! A99   A(27,29,31)           115.4835         estimate D2E/DX2                !
 ! A100  A(7,30,28)            111.3564         estimate D2E/DX2                !
 ! A101  A(7,30,32)            122.1104         estimate D2E/DX2                !
 ! A102  A(28,30,32)           119.3919         estimate D2E/DX2                !
 ! A103  A(29,31,33)           121.3379         estimate D2E/DX2                !
 ! A104  A(29,31,69)           122.0305         estimate D2E/DX2                !
 ! A105  A(33,31,69)           108.6978         estimate D2E/DX2                !
 ! A106  A(30,32,34)           122.5646         estimate D2E/DX2                !
 ! A107  A(30,32,70)           119.2572         estimate D2E/DX2                !
 ! A108  A(34,32,70)           111.6611         estimate D2E/DX2                !
 ! A109  A(31,33,35)           121.2446         estimate D2E/DX2                !
 ! A110  A(31,33,73)           107.38           estimate D2E/DX2                !
 ! A111  A(35,33,73)           122.0509         estimate D2E/DX2                !
 ! A112  A(32,34,36)           108.6179         estimate D2E/DX2                !
 ! A113  A(32,34,74)           101.2669         estimate D2E/DX2                !
 ! A114  A(32,34,88)           113.7587         estimate D2E/DX2                !
 ! A115  A(36,34,74)           110.6391         estimate D2E/DX2                !
 ! A116  A(36,34,88)           108.787          estimate D2E/DX2                !
 ! A117  A(74,34,88)           113.5398         estimate D2E/DX2                !
 ! A118  A(9,35,33)            117.4139         estimate D2E/DX2                !
 ! A119  A(9,35,37)            120.4897         estimate D2E/DX2                !
 ! A120  A(33,35,37)           117.7155         estimate D2E/DX2                !
 ! A121  A(12,36,34)           118.6012         estimate D2E/DX2                !
 ! A122  A(12,36,38)           120.0151         estimate D2E/DX2                !
 ! A123  A(34,36,38)           120.8545         estimate D2E/DX2                !
 ! A124  A(35,37,39)           119.4355         estimate D2E/DX2                !
 ! A125  A(35,37,77)           119.2026         estimate D2E/DX2                !
 ! A126  A(39,37,77)           116.0816         estimate D2E/DX2                !
 ! A127  A(36,38,42)           119.7415         estimate D2E/DX2                !
 ! A128  A(36,38,78)           121.0634         estimate D2E/DX2                !
 ! A129  A(42,38,78)           118.7135         estimate D2E/DX2                !
 ! A130  A(37,39,43)           119.1757         estimate D2E/DX2                !
 ! A131  A(37,39,79)           119.0314         estimate D2E/DX2                !
 ! A132  A(43,39,79)           116.4873         estimate D2E/DX2                !
 ! A133  A(41,40,44)           121.6504         estimate D2E/DX2                !
 ! A134  A(41,40,79)           108.6955         estimate D2E/DX2                !
 ! A135  A(44,40,79)           123.6894         estimate D2E/DX2                !
 ! A136  A(40,41,45)           120.078          estimate D2E/DX2                !
 ! A137  A(40,41,80)           110.0792         estimate D2E/DX2                !
 ! A138  A(45,41,80)           125.7499         estimate D2E/DX2                !
 ! A139  A(38,42,46)           119.3984         estimate D2E/DX2                !
 ! A140  A(38,42,80)           123.5317         estimate D2E/DX2                !
 ! A141  A(46,42,80)           115.9697         estimate D2E/DX2                !
 ! A142  A(2,43,13)            110.9765         estimate D2E/DX2                !
 ! A143  A(2,43,39)            123.6428         estimate D2E/DX2                !
 ! A144  A(13,43,39)           120.5451         estimate D2E/DX2                !
 ! A145  A(2,44,40)            115.3833         estimate D2E/DX2                !
 ! A146  A(2,44,47)            124.6451         estimate D2E/DX2                !
 ! A147  A(40,44,47)           118.5799         estimate D2E/DX2                !
 ! A148  A(4,45,41)            115.9524         estimate D2E/DX2                !
 ! A149  A(4,45,48)            123.1083         estimate D2E/DX2                !
 ! A150  A(41,45,48)           119.1468         estimate D2E/DX2                !
 ! A151  A(4,46,14)            111.2627         estimate D2E/DX2                !
 ! A152  A(4,46,42)            125.7306         estimate D2E/DX2                !
 ! A153  A(14,46,42)           120.8161         estimate D2E/DX2                !
 ! A154  A(44,47,48)           119.8418         estimate D2E/DX2                !
 ! A155  A(44,47,49)           118.8592         estimate D2E/DX2                !
 ! A156  A(48,47,49)           120.5159         estimate D2E/DX2                !
 ! A157  A(45,48,47)           120.5584         estimate D2E/DX2                !
 ! A158  A(45,48,50)           117.8415         estimate D2E/DX2                !
 ! A159  A(47,48,50)           120.731          estimate D2E/DX2                !
 ! A160  A(10,49,47)           110.9857         estimate D2E/DX2                !
 ! A161  A(10,49,51)           101.1755         estimate D2E/DX2                !
 ! A162  A(10,49,90)           113.1269         estimate D2E/DX2                !
 ! A163  A(47,49,51)           109.0867         estimate D2E/DX2                !
 ! A164  A(47,49,90)           108.6881         estimate D2E/DX2                !
 ! A165  A(51,49,90)           113.5985         estimate D2E/DX2                !
 ! A166  A(11,50,48)           111.7899         estimate D2E/DX2                !
 ! A167  A(11,50,52)           100.6798         estimate D2E/DX2                !
 ! A168  A(11,50,89)           111.8319         estimate D2E/DX2                !
 ! A169  A(48,50,52)           109.4728         estimate D2E/DX2                !
 ! A170  A(48,50,89)           109.3249         estimate D2E/DX2                !
 ! A171  A(52,50,89)           113.5387         estimate D2E/DX2                !
 ! A172  A(49,51,52)           121.7315         estimate D2E/DX2                !
 ! A173  A(49,51,55)           111.9367         estimate D2E/DX2                !
 ! A174  A(52,51,55)           119.6738         estimate D2E/DX2                !
 ! A175  A(50,52,51)           122.1588         estimate D2E/DX2                !
 ! A176  A(50,52,56)           112.7813         estimate D2E/DX2                !
 ! A177  A(51,52,56)           120.0302         estimate D2E/DX2                !
 ! A178  A(10,53,19)           121.673          estimate D2E/DX2                !
 ! A179  A(10,53,55)           109.0701         estimate D2E/DX2                !
 ! A180  A(19,53,55)           118.9065         estimate D2E/DX2                !
 ! A181  A(11,54,20)           112.3387         estimate D2E/DX2                !
 ! A182  A(11,54,56)           101.1834         estimate D2E/DX2                !
 ! A183  A(11,54,94)           111.1404         estimate D2E/DX2                !
 ! A184  A(20,54,56)           113.0222         estimate D2E/DX2                !
 ! A185  A(20,54,94)           108.6581         estimate D2E/DX2                !
 ! A186  A(56,54,94)           110.3822         estimate D2E/DX2                !
 ! A187  A(51,55,53)           107.4713         estimate D2E/DX2                !
 ! A188  A(51,55,83)           122.3562         estimate D2E/DX2                !
 ! A189  A(53,55,83)           122.2792         estimate D2E/DX2                !
 ! A190  A(52,56,54)           109.5718         estimate D2E/DX2                !
 ! A191  A(52,56,84)           121.1221         estimate D2E/DX2                !
 ! A192  A(54,56,84)           124.9321         estimate D2E/DX2                !
 ! A193  A(21,57,59)           117.3399         estimate D2E/DX2                !
 ! A194  A(21,57,83)           118.1498         estimate D2E/DX2                !
 ! A195  A(59,57,83)           119.1819         estimate D2E/DX2                !
 ! A196  A(22,58,60)           108.336          estimate D2E/DX2                !
 ! A197  A(22,58,84)           120.6253         estimate D2E/DX2                !
 ! A198  A(60,58,84)           121.1865         estimate D2E/DX2                !
 ! A199  A(57,59,60)           118.7788         estimate D2E/DX2                !
 ! A200  A(57,59,61)           120.398          estimate D2E/DX2                !
 ! A201  A(60,59,61)           115.0743         estimate D2E/DX2                !
 ! A202  A(58,60,59)           121.487          estimate D2E/DX2                !
 ! A203  A(58,60,62)           108.8504         estimate D2E/DX2                !
 ! A204  A(59,60,62)           121.7213         estimate D2E/DX2                !
 ! A205  A(25,61,59)           120.3982         estimate D2E/DX2                !
 ! A206  A(25,61,63)           106.5802         estimate D2E/DX2                !
 ! A207  A(59,61,63)           122.2085         estimate D2E/DX2                !
 ! A208  A(24,62,60)           106.4141         estimate D2E/DX2                !
 ! A209  A(24,62,64)           120.4775         estimate D2E/DX2                !
 ! A210  A(60,62,64)           122.2739         estimate D2E/DX2                !
 ! A211  A(61,63,64)           121.9149         estimate D2E/DX2                !
 ! A212  A(61,63,65)           108.493          estimate D2E/DX2                !
 ! A213  A(64,63,65)           120.9344         estimate D2E/DX2                !
 ! A214  A(62,64,63)           115.0677         estimate D2E/DX2                !
 ! A215  A(62,64,66)           120.3766         estimate D2E/DX2                !
 ! A216  A(63,64,66)           118.705          estimate D2E/DX2                !
 ! A217  A(27,65,63)           108.3506         estimate D2E/DX2                !
 ! A218  A(27,65,67)           121.8967         estimate D2E/DX2                !
 ! A219  A(63,65,67)           121.8243         estimate D2E/DX2                !
 ! A220  A(28,66,64)           117.3138         estimate D2E/DX2                !
 ! A221  A(28,66,68)           117.3897         estimate D2E/DX2                !
 ! A222  A(64,66,68)           120.2069         estimate D2E/DX2                !
 ! A223  A(65,67,68)           118.6367         estimate D2E/DX2                !
 ! A224  A(65,67,69)           115.347          estimate D2E/DX2                !
 ! A225  A(68,67,69)           120.0696         estimate D2E/DX2                !
 ! A226  A(66,68,67)           119.6162         estimate D2E/DX2                !
 ! A227  A(66,68,70)           117.765          estimate D2E/DX2                !
 ! A228  A(67,68,70)           117.3426         estimate D2E/DX2                !
 ! A229  A(31,69,67)           121.1997         estimate D2E/DX2                !
 ! A230  A(31,69,71)           107.111          estimate D2E/DX2                !
 ! A231  A(67,69,71)           120.9395         estimate D2E/DX2                !
 ! A232  A(32,70,68)           122.719          estimate D2E/DX2                !
 ! A233  A(32,70,72)           107.3246         estimate D2E/DX2                !
 ! A234  A(68,70,72)           122.0218         estimate D2E/DX2                !
 ! A235  A(69,71,72)           119.9065         estimate D2E/DX2                !
 ! A236  A(69,71,73)           108.2013         estimate D2E/DX2                !
 ! A237  A(72,71,73)           119.2549         estimate D2E/DX2                !
 ! A238  A(70,72,71)           119.5806         estimate D2E/DX2                !
 ! A239  A(70,72,74)           109.1664         estimate D2E/DX2                !
 ! A240  A(71,72,74)           120.9071         estimate D2E/DX2                !
 ! A241  A(33,73,71)           108.2815         estimate D2E/DX2                !
 ! A242  A(33,73,75)           120.0797         estimate D2E/DX2                !
 ! A243  A(71,73,75)           119.0438         estimate D2E/DX2                !
 ! A244  A(34,74,72)           110.0693         estimate D2E/DX2                !
 ! A245  A(34,74,76)           122.1808         estimate D2E/DX2                !
 ! A246  A(72,74,76)           119.7424         estimate D2E/DX2                !
 ! A247  A(73,75,76)           121.4965         estimate D2E/DX2                !
 ! A248  A(73,75,77)           119.044          estimate D2E/DX2                !
 ! A249  A(76,75,77)           109.5364         estimate D2E/DX2                !
 ! A250  A(74,76,75)           119.4104         estimate D2E/DX2                !
 ! A251  A(74,76,78)           122.4733         estimate D2E/DX2                !
 ! A252  A(75,76,78)           109.5985         estimate D2E/DX2                !
 ! A253  A(37,77,75)           121.8495         estimate D2E/DX2                !
 ! A254  A(37,77,81)           123.0177         estimate D2E/DX2                !
 ! A255  A(75,77,81)           107.403          estimate D2E/DX2                !
 ! A256  A(38,78,76)           110.3846         estimate D2E/DX2                !
 ! A257  A(38,78,81)           109.2024         estimate D2E/DX2                !
 ! A258  A(38,78,87)           108.5703         estimate D2E/DX2                !
 ! A259  A(76,78,81)           101.4891         estimate D2E/DX2                !
 ! A260  A(76,78,87)           113.7682         estimate D2E/DX2                !
 ! A261  A(81,78,87)           113.2394         estimate D2E/DX2                !
 ! A262  A(39,79,40)           118.7949         estimate D2E/DX2                !
 ! A263  A(39,79,82)           122.4176         estimate D2E/DX2                !
 ! A264  A(40,79,82)           107.8011         estimate D2E/DX2                !
 ! A265  A(41,80,42)           108.7126         estimate D2E/DX2                !
 ! A266  A(41,80,82)           100.97           estimate D2E/DX2                !
 ! A267  A(41,80,86)           112.6957         estimate D2E/DX2                !
 ! A268  A(42,80,82)           109.8366         estimate D2E/DX2                !
 ! A269  A(42,80,86)           110.4448         estimate D2E/DX2                !
 ! A270  A(82,80,86)           113.7465         estimate D2E/DX2                !
 ! A271  A(77,81,78)           111.5861         estimate D2E/DX2                !
 ! A272  A(77,81,82)           119.4746         estimate D2E/DX2                !
 ! A273  A(78,81,82)           122.0871         estimate D2E/DX2                !
 ! A274  A(79,82,80)           111.2689         estimate D2E/DX2                !
 ! A275  A(79,82,81)           119.3265         estimate D2E/DX2                !
 ! A276  A(80,82,81)           122.0712         estimate D2E/DX2                !
 ! A277  A(55,83,57)           118.5962         estimate D2E/DX2                !
 ! A278  A(55,83,84)           116.2073         estimate D2E/DX2                !
 ! A279  A(57,83,84)           120.3287         estimate D2E/DX2                !
 ! A280  A(56,84,58)           116.0815         estimate D2E/DX2                !
 ! A281  A(56,84,83)           120.0738         estimate D2E/DX2                !
 ! A282  A(58,84,83)           118.7701         estimate D2E/DX2                !
 ! D1    D(17,1,5,9)             0.3538         estimate D2E/DX2                !
 ! D2    D(17,1,5,29)         -153.3063         estimate D2E/DX2                !
 ! D3    D(23,1,5,9)           140.8465         estimate D2E/DX2                !
 ! D4    D(23,1,5,29)          -12.8137         estimate D2E/DX2                !
 ! D5    D(5,1,17,15)           -1.2343         estimate D2E/DX2                !
 ! D6    D(5,1,17,19)          140.1787         estimate D2E/DX2                !
 ! D7    D(23,1,17,15)        -146.7546         estimate D2E/DX2                !
 ! D8    D(23,1,17,19)          -5.3416         estimate D2E/DX2                !
 ! D9    D(5,1,23,21)         -136.2943         estimate D2E/DX2                !
 ! D10   D(5,1,23,25)            7.7876         estimate D2E/DX2                !
 ! D11   D(17,1,23,21)           9.514          estimate D2E/DX2                !
 ! D12   D(17,1,23,25)         153.5958         estimate D2E/DX2                !
 ! D13   D(43,2,6,10)         -138.1294         estimate D2E/DX2                !
 ! D14   D(43,2,6,15)            9.3479         estimate D2E/DX2                !
 ! D15   D(44,2,6,10)          -21.0206         estimate D2E/DX2                !
 ! D16   D(44,2,6,15)          126.4567         estimate D2E/DX2                !
 ! D17   D(93,2,6,10)          101.7804         estimate D2E/DX2                !
 ! D18   D(93,2,6,15)         -110.7424         estimate D2E/DX2                !
 ! D19   D(6,2,43,13)           -6.5865         estimate D2E/DX2                !
 ! D20   D(6,2,43,39)          148.7717         estimate D2E/DX2                !
 ! D21   D(44,2,43,13)        -124.0104         estimate D2E/DX2                !
 ! D22   D(44,2,43,39)          31.3478         estimate D2E/DX2                !
 ! D23   D(93,2,43,13)         114.3924         estimate D2E/DX2                !
 ! D24   D(93,2,43,39)         -90.2494         estimate D2E/DX2                !
 ! D25   D(6,2,44,40)         -147.9367         estimate D2E/DX2                !
 ! D26   D(6,2,44,47)           18.3499         estimate D2E/DX2                !
 ! D27   D(43,2,44,40)         -36.19           estimate D2E/DX2                !
 ! D28   D(43,2,44,47)         130.0966         estimate D2E/DX2                !
 ! D29   D(93,2,44,40)          86.9908         estimate D2E/DX2                !
 ! D30   D(93,2,44,47)        -106.7226         estimate D2E/DX2                !
 ! D31   D(18,3,7,12)           27.7599         estimate D2E/DX2                !
 ! D32   D(18,3,7,30)          142.6352         estimate D2E/DX2                !
 ! D33   D(18,3,7,91)          -95.1735         estimate D2E/DX2                !
 ! D34   D(26,3,7,12)         -125.5531         estimate D2E/DX2                !
 ! D35   D(26,3,7,30)          -10.6777         estimate D2E/DX2                !
 ! D36   D(26,3,7,91)          111.5136         estimate D2E/DX2                !
 ! D37   D(7,3,18,16)            6.659          estimate D2E/DX2                !
 ! D38   D(7,3,18,20)         -154.2476         estimate D2E/DX2                !
 ! D39   D(26,3,18,16)         157.1447         estimate D2E/DX2                !
 ! D40   D(26,3,18,20)          -3.7619         estimate D2E/DX2                !
 ! D41   D(7,3,26,24)          158.2516         estimate D2E/DX2                !
 ! D42   D(7,3,26,28)           12.1898         estimate D2E/DX2                !
 ! D43   D(18,3,26,24)           3.2655         estimate D2E/DX2                !
 ! D44   D(18,3,26,28)        -142.7962         estimate D2E/DX2                !
 ! D45   D(45,4,8,11)           20.9372         estimate D2E/DX2                !
 ! D46   D(45,4,8,16)         -138.6978         estimate D2E/DX2                !
 ! D47   D(46,4,8,11)          136.0005         estimate D2E/DX2                !
 ! D48   D(46,4,8,16)          -23.6345         estimate D2E/DX2                !
 ! D49   D(85,4,8,11)         -104.6953         estimate D2E/DX2                !
 ! D50   D(85,4,8,16)           95.6697         estimate D2E/DX2                !
 ! D51   D(8,4,45,41)          145.6096         estimate D2E/DX2                !
 ! D52   D(8,4,45,48)          -18.9796         estimate D2E/DX2                !
 ! D53   D(46,4,45,41)          35.691          estimate D2E/DX2                !
 ! D54   D(46,4,45,48)        -128.8981         estimate D2E/DX2                !
 ! D55   D(85,4,45,41)         -87.6577         estimate D2E/DX2                !
 ! D56   D(85,4,45,48)         107.7531         estimate D2E/DX2                !
 ! D57   D(8,4,46,14)           13.6338         estimate D2E/DX2                !
 ! D58   D(8,4,46,42)         -149.5229         estimate D2E/DX2                !
 ! D59   D(45,4,46,14)         131.3747         estimate D2E/DX2                !
 ! D60   D(45,4,46,42)         -31.7821         estimate D2E/DX2                !
 ! D61   D(85,4,46,14)        -106.1232         estimate D2E/DX2                !
 ! D62   D(85,4,46,42)          90.7201         estimate D2E/DX2                !
 ! D63   D(1,5,9,13)             0.0678         estimate D2E/DX2                !
 ! D64   D(1,5,9,35)          -155.977          estimate D2E/DX2                !
 ! D65   D(29,5,9,13)          153.1522         estimate D2E/DX2                !
 ! D66   D(29,5,9,35)           -2.8925         estimate D2E/DX2                !
 ! D67   D(1,5,29,27)            9.0486         estimate D2E/DX2                !
 ! D68   D(1,5,29,31)          161.5832         estimate D2E/DX2                !
 ! D69   D(9,5,29,27)         -144.5074         estimate D2E/DX2                !
 ! D70   D(9,5,29,31)            8.0272         estimate D2E/DX2                !
 ! D71   D(2,6,10,49)           -0.7432         estimate D2E/DX2                !
 ! D72   D(2,6,10,53)          144.8933         estimate D2E/DX2                !
 ! D73   D(15,6,10,49)        -144.9824         estimate D2E/DX2                !
 ! D74   D(15,6,10,53)           0.654          estimate D2E/DX2                !
 ! D75   D(2,6,15,13)           -9.1668         estimate D2E/DX2                !
 ! D76   D(2,6,15,17)         -153.6005         estimate D2E/DX2                !
 ! D77   D(10,6,15,13)         139.315          estimate D2E/DX2                !
 ! D78   D(10,6,15,17)          -5.1187         estimate D2E/DX2                !
 ! D79   D(3,7,12,14)          -31.8477         estimate D2E/DX2                !
 ! D80   D(3,7,12,36)          136.2196         estimate D2E/DX2                !
 ! D81   D(30,7,12,14)        -142.1156         estimate D2E/DX2                !
 ! D82   D(30,7,12,36)          25.9517         estimate D2E/DX2                !
 ! D83   D(91,7,12,14)          92.582          estimate D2E/DX2                !
 ! D84   D(91,7,12,36)         -99.3507         estimate D2E/DX2                !
 ! D85   D(3,7,30,28)            5.8331         estimate D2E/DX2                !
 ! D86   D(3,7,30,32)         -144.3389         estimate D2E/DX2                !
 ! D87   D(12,7,30,28)         121.4285         estimate D2E/DX2                !
 ! D88   D(12,7,30,32)         -28.7434         estimate D2E/DX2                !
 ! D89   D(91,7,30,28)        -115.5103         estimate D2E/DX2                !
 ! D90   D(91,7,30,32)          94.3178         estimate D2E/DX2                !
 ! D91   D(4,8,11,50)            3.1547         estimate D2E/DX2                !
 ! D92   D(4,8,11,54)         -156.6506         estimate D2E/DX2                !
 ! D93   D(16,8,11,50)         160.1921         estimate D2E/DX2                !
 ! D94   D(16,8,11,54)           0.3868         estimate D2E/DX2                !
 ! D95   D(4,8,16,14)           24.0508         estimate D2E/DX2                !
 ! D96   D(4,8,16,18)          140.2209         estimate D2E/DX2                !
 ! D97   D(4,8,16,92)          -94.0044         estimate D2E/DX2                !
 ! D98   D(11,8,16,14)        -135.1106         estimate D2E/DX2                !
 ! D99   D(11,8,16,18)         -18.9406         estimate D2E/DX2                !
 ! D100  D(11,8,16,92)         106.8342         estimate D2E/DX2                !
 ! D101  D(5,9,13,15)            0.3659         estimate D2E/DX2                !
 ! D102  D(5,9,13,43)         -146.9969         estimate D2E/DX2                !
 ! D103  D(35,9,13,15)         157.4093         estimate D2E/DX2                !
 ! D104  D(35,9,13,43)          10.0465         estimate D2E/DX2                !
 ! D105  D(5,9,35,33)           -7.5315         estimate D2E/DX2                !
 ! D106  D(5,9,35,37)          148.4447         estimate D2E/DX2                !
 ! D107  D(13,9,35,33)        -163.8196         estimate D2E/DX2                !
 ! D108  D(13,9,35,37)          -7.8435         estimate D2E/DX2                !
 ! D109  D(6,10,49,47)          25.2258         estimate D2E/DX2                !
 ! D110  D(6,10,49,51)         140.8698         estimate D2E/DX2                !
 ! D111  D(6,10,49,90)         -97.2532         estimate D2E/DX2                !
 ! D112  D(53,10,49,47)       -123.1441         estimate D2E/DX2                !
 ! D113  D(53,10,49,51)         -7.5001         estimate D2E/DX2                !
 ! D114  D(53,10,49,90)        114.3769         estimate D2E/DX2                !
 ! D115  D(6,10,53,19)           3.7135         estimate D2E/DX2                !
 ! D116  D(6,10,53,55)        -140.7987         estimate D2E/DX2                !
 ! D117  D(49,10,53,19)        153.7511         estimate D2E/DX2                !
 ! D118  D(49,10,53,55)          9.2389         estimate D2E/DX2                !
 ! D119  D(8,11,50,48)         -28.8071         estimate D2E/DX2                !
 ! D120  D(8,11,50,52)        -144.9576         estimate D2E/DX2                !
 ! D121  D(8,11,50,89)          94.1545         estimate D2E/DX2                !
 ! D122  D(54,11,50,48)        132.9987         estimate D2E/DX2                !
 ! D123  D(54,11,50,52)         16.8482         estimate D2E/DX2                !
 ! D124  D(54,11,50,89)       -104.0397         estimate D2E/DX2                !
 ! D125  D(8,11,54,20)          19.8174         estimate D2E/DX2                !
 ! D126  D(8,11,54,56)         140.6308         estimate D2E/DX2                !
 ! D127  D(8,11,54,94)        -102.1698         estimate D2E/DX2                !
 ! D128  D(50,11,54,20)       -142.0775         estimate D2E/DX2                !
 ! D129  D(50,11,54,56)        -21.2641         estimate D2E/DX2                !
 ! D130  D(50,11,54,94)         95.9353         estimate D2E/DX2                !
 ! D131  D(7,12,14,16)           4.4066         estimate D2E/DX2                !
 ! D132  D(7,12,14,46)         166.3714         estimate D2E/DX2                !
 ! D133  D(36,12,14,16)       -164.1813         estimate D2E/DX2                !
 ! D134  D(36,12,14,46)         -2.2165         estimate D2E/DX2                !
 ! D135  D(7,12,36,34)           5.8755         estimate D2E/DX2                !
 ! D136  D(7,12,36,38)        -165.8534         estimate D2E/DX2                !
 ! D137  D(14,12,36,34)        173.6175         estimate D2E/DX2                !
 ! D138  D(14,12,36,38)          1.8886         estimate D2E/DX2                !
 ! D139  D(9,13,15,6)         -146.6643         estimate D2E/DX2                !
 ! D140  D(9,13,15,17)          -1.2341         estimate D2E/DX2                !
 ! D141  D(43,13,15,6)           4.7606         estimate D2E/DX2                !
 ! D142  D(43,13,15,17)        150.1908         estimate D2E/DX2                !
 ! D143  D(9,13,43,2)          152.8578         estimate D2E/DX2                !
 ! D144  D(9,13,43,39)          -3.3739         estimate D2E/DX2                !
 ! D145  D(15,13,43,2)           1.4419         estimate D2E/DX2                !
 ! D146  D(15,13,43,39)       -154.7898         estimate D2E/DX2                !
 ! D147  D(12,14,16,8)         148.6677         estimate D2E/DX2                !
 ! D148  D(12,14,16,18)         29.8856         estimate D2E/DX2                !
 ! D149  D(12,14,16,92)        -93.0633         estimate D2E/DX2                !
 ! D150  D(46,14,16,8)         -14.7567         estimate D2E/DX2                !
 ! D151  D(46,14,16,18)       -133.5388         estimate D2E/DX2                !
 ! D152  D(46,14,16,92)        103.5123         estimate D2E/DX2                !
 ! D153  D(12,14,46,4)        -163.6628         estimate D2E/DX2                !
 ! D154  D(12,14,46,42)          0.4418         estimate D2E/DX2                !
 ! D155  D(16,14,46,4)           0.7588         estimate D2E/DX2                !
 ! D156  D(16,14,46,42)        164.8634         estimate D2E/DX2                !
 ! D157  D(6,15,17,1)          142.672          estimate D2E/DX2                !
 ! D158  D(6,15,17,19)           5.1255         estimate D2E/DX2                !
 ! D159  D(13,15,17,1)           1.6223         estimate D2E/DX2                !
 ! D160  D(13,15,17,19)       -135.9243         estimate D2E/DX2                !
 ! D161  D(8,16,18,3)         -144.4241         estimate D2E/DX2                !
 ! D162  D(8,16,18,20)          16.3709         estimate D2E/DX2                !
 ! D163  D(14,16,18,3)         -33.7781         estimate D2E/DX2                !
 ! D164  D(14,16,18,20)        127.0169         estimate D2E/DX2                !
 ! D165  D(92,16,18,3)          89.4198         estimate D2E/DX2                !
 ! D166  D(92,16,18,20)       -109.7852         estimate D2E/DX2                !
 ! D167  D(1,17,19,21)          -0.7409         estimate D2E/DX2                !
 ! D168  D(1,17,19,53)        -142.6011         estimate D2E/DX2                !
 ! D169  D(15,17,19,21)        141.1072         estimate D2E/DX2                !
 ! D170  D(15,17,19,53)         -0.753          estimate D2E/DX2                !
 ! D171  D(3,18,20,22)           1.9523         estimate D2E/DX2                !
 ! D172  D(3,18,20,54)         163.8489         estimate D2E/DX2                !
 ! D173  D(16,18,20,22)       -158.1917         estimate D2E/DX2                !
 ! D174  D(16,18,20,54)          3.705          estimate D2E/DX2                !
 ! D175  D(17,19,21,23)          6.5109         estimate D2E/DX2                !
 ! D176  D(17,19,21,57)       -138.4866         estimate D2E/DX2                !
 ! D177  D(53,19,21,23)        147.9255         estimate D2E/DX2                !
 ! D178  D(53,19,21,57)          2.928          estimate D2E/DX2                !
 ! D179  D(17,19,53,10)         -3.6708         estimate D2E/DX2                !
 ! D180  D(17,19,53,55)        137.5178         estimate D2E/DX2                !
 ! D181  D(21,19,53,10)       -141.0207         estimate D2E/DX2                !
 ! D182  D(21,19,53,55)          0.1679         estimate D2E/DX2                !
 ! D183  D(18,20,22,24)          0.3661         estimate D2E/DX2                !
 ! D184  D(18,20,22,58)        142.0144         estimate D2E/DX2                !
 ! D185  D(54,20,22,24)       -162.5199         estimate D2E/DX2                !
 ! D186  D(54,20,22,58)        -20.8716         estimate D2E/DX2                !
 ! D187  D(18,20,54,11)        -21.5776         estimate D2E/DX2                !
 ! D188  D(18,20,54,56)       -135.3089         estimate D2E/DX2                !
 ! D189  D(18,20,54,94)        101.81           estimate D2E/DX2                !
 ! D190  D(22,20,54,11)        140.8797         estimate D2E/DX2                !
 ! D191  D(22,20,54,56)         27.1485         estimate D2E/DX2                !
 ! D192  D(22,20,54,94)        -95.7327         estimate D2E/DX2                !
 ! D193  D(19,21,23,1)          -9.9786         estimate D2E/DX2                !
 ! D194  D(19,21,23,25)       -154.0581         estimate D2E/DX2                !
 ! D195  D(57,21,23,1)         135.3372         estimate D2E/DX2                !
 ! D196  D(57,21,23,25)         -8.7422         estimate D2E/DX2                !
 ! D197  D(19,21,57,59)        150.8305         estimate D2E/DX2                !
 ! D198  D(19,21,57,83)         -3.2189         estimate D2E/DX2                !
 ! D199  D(23,21,57,59)         10.8299         estimate D2E/DX2                !
 ! D200  D(23,21,57,83)       -143.2194         estimate D2E/DX2                !
 ! D201  D(20,22,24,26)         -0.8623         estimate D2E/DX2                !
 ! D202  D(20,22,24,62)        144.0089         estimate D2E/DX2                !
 ! D203  D(58,22,24,26)       -148.2048         estimate D2E/DX2                !
 ! D204  D(58,22,24,62)         -3.3336         estimate D2E/DX2                !
 ! D205  D(20,22,58,60)       -143.6018         estimate D2E/DX2                !
 ! D206  D(20,22,58,84)          2.5118         estimate D2E/DX2                !
 ! D207  D(24,22,58,60)          2.4174         estimate D2E/DX2                !
 ! D208  D(24,22,58,84)        148.531          estimate D2E/DX2                !
 ! D209  D(1,23,25,27)           1.5163         estimate D2E/DX2                !
 ! D210  D(1,23,25,61)        -139.1688         estimate D2E/DX2                !
 ! D211  D(21,23,25,27)        141.828          estimate D2E/DX2                !
 ! D212  D(21,23,25,61)          1.1429         estimate D2E/DX2                !
 ! D213  D(22,24,26,3)          -0.9354         estimate D2E/DX2                !
 ! D214  D(22,24,26,28)        141.8474         estimate D2E/DX2                !
 ! D215  D(62,24,26,3)        -142.1896         estimate D2E/DX2                !
 ! D216  D(62,24,26,28)          0.5932         estimate D2E/DX2                !
 ! D217  D(22,24,62,60)          2.9525         estimate D2E/DX2                !
 ! D218  D(22,24,62,64)       -142.0589         estimate D2E/DX2                !
 ! D219  D(26,24,62,60)        147.7062         estimate D2E/DX2                !
 ! D220  D(26,24,62,64)          2.6947         estimate D2E/DX2                !
 ! D221  D(23,25,27,29)         -5.1582         estimate D2E/DX2                !
 ! D222  D(23,25,27,65)       -149.2313         estimate D2E/DX2                !
 ! D223  D(61,25,27,29)        139.2638         estimate D2E/DX2                !
 ! D224  D(61,25,27,65)         -4.8093         estimate D2E/DX2                !
 ! D225  D(23,25,61,59)          3.8479         estimate D2E/DX2                !
 ! D226  D(23,25,61,63)        148.8755         estimate D2E/DX2                !
 ! D227  D(27,25,61,59)       -140.5119         estimate D2E/DX2                !
 ! D228  D(27,25,61,63)          4.5157         estimate D2E/DX2                !
 ! D229  D(3,26,28,30)          -8.2458         estimate D2E/DX2                !
 ! D230  D(3,26,28,66)         140.3168         estimate D2E/DX2                !
 ! D231  D(24,26,28,30)       -154.3288         estimate D2E/DX2                !
 ! D232  D(24,26,28,66)         -5.7662         estimate D2E/DX2                !
 ! D233  D(25,27,29,5)          -0.2782         estimate D2E/DX2                !
 ! D234  D(25,27,29,31)       -153.6235         estimate D2E/DX2                !
 ! D235  D(65,27,29,5)         138.6574         estimate D2E/DX2                !
 ! D236  D(65,27,29,31)        -14.6878         estimate D2E/DX2                !
 ! D237  D(25,27,65,63)          3.2173         estimate D2E/DX2                !
 ! D238  D(25,27,65,67)        152.6256         estimate D2E/DX2                !
 ! D239  D(29,27,65,63)       -140.5093         estimate D2E/DX2                !
 ! D240  D(29,27,65,67)          8.8989         estimate D2E/DX2                !
 ! D241  D(26,28,30,7)           1.0147         estimate D2E/DX2                !
 ! D242  D(26,28,30,32)        152.0972         estimate D2E/DX2                !
 ! D243  D(66,28,30,7)        -146.8651         estimate D2E/DX2                !
 ! D244  D(66,28,30,32)          4.2174         estimate D2E/DX2                !
 ! D245  D(26,28,66,64)          7.2876         estimate D2E/DX2                !
 ! D246  D(26,28,66,68)       -147.5805         estimate D2E/DX2                !
 ! D247  D(30,28,66,64)        150.6879         estimate D2E/DX2                !
 ! D248  D(30,28,66,68)         -4.1802         estimate D2E/DX2                !
 ! D249  D(5,29,31,33)          -2.6879         estimate D2E/DX2                !
 ! D250  D(5,29,31,69)        -148.1423         estimate D2E/DX2                !
 ! D251  D(27,29,31,33)        151.1559         estimate D2E/DX2                !
 ! D252  D(27,29,31,69)          5.7014         estimate D2E/DX2                !
 ! D253  D(7,30,32,34)          -0.7784         estimate D2E/DX2                !
 ! D254  D(7,30,32,70)         148.5136         estimate D2E/DX2                !
 ! D255  D(28,30,32,34)       -148.6594         estimate D2E/DX2                !
 ! D256  D(28,30,32,70)          0.6326         estimate D2E/DX2                !
 ! D257  D(29,31,33,35)         -8.2273         estimate D2E/DX2                !
 ! D258  D(29,31,33,73)       -155.3975         estimate D2E/DX2                !
 ! D259  D(69,31,33,35)        141.2739         estimate D2E/DX2                !
 ! D260  D(69,31,33,73)         -5.8963         estimate D2E/DX2                !
 ! D261  D(29,31,69,67)          9.8731         estimate D2E/DX2                !
 ! D262  D(29,31,69,71)        154.4944         estimate D2E/DX2                !
 ! D263  D(33,31,69,67)       -139.375          estimate D2E/DX2                !
 ! D264  D(33,31,69,71)          5.2463         estimate D2E/DX2                !
 ! D265  D(30,32,34,36)         32.8876         estimate D2E/DX2                !
 ! D266  D(30,32,34,74)        149.3985         estimate D2E/DX2                !
 ! D267  D(30,32,34,88)        -88.4177         estimate D2E/DX2                !
 ! D268  D(70,32,34,36)       -118.468          estimate D2E/DX2                !
 ! D269  D(70,32,34,74)         -1.9571         estimate D2E/DX2                !
 ! D270  D(70,32,34,88)        120.2267         estimate D2E/DX2                !
 ! D271  D(30,32,70,68)         -5.4695         estimate D2E/DX2                !
 ! D272  D(30,32,70,72)       -154.8534         estimate D2E/DX2                !
 ! D273  D(34,32,70,68)        146.9444         estimate D2E/DX2                !
 ! D274  D(34,32,70,72)         -2.4394         estimate D2E/DX2                !
 ! D275  D(31,33,35,9)          13.1333         estimate D2E/DX2                !
 ! D276  D(31,33,35,37)       -143.5203         estimate D2E/DX2                !
 ! D277  D(73,33,35,9)         155.5121         estimate D2E/DX2                !
 ! D278  D(73,33,35,37)         -1.1416         estimate D2E/DX2                !
 ! D279  D(31,33,73,71)          4.3122         estimate D2E/DX2                !
 ! D280  D(31,33,73,75)        145.7748         estimate D2E/DX2                !
 ! D281  D(35,33,73,71)       -142.5353         estimate D2E/DX2                !
 ! D282  D(35,33,73,75)         -1.0727         estimate D2E/DX2                !
 ! D283  D(32,34,36,12)        -34.4898         estimate D2E/DX2                !
 ! D284  D(32,34,36,38)        137.1671         estimate D2E/DX2                !
 ! D285  D(74,34,36,12)       -144.8058         estimate D2E/DX2                !
 ! D286  D(74,34,36,38)         26.8511         estimate D2E/DX2                !
 ! D287  D(88,34,36,12)         89.8194         estimate D2E/DX2                !
 ! D288  D(88,34,36,38)        -98.5237         estimate D2E/DX2                !
 ! D289  D(32,34,74,72)          5.7269         estimate D2E/DX2                !
 ! D290  D(32,34,74,76)       -142.9157         estimate D2E/DX2                !
 ! D291  D(36,34,74,72)        120.7441         estimate D2E/DX2                !
 ! D292  D(36,34,74,76)        -27.8985         estimate D2E/DX2                !
 ! D293  D(88,34,74,72)       -116.6089         estimate D2E/DX2                !
 ! D294  D(88,34,74,76)         94.7485         estimate D2E/DX2                !
 ! D295  D(9,35,37,39)          -0.6617         estimate D2E/DX2                !
 ! D296  D(9,35,37,77)        -154.0068         estimate D2E/DX2                !
 ! D297  D(33,35,37,39)        155.2441         estimate D2E/DX2                !
 ! D298  D(33,35,37,77)          1.899          estimate D2E/DX2                !
 ! D299  D(12,36,38,42)          0.1869         estimate D2E/DX2                !
 ! D300  D(12,36,38,78)        172.1228         estimate D2E/DX2                !
[...]
 Alpha virt. eigenvalues --    1.32927   1.33383   1.33827   1.34357   1.34647
 Alpha virt. eigenvalues --    1.34873   1.35345   1.35621   1.35978   1.37007
 Alpha virt. eigenvalues --    1.37154   1.37723   1.38257   1.38499   1.38606
 Alpha virt. eigenvalues --    1.39264   1.39826   1.40287   1.40433   1.41236
 Alpha virt. eigenvalues --    1.41333   1.41637   1.42936   1.43613   1.44238
 Alpha virt. eigenvalues --    1.44612   1.44831   1.45309   1.45626   1.45830
 Alpha virt. eigenvalues --    1.46507   1.46550   1.46824   1.47237   1.48396
 Alpha virt. eigenvalues --    1.48756   1.50095   1.50680   1.50867   1.51791
 Alpha virt. eigenvalues --    1.52263   1.52605   1.53262   1.53587   1.53892
 Alpha virt. eigenvalues --    1.54471   1.54919   1.55596   1.56125   1.56218
 Alpha virt. eigenvalues --    1.56886   1.57744   1.57949   1.58675   1.58992
 Alpha virt. eigenvalues --    1.59410   1.60037   1.60501   1.60755   1.61284
 Alpha virt. eigenvalues --    1.61446   1.61856   1.62441   1.62847   1.63268
 Alpha virt. eigenvalues --    1.63392   1.63509   1.63601   1.63875   1.64494
 Alpha virt. eigenvalues --    1.64871   1.65026   1.65150   1.65608   1.65754
 Alpha virt. eigenvalues --    1.65990   1.66288   1.66628   1.66805   1.67065
 Alpha virt. eigenvalues --    1.67348   1.67753   1.67919   1.67953   1.68398
 Alpha virt. eigenvalues --    1.68648   1.68786   1.68954   1.69215   1.69470
 Alpha virt. eigenvalues --    1.69707   1.70058   1.70446   1.70622   1.70761
 Alpha virt. eigenvalues --    1.70982   1.71211   1.71502   1.71666   1.71775
 Alpha virt. eigenvalues --    1.71932   1.72199   1.72387   1.72515   1.72684
 Alpha virt. eigenvalues --    1.73257   1.73442   1.73563   1.73830   1.74161
 Alpha virt. eigenvalues --    1.74431   1.74495   1.74809   1.74924   1.75210
 Alpha virt. eigenvalues --    1.75418   1.75805   1.76013   1.76265   1.76341
 Alpha virt. eigenvalues --    1.76558   1.76873   1.77290   1.77466   1.77642
 Alpha virt. eigenvalues --    1.77847   1.78024   1.78361   1.78440   1.78760
 Alpha virt. eigenvalues --    1.78948   1.79330   1.79399   1.79767   1.79971
 Alpha virt. eigenvalues --    1.80406   1.80508   1.80964   1.81563   1.81956
 Alpha virt. eigenvalues --    1.82351   1.82526   1.82699   1.83160   1.83504
 Alpha virt. eigenvalues --    1.83665   1.83814   1.84817   1.85121   1.85381
 Alpha virt. eigenvalues --    1.85729   1.86060   1.86338   1.86579   1.87131
 Alpha virt. eigenvalues --    1.87317   1.87735   1.88038   1.88349   1.88680
 Alpha virt. eigenvalues --    1.89035   1.89362   1.89654   1.89941   1.90505
 Alpha virt. eigenvalues --    1.90626   1.90964   1.91259   1.91722   1.92094
 Alpha virt. eigenvalues --    1.92432   1.93137   1.93590   1.93781   1.93964
 Alpha virt. eigenvalues --    1.94355   1.94607   1.94927   1.95457   1.95838
 Alpha virt. eigenvalues --    1.96204   1.96441   1.96865   1.97265   1.97425
 Alpha virt. eigenvalues --    1.97729   1.97895   1.98181   1.98674   1.98889
 Alpha virt. eigenvalues --    1.99139   1.99296   1.99782   1.99877   2.00049
 Alpha virt. eigenvalues --    2.00171   2.00464   2.01018   2.01223   2.01438
 Alpha virt. eigenvalues --    2.01707   2.01844   2.02508   2.02826   2.02930
 Alpha virt. eigenvalues --    2.03262   2.03473   2.03722   2.03873   2.04166
 Alpha virt. eigenvalues --    2.04469   2.05110   2.05738   2.06174   2.06298
 Alpha virt. eigenvalues --    2.06593   2.06765   2.06972   2.07389   2.07880
 Alpha virt. eigenvalues --    2.08013   2.08872   2.09416   2.09707   2.10098
 Alpha virt. eigenvalues --    2.10667   2.10826   2.11740   2.11798   2.12438
 Alpha virt. eigenvalues --    2.12716   2.13189   2.13694   2.14019   2.14448
 Alpha virt. eigenvalues --    2.14868   2.15173   2.15623   2.15867   2.16616
 Alpha virt. eigenvalues --    2.16890   2.17055   2.17551   2.17782   2.18238
 Alpha virt. eigenvalues --    2.18436   2.18740   2.19405   2.19945   2.20471
 Alpha virt. eigenvalues --    2.20716   2.21417   2.21467   2.21736   2.22677
 Alpha virt. eigenvalues --    2.22825   2.23070   2.23417   2.23816   2.24321
 Alpha virt. eigenvalues --    2.24736   2.24780   2.25114   2.25416   2.26133
 Alpha virt. eigenvalues --    2.26236   2.26642   2.27289   2.27661   2.27836
 Alpha virt. eigenvalues --    2.28517   2.28930   2.29416   2.29823   2.29988
 Alpha virt. eigenvalues --    2.30229   2.30593   2.30801   2.31498   2.32031
 Alpha virt. eigenvalues --    2.32802   2.33056   2.33743   2.34447   2.34517
 Alpha virt. eigenvalues --    2.35088   2.35390   2.36131   2.36365   2.37498
 Alpha virt. eigenvalues --    2.37625   2.38352   2.38958   2.39232   2.39984
 Alpha virt. eigenvalues --    2.40423   2.41018   2.41216   2.41965   2.42252
 Alpha virt. eigenvalues --    2.42776   2.43399   2.43834   2.44245   2.44686
 Alpha virt. eigenvalues --    2.45097   2.45839   2.45897   2.46398   2.47436
 Alpha virt. eigenvalues --    2.47986   2.48353   2.48697   2.49377   2.49723
 Alpha virt. eigenvalues --    2.50854   2.51260   2.51465   2.51743   2.52010
 Alpha virt. eigenvalues --    2.52607   2.53041   2.53585   2.53793   2.54512
 Alpha virt. eigenvalues --    2.54708   2.54993   2.55276   2.55633   2.56125
 Alpha virt. eigenvalues --    2.56394   2.56696   2.57161   2.57424   2.57615
 Alpha virt. eigenvalues --    2.58182   2.58251   2.58376   2.58512   2.58930
 Alpha virt. eigenvalues --    2.59172   2.59490   2.59949   2.60131   2.60449
 Alpha virt. eigenvalues --    2.60944   2.61036   2.61329   2.61722   2.62648
 Alpha virt. eigenvalues --    2.62753   2.63158   2.63688   2.63858   2.64015
 Alpha virt. eigenvalues --    2.64267   2.64847   2.65152   2.65252   2.65598
 Alpha virt. eigenvalues --    2.66146   2.66568   2.66713   2.66933   2.67770
 Alpha virt. eigenvalues --    2.68028   2.68508   2.68879   2.69159   2.69531
 Alpha virt. eigenvalues --    2.70170   2.70404   2.71016   2.71558   2.71852
 Alpha virt. eigenvalues --    2.72220   2.72543   2.73091   2.73415   2.73831
 Alpha virt. eigenvalues --    2.74056   2.74643   2.74947   2.75203   2.75371
 Alpha virt. eigenvalues --    2.75941   2.76203   2.76554   2.76939   2.77267
 Alpha virt. eigenvalues --    2.77931   2.78064   2.78098   2.78430   2.78917
 Alpha virt. eigenvalues --    2.79651   2.79899   2.80814   2.81162   2.81561
 Alpha virt. eigenvalues --    2.82002   2.82206   2.82588   2.83356   2.83827
 Alpha virt. eigenvalues --    2.84375   2.84454   2.85086   2.85804   2.86075
 Alpha virt. eigenvalues --    2.86599   2.87316   2.87855   2.88371   2.88658
 Alpha virt. eigenvalues --    2.89189   2.89564   2.90446   2.90506   2.91463
 Alpha virt. eigenvalues --    2.91907   2.91955   2.92885   2.93100   2.93685
 Alpha virt. eigenvalues --    2.94425   2.94769   2.95097   2.95718   2.96451
 Alpha virt. eigenvalues --    2.96481   2.97451   2.98688   2.99336   3.01549
 Alpha virt. eigenvalues --    3.02013   3.02186   3.03183   3.04171   3.05161
 Alpha virt. eigenvalues --    3.06616   3.07338   3.10056   3.11212   3.11392
 Alpha virt. eigenvalues --    3.12166   3.13644   3.14632   3.16879   3.18081
 Alpha virt. eigenvalues --    3.18508   3.20596   3.22138   3.23152   3.24307
 Alpha virt. eigenvalues --    3.25386   3.27247   3.27468   3.30474   3.32073
 Alpha virt. eigenvalues --    3.33224   3.35152   3.35344   3.38538   3.41712
 Alpha virt. eigenvalues --    3.41923   3.43827   3.45134   3.46019   3.50935
 Alpha virt. eigenvalues --    3.51173   3.52939   3.55546   3.58292   4.00087
 Alpha virt. eigenvalues --    4.00739   4.01116   4.02579   4.03396   4.04053
 Alpha virt. eigenvalues --    4.04695   4.05292   4.05450   4.06483   4.07258
 Alpha virt. eigenvalues --    4.07546   4.08277   4.08806   4.08969   4.09749
 Alpha virt. eigenvalues --    4.10422   4.11735   4.12646   4.12988   4.13668
 Alpha virt. eigenvalues --    4.14271   4.15141   4.17078   4.17227   4.17579
 Alpha virt. eigenvalues --    4.19052   4.19738   4.19801   4.20817   4.21118
 Alpha virt. eigenvalues --    4.21860   4.23041   4.24041   4.24678   4.25774
 Alpha virt. eigenvalues --    4.26262   4.26721   4.26977   4.27799   4.27894
 Alpha virt. eigenvalues --    4.28147   4.28793   4.29298   4.30088   4.30929
 Alpha virt. eigenvalues --    4.32549   4.33075   4.34592   4.34898   4.35992
 Alpha virt. eigenvalues --    4.38653   4.39337   4.39527   4.41326   4.41578
 Alpha virt. eigenvalues --    4.41902   4.44148   4.44349   4.44981   4.47881
 Alpha virt. eigenvalues --    4.48262   4.48929   4.49878   4.50542   4.52949
 Alpha virt. eigenvalues --    4.54557   4.56891   4.57861   4.58231   4.60037
 Alpha virt. eigenvalues --    4.61730   4.62281   4.65125   4.65550   4.66431
 Alpha virt. eigenvalues --    4.69537   4.72443   4.77414   4.78209   4.79170
 Alpha virt. eigenvalues --    4.83027   4.84904   4.87820   4.89802   4.92417
 Alpha virt. eigenvalues --    4.93783   4.97645   5.03961   5.07368   5.08719
 Alpha virt. eigenvalues --    5.15508   5.18906   5.22317
          Condensed to atoms (all electrons):
 Mulliken charges:
               1
     1  C   -0.018182
     2  C   -0.362410
     3  C    0.077127
     4  C   -0.378107
     5  C    0.050431
     6  C    0.092395
     7  C   -0.382706
     8  C    0.180641
     9  C    0.026934
    10  C    0.097693
    11  C    0.178197
    12  C    0.148256
    13  C    0.021036
    14  C    0.116846
    15  C    0.021815
    16  C   -0.378105
    17  C   -0.013123
    18  C    0.151893
    19  C   -0.012669
    20  C    0.124021
    21  C   -0.021990
    22  C    0.009262
    23  C   -0.000365
    24  C   -0.025601
    25  C   -0.022490
    26  C    0.027801
    27  C   -0.023287
    28  C    0.005318
    29  C    0.053085
    30  C    0.091108
    31  C   -0.028727
    32  C    0.088868
    33  C   -0.022162
    34  C   -0.375746
    35  C    0.041621
    36  C    0.121119
    37  C    0.035292
    38  C    0.121044
    39  C    0.060575
    40  C    0.041700
    41  C    0.082716
    42  C    0.145548
    43  C    0.045598
    44  C    0.120088
    45  C    0.149905
    46  C    0.117124
    47  C    0.130203
    48  C    0.119433
    49  C   -0.378955
    50  C   -0.368475
    51  C    0.080174
    52  C    0.133526
    53  C    0.024504
    54  C   -0.354544
    55  C    0.010151
    56  C    0.075864
    57  C    0.048823
    58  C   -0.047129
    59  C    0.062579
    60  C   -0.022936
    61  C   -0.029145
    62  C   -0.028639
    63  C   -0.031655
    64  C    0.061642
    65  C   -0.028730
    66  C    0.040944
    67  C    0.061113
    68  C    0.033911
    69  C   -0.027503
    70  C    0.004670
    71  C   -0.019795
    72  C    0.031863
    73  C   -0.020791
    74  C    0.090690
    75  C    0.030134
    76  C    0.091218
    77  C    0.008106
    78  C   -0.378078
    79  C   -0.000972
    80  C   -0.390566
    81  C    0.090415
    82  C    0.093806
    83  C    0.031110
    84  C    0.064863
    85  Cl   0.025843
    86  Cl   0.025820
    87  Cl   0.015374
    88  Cl   0.015818
    89  Cl   0.017309
    90  Cl   0.010850
    91  Cl   0.017430
    92  Cl   0.016333
    93  Cl  -0.009854
    94  Cl  -0.006142
 Sum of Mulliken charges =  -0.00000
 Mulliken charges with hydrogens summed into heavy atoms:
               1
     1  C   -0.018182
     2  C   -0.362410
     3  C    0.077127
     4  C   -0.378107
     5  C    0.050431
     6  C    0.092395
     7  C   -0.382706
     8  C    0.180641
     9  C    0.026934
    10  C    0.097693
    11  C    0.178197
    12  C    0.148256
    13  C    0.021036
    14  C    0.116846
    15  C    0.021815
    16  C   -0.378105
    17  C   -0.013123
    18  C    0.151893
    19  C   -0.012669
    20  C    0.124021
    21  C   -0.021990
    22  C    0.009262
    23  C   -0.000365
    24  C   -0.025601
    25  C   -0.022490
    26  C    0.027801
    27  C   -0.023287
    28  C    0.005318
    29  C    0.053085
    30  C    0.091108
    31  C   -0.028727
    32  C    0.088868
    33  C   -0.022162
    34  C   -0.375746
    35  C    0.041621
    36  C    0.121119
    37  C    0.035292
    38  C    0.121044
    39  C    0.060575
    40  C    0.041700
    41  C    0.082716
    42  C    0.145548
    43  C    0.045598
    44  C    0.120088
    45  C    0.149905
    46  C    0.117124
    47  C    0.130203
    48  C    0.119433
    49  C   -0.378955
    50  C   -0.368475
    51  C    0.080174
    52  C    0.133526
    53  C    0.024504
    54  C   -0.354544
    55  C    0.010151
    56  C    0.075864
    57  C    0.048823
    58  C   -0.047129
    59  C    0.062579
    60  C   -0.022936
    61  C   -0.029145
    62  C   -0.028639
    63  C   -0.031655
    64  C    0.061642
    65  C   -0.028730
    66  C    0.040944
    67  C    0.061113
    68  C    0.033911
    69  C   -0.027503
    70  C    0.004670
    71  C   -0.019795
    72  C    0.031863
    73  C   -0.020791
    74  C    0.090690
    75  C    0.030134
    76  C    0.091218
    77  C    0.008106
    78  C   -0.378078
    79  C   -0.000972
    80  C   -0.390566
    81  C    0.090415
    82  C    0.093806
    83  C    0.031110
    84  C    0.064863
    85  Cl   0.025843
    86  Cl   0.025820
    87  Cl   0.015374
    88  Cl   0.015818
    89  Cl   0.017309
    90  Cl   0.010850
    91  Cl   0.017430
    92  Cl   0.016333
    93  Cl  -0.009854
    94  Cl  -0.006142
 Electronic spatial extent (au):  <R**2>=          55568.7518
 Charge=             -0.0000 electrons
 Dipole moment (field-independent basis, Debye):
    X=             -0.8086    Y=             -7.9788    Z=             -2.6705  Tot=              8.4526
 Quadrupole moment (field-independent basis, Debye-Ang):
   XX=           -609.2961   YY=           -601.9145   ZZ=           -593.7282
   XY=              1.7681   XZ=              3.0778   YZ=             -0.0436
 Traceless Quadrupole moment (field-independent basis, Debye-Ang):
   XX=             -7.6498   YY=             -0.2682   ZZ=              7.9181
   XY=              1.7681   XZ=              3.0778   YZ=             -0.0436
 Octapole moment (field-independent basis, Debye-Ang**2):
  XXX=             -4.0489  YYY=             25.6971  ZZZ=             29.0743  XYY=             16.5489
  XXY=            -11.4167  XXZ=            -40.6875  XZZ=             11.8832  YZZ=             22.8592
  YYZ=             57.3569  XYZ=             -3.4869
 Hexadecapole moment (field-independent basis, Debye-Ang**3):
 XXXX=         -30836.1263 YYYY=         -26403.5441 ZZZZ=         -22569.0512 XXXY=             52.3981
 XXXZ=            126.1253 YYYX=             84.2791 YYYZ=             12.8770 ZZZX=            -33.1984
 ZZZY=            -12.2096 XXYY=          -9410.0921 XXZZ=          -8889.7695 YYZZ=          -8162.5417
 XXYZ=             87.2936 YYXZ=            -13.4155 ZZXY=            -28.9703
 N-N= 2.236924897819D+04 E-N=-6.307293611538D+04  KE= 7.759017883443D+03
 No NMR shielding tensors so no spin-rotation constants.
 Leave Link  601 at Mon Jun 27 03:15:20 2022, MaxMem=  1342177280 cpu:              25.0 elap:               1.3
 (Enter /home/mkliu/g16/l9999.exe)
 1\1\GINC-NODE03\FOpt\RB3LYP\6-31G(d,p)\C84Cl10\MKLIU\27-Jun-2022\0\\#P
  opt b3lyp/6-31G(d, p) empiricaldispersion=GD3\\force\\0,1\C,8.4931166
 376,18.8338012275,10.7779562736\C,12.5834764426,19.9586829352,8.890677
 3617\C,8.2383519254,26.8900363254,10.5508008635\C,12.4555537597,25.721
 5966048,8.9436419884\C,8.004612806,19.0622394515,9.4640654341\C,12.091
 5121032,19.4455728488,10.2188983933\C,7.850960063,27.1195592136,9.0897
 295439\C,11.8665292068,26.1703373151,10.258349901\C,8.9702208647,19.16
 9163492,8.3695349732\C,12.3557591145,20.0884411817,11.393274464\C,12.1
 12904511,25.5262721869,11.3947554605\C,8.9326426059,26.5771495902,8.16
 83605919\C,10.3605460791,19.0380589832,8.6892056757\C,10.2401714727,26
 .6107771362,8.6481935847\C,10.8231450098,18.7942244013,10.0373737016\C
 ,10.6563086202,27.0518119735,10.0426186589\C,9.9049412373,18.706180952
 3,11.0617445442\C,9.5421676013,26.7835511879,11.0281208753\C,10.179353
 9758,19.3820352548,12.3018055397\C,9.7946108243,26.0482365689,12.22307
 16232\C,8.9404974725,19.9470730826,12.7865486866\C,8.7390173237,25.418
 2814711,12.8831176991\C,7.8915908485,19.475204885,11.9160417569\C,7.41
 48198141,25.4953399297,12.3617518526\C,6.7255046234,20.2115556509,11.7
 639550757\C,7.1769248572,26.2160563874,11.2039015023\C,6.1038572221,20
 .302597197,10.4878031546\C,6.2357624507,25.7243356645,10.2278647411\C,
 6.7217791314,19.7436566379,9.3425499083\C,6.6015343155,26.2687125545,8
 .967275441\C,6.3823476149,20.3321439276,8.0994332511\C,6.2961117377,25
 .5937288536,7.8285564234\C,7.2875585523,20.3335655071,7.0081481094\C,7
 .1758997583,25.6465754276,6.5884071383\C,8.6373590219,19.8806984281,7.
 1615783223\C,8.6431805786,25.8193892907,7.0109813179\C,9.6764133837,20
 .574714088,6.416578839\C,9.6701207337,25.0743050119,6.378432615\C,11.0
 372954806,20.5520737564,6.8997667082\C,12.7192797919,22.1639621439,7.7
 898982474\C,12.7413444117,23.56297067,7.7790436297\C,10.9777699405,25.
 0906649876,6.9127632698\C,11.3576901362,19.7349090132,7.998016279\C,12
 .9328054589,21.4366527518,8.9598910255\C,12.8956076465,24.2701982696,8
 .9633390836\C,11.2465655762,25.8755218285,8.0317745714\C,13.1543041557
 ,22.1410196873,10.1622071494\C,13.1152374038,23.5601323526,10.16549432
 29\C,13.1809444082,21.3625970884,11.482997686\C,13.044421979,24.331260
 7541,11.4821880613\C,12.4243073692,22.1321572276,12.5477186442\C,12.34
 8246169,23.5037827329,12.5283540336\C,11.3603294175,20.086504777,12.43
 24528827\C,11.1890549467,25.5935479678,12.5883209902\C,11.3471322946,2
 1.3796200309,13.0654817525\C,11.237278446,24.1549479972,13.0736912532\
 C,8.8845602064,21.2457117711,13.3536710888\C,8.8650679207,24.113105901
 7,13.5196780137\C,7.6313714521,21.988050504,13.2169289397\C,7.65830434
 63,23.4135266162,13.3371901969\C,6.5708925515,21.4567135454,12.4526792
 811\C,6.737161773,24.2568971813,12.591097019\C,5.737638608,22.30337424
 18,11.6123202855\C,5.8698337577,23.7213987486,11.6167309276\C,5.452606
 1226,21.6006833379,10.4210314248\C,5.622803407,24.4523775432,10.370026
 3372\C,5.2400480546,22.2684452244,9.1796406459\C,5.2979641666,23.72848
 21819,9.1550358149\C,5.5605732524,21.5319109114,8.0172640755\C,5.60030
 02694,24.3523100404,7.9112075132\C,5.8989692309,22.1942398943,6.793546
 1695\C,5.9219613715,23.5844049062,6.7388959605\C,6.9496692389,21.45285
 14594,6.1587091535\C,6.9356331406,24.2752168131,5.9921791102\C,7.94725
 78207,22.1393591972,5.4917487438\C,7.9247017565,23.5675018979,5.369513
 5276\C,9.3117566427,21.690634935,5.5987317633\C,9.3422223852,24.087442
 4473,5.2468433016\C,11.8555061328,21.6992908578,6.7013421192\C,12.0423
 338564,24.0837963583,6.5227632807\C,10.152470884,22.8097355372,5.42860
 06293\C,11.4118922657,22.8155959693,5.9926622998\C,10.1358278163,21.98
 90567835,13.5054487906\C,10.1202062089,23.4321649599,13.5481434474\Cl,
 13.853204187,26.8054133109,8.4189700633\Cl,13.2265340089,24.8174116098
 ,5.322725792\Cl,9.666411993,24.8909373528,3.6216327904\Cl,6.7032046351
 ,26.9985057679,5.4327032279\Cl,14.7417115057,24.8478377624,11.99915788
 27\Cl,14.9298620223,21.0096487509,11.953042103\Cl,7.5305941566,28.8971
 780367,8.7320381227\Cl,11.1297381116,28.8405930373,10.0632142993\Cl,14
 .0492305971,18.9997728919,8.2687484077\Cl,11.8706372993,26.7409374661,
 13.89571182\\Version=ES64L-G16RevA.03\State=1-A\HF=-7803.0302885\RMSD=
 4.667e-09\RMSF=6.536e-05\Dipole=-2.2434844,-2.4251836,0.3798198\Quadru
 pole=-2.7132463,-1.2014057,3.9146521,2.1125453,-4.6444235,1.5453213\PG
 =C01 [X(C84Cl10)]\\@


 NOT WHAT WE DID SHALL BE THE TEST
 WHEN ACT AND WILL ARE DONE,
 BUT WHAT OUR LORD INFERS WE WOULD-
 HAD WE DIVINER BEEN.
           EMILY DICKINSON  POEMS NO. CLXXV
 Job cpu time:       1 days  6 hours 36 minutes  8.6 seconds.
 Elapsed time:       0 days  1 hours 16 minutes 36.9 seconds.
 File lengths (MBytes):  RWF=   1291 Int=      0 D2E=      0 Chk=    162 Scr=      1
 Normal termination of Gaussian 16 at Mon Jun 27 03:15:23 2022.
