 Entering Gaussian System, Link 0=g16
 Input=10_addons_C84_11_Cl22_rank_1.gjf
 Output=10_addons_C84_11_Cl22_rank_1.log
 Initial command:
 /home/mkliu/g16/l1.exe "/data/scratch/Gau-122618.inp" -scrdir="/data/scratch/"
 Entering Link 1 = /home/mkliu/g16/l1.exe PID=    122619.
  
 Copyright (c) 1988,1990,1992,1993,1995,1998,2003,2009,2016,
            Gaussian, Inc.  All Rights Reserved.
  
 This is part of the Gaussian(R) 16 program.  It is based on
 the Gaussian(R) 09 system (copyright 2009, Gaussian, Inc.),
 the Gaussian(R) 03 system (copyright 2003, Gaussian, Inc.),
 the Gaussian(R) 98 system (copyright 1998, Gaussian, Inc.),
 the Gaussian(R) 94 system (copyright 1995, Gaussian, Inc.),
 the Gaussian 92(TM) system (copyright 1992, Gaussian, Inc.),
 the Gaussian 90(TM) system (copyright 1990, Gaussian, Inc.),
 the Gaussian 88(TM) system (copyright 1988, Gaussian, Inc.),
 the Gaussian 86(TM) system (copyright 1986, Carnegie Mellon
 University), and the Gaussian 82(TM) system (copyright 1983,
 Carnegie Mellon University). Gaussian is a federally registered
 trademark of Gaussian, Inc.
  
 This software contains proprietary and confidential information,
 including trade secrets, belonging to Gaussian, Inc.
  
 This software is provided under written license and may be
 used, copied, transmitted, or stored only in accord with that
 written license.
  
 The following legend is applicable only to US Government
 contracts under FAR:
  
                    RESTRICTED RIGHTS LEGEND
  
 Use, reproduction and disclosure by the US Government is
 subject to restrictions as set forth in subparagraphs (a)
 and (c) of the Commercial Computer Software - Restricted
 Rights clause in FAR 52.227-19.
  
 Gaussian, Inc.
 340 Quinnipiac St., Bldg. 40, Wallingford CT 06492
  
  
 ---------------------------------------------------------------
 Warning -- This program may not be used in any manner that
 competes with the business of Gaussian, Inc. or will provide
 assistance to any competitor of Gaussian, Inc.  The licensee
 of this program is prohibited from giving any competitor of
 Gaussian, Inc. access to this program.  By using this program,
 the user acknowledges that Gaussian, Inc. is engaged in the
 business of creating and licensing software in the field of
 computational chemistry and represents and warrants to the
 licensee that it is not a competitor of Gaussian, Inc. and that
 it will not use this program in any manner prohibited above.
 ---------------------------------------------------------------
  

 Cite this work as:
 Gaussian 16, Revision A.03,
 M. J. Frisch, G. W. Trucks, H. B. Schlegel, G. E. Scuseria, 
 M. A. Robb, J. R. Cheeseman, G. Scalmani, V. Barone, 
 G. A. Petersson, H. Nakatsuji, X. Li, M. Caricato, A. V. Marenich, 
 J. Bloino, B. G. Janesko, R. Gomperts, B. Mennucci, H. P. Hratchian, 
 J. V. Ortiz, A. F. Izmaylov, J. L. Sonnenberg, D. Williams-Young, 
 F. Ding, F. Lipparini, F. Egidi, J. Goings, B. Peng, A. Petrone, 
 T. Henderson, D. Ranasinghe, V. G. Zakrzewski, J. Gao, N. Rega, 
 G. Zheng, W. Liang, M. Hada, M. Ehara, K. Toyota, R. Fukuda, 
 J. Hasegawa, M. Ishida, T. Nakajima, Y. Honda, O. Kitao, H. Nakai, 
 T. Vreven, K. Throssell, J. A. Montgomery, Jr., J. E. Peralta, 
 F. Ogliaro, M. J. Bearpark, J. J. Heyd, E. N. Brothers, K. N. Kudin, 
 V. N. Staroverov, T. A. Keith, R. Kobayashi, J. Normand, 
 K. Raghavachari, A. P. Rendell, J. C. Burant, S. S. Iyengar, 
 J. Tomasi, M. Cossi, J. M. Millam, M. Klene, C. Adamo, R. Cammi, 
 J. W. Ochterski, R. L. Martin, K. Morokuma, O. Farkas, 
 J. B. Foresman, and D. J. Fox, Gaussian, Inc., Wallingford CT, 2016.
 
 ******************************************
 Gaussian 16:  ES64L-G16RevA.03 25-Dec-2016
                28-Jun-2022 
 ******************************************
 %mem=10GB
 %chk=10_addons_C84_11_Cl22_rank_1.chk
 %nprocshared=24
 Will use up to   24 processors via shared memory.
 ------------------------------------------------
 #P opt b3lyp/6-31G(d, p) empiricaldispersion=GD3
 ------------------------------------------------
 1/18=20,19=15,26=3,38=1/1,3;
 2/9=110,12=2,17=6,18=5,40=1/2;
 3/5=1,6=6,7=101,11=2,25=1,30=1,71=1,74=-5,124=31/1,2,3;
 4//1;
 5/5=2,38=5/2;
 6/7=2,8=2,9=2,10=2,28=1/1;
 7//1,2,3,16;
 1/18=20,19=15,26=3/3(2);
 2/9=110/2;
 99//99;
 2/9=110/2;
 3/5=1,6=6,7=101,11=2,25=1,30=1,71=1,74=-5,124=31/1,2,3;
 4/5=5,16=3,69=1/1;
 5/5=2,38=5/2;
 7//1,2,3,16;
 1/18=20,19=15,26=3/3(-5);
 2/9=110/2;
 6/7=2,8=2,9=2,10=2,19=2,28=1/1;
 99/9=1/99;
 Leave Link    1 at Tue Jun 28 23:22:11 2022, MaxMem=  1342177280 cpu:               0.7 elap:               0.1
 (Enter /home/mkliu/g16/l101.exe)
 -----
 force
 -----
 Symbolic Z-matrix:
 Charge =  0 Multiplicity = 1
 C                     8.49524   18.88025   10.76013 
 C                     12.59156   19.99253   8.88639 
 C                     8.26591   26.8335   10.51947 
 C                     12.46946   25.73675   8.93148 
 C                     8.02763   19.15719   9.45644 
 C                     12.0795   19.49607   10.20483 
 C                     7.9618    26.80304   9.11661 
 C                     11.86781   26.17753   10.23317 
 C                     8.99465   19.26901   8.3888 
 C                     12.34473   20.13038   11.37952 
 C                     12.12468   25.51445   11.40453 
 C                     8.95986   26.62204   8.13928 
 C                     10.36068   19.10473   8.69492 
 C                     10.2977   26.65615   8.61124 
 C                     10.81678   18.85687   10.01623 
 C                     10.61041   26.76747   10.0115 
 C                     9.88461   18.76963   11.0401 
 C                     9.59399   26.74847   10.99113 
 C                     10.16265   19.44136   12.27125 
 C                     9.84809   26.03309   12.20321 
 C                     8.94025   20.00548   12.75956 
 C                     8.75352   25.41437   12.84528 
 C                     7.9002    19.53164   11.90125 
 C                     7.43724   25.55252   12.3693 
 C                     6.73895   20.2615   11.76544 
 C                     7.18618   26.26019   11.22303 
 C                     5.93056   20.21549   10.5023 
 C                     6.05094   25.92922   10.28783 
 C                     6.76128   19.81181   9.31188 
 C                     6.66503   26.26785   8.9615 
 C                     6.43212   20.38758   8.1183 
 C                     6.35638   25.5951   7.81976 
 C                     7.35473   20.42718   7.04143 
 C                     7.32472   25.44892   6.7984 
 C                     8.68441   19.98393   7.19052 
 C                     8.66429   25.88757   6.94897 
 C                     9.72238   20.64023   6.42936 
 C                     9.71786   25.15352   6.2885 
 C                     11.0685   20.59771   6.91847 
 C                     12.74058   22.17358   7.79775 
 C                     12.67615   23.5698   7.81344 
 C                     11.04718   25.168    6.84764 
 C                     11.3705   19.81357   7.99475 
 C                     12.92773   21.46176   8.96318 
 C                     12.84266   24.27966   8.99282 
 C                     11.32086   25.9692   7.96681 
 C                     13.12147   22.16442   10.16935 
 C                     13.07894   23.57155   10.17924 
 C                     13.17236   21.38509   11.47375 
 C                     13.06348   24.33799   11.49123 
 C                     12.42906   22.1477   12.53836 
 C                     12.38531   23.50767   12.5408 
 C                     11.3503   20.13115   12.40858 
 C                     11.10709   25.41796   12.37649 
 C                     11.34448   21.40187   13.05762 
 C                     11.24321   24.15929   13.05372 
 C                     8.89847   21.2916   13.33918 
 C                     8.88249   24.11583   13.45194 
 C                     7.66733   22.03052   13.20411 
 C                     7.68027   23.42875   13.32297 
 C                     6.62811   21.49168   12.40774 
 C                     6.62161   24.35129   12.74673 
 C                     5.87377   22.36575   11.52741 
 C                     5.97993   23.74824   11.52578 
 C                     5.53642   21.66774   10.3643 
 C                     5.7418    24.4421   10.33133 
 C                     5.34313   22.33243   9.17234 
 C                     5.4243    23.73926   9.15356 
 C                     5.3752    21.46812   7.93563 
 C                     5.36589   24.4609   7.81669 
 C                     5.92223   22.23289   6.7682 
 C                     5.91691   23.59298   6.71612 
 C                     7.00715   21.50771   6.18882 
 C                     6.99935   24.26759   6.06723 
 C                     8.01115   22.14615   5.47521 
 C                     8.00686   23.57509   5.42649 
 C                     9.35596   21.69361   5.56273 
 C                     9.36208   24.03012   5.51184 
 C                     12.08789   21.64173   6.54294 
 C                     11.86705   24.02366   6.69658 
 C                     10.18864   22.8658   5.44806 
 C                     11.44801   22.88879   6.00764 
 C                     10.1413   22.0098   13.49615 
 C                     10.12769   23.43903   13.52375 
 Cl                    14.01367   19.06088   8.28947 
 Cl                    14.89683   21.06584   11.8938 
 Cl                    14.74576   24.81439   11.91858 
 Cl                    13.29473   20.95006   5.39069 
 Cl                    4.55159   26.85658   10.65063 
 Cl                    3.66916   24.99296   7.51642 
 Cl                    13.92298   26.70968   8.47572 
 Cl                    3.7416    20.77688   7.61905 
 Cl                    4.49255   19.13335   10.6561 
 Cl                    5.34509   24.73659   13.96702 
 
 ITRead=  0  0  0  0  0  0  0  0  0  0  0  0  0  0  0  0  0  0  0  0
 ITRead=  0  0  0  0  0  0  0  0  0  0  0  0  0  0  0  0  0  0  0  0
 ITRead=  0  0  0  0  0  0  0  0  0  0  0  0  0  0  0  0  0  0  0  0
 ITRead=  0  0  0  0  0  0  0  0  0  0  0  0  0  0  0  0  0  0  0  0
 ITRead=  0  0  0  0  0  0  0  0  0  0  0  0  0  0
 MicOpt= -1 -1 -1 -1 -1 -1 -1 -1 -1 -1 -1 -1 -1 -1 -1 -1 -1 -1 -1 -1
 MicOpt= -1 -1 -1 -1 -1 -1 -1 -1 -1 -1 -1 -1 -1 -1 -1 -1 -1 -1 -1 -1
 MicOpt= -1 -1 -1 -1 -1 -1 -1 -1 -1 -1 -1 -1 -1 -1 -1 -1 -1 -1 -1 -1
 MicOpt= -1 -1 -1 -1 -1 -1 -1 -1 -1 -1 -1 -1 -1 -1 -1 -1 -1 -1 -1 -1
 MicOpt= -1 -1 -1 -1 -1 -1 -1 -1 -1 -1 -1 -1 -1 -1
 NAtoms=     94 NQM=       94 NQMF=       0 NMMI=      0 NMMIF=      0
                NMic=       0 NMicF=      0.
                    Isotopes and Nuclear Properties:
 (Nuclear quadrupole moments (NQMom) in fm**2, nuclear magnetic moments (NMagM)
  in nuclear magnetons)

  Atom         1           2           3           4           5           6           7           8           9          10
 IAtWgt=          12          12          12          12          12          12          12          12          12          12
 AtmWgt=  12.0000000  12.0000000  12.0000000  12.0000000  12.0000000  12.0000000  12.0000000  12.0000000  12.0000000  12.0000000
 NucSpn=           0           0           0           0           0           0           0           0           0           0
 AtZEff=  -0.0000000  -0.0000000  -0.0000000  -0.0000000  -0.0000000  -0.0000000  -0.0000000  -0.0000000  -0.0000000  -0.0000000
 NQMom=    0.0000000   0.0000000   0.0000000   0.0000000   0.0000000   0.0000000   0.0000000   0.0000000   0.0000000   0.0000000
 NMagM=    0.0000000   0.0000000   0.0000000   0.0000000   0.0000000   0.0000000   0.0000000   0.0000000   0.0000000   0.0000000
 AtZNuc=   6.0000000   6.0000000   6.0000000   6.0000000   6.0000000   6.0000000   6.0000000   6.0000000   6.0000000   6.0000000

  Atom        11          12          13          14          15          16          17          18          19          20
 IAtWgt=          12          12          12          12          12          12          12          12          12          12
 AtmWgt=  12.0000000  12.0000000  12.0000000  12.0000000  12.0000000  12.0000000  12.0000000  12.0000000  12.0000000  12.0000000
 NucSpn=           0           0           0           0           0           0           0           0           0           0
 AtZEff=  -0.0000000  -0.0000000  -0.0000000  -0.0000000  -0.0000000  -0.0000000  -0.0000000  -0.0000000  -0.0000000  -0.0000000
 NQMom=    0.0000000   0.0000000   0.0000000   0.0000000   0.0000000   0.0000000   0.0000000   0.0000000   0.0000000   0.0000000
 NMagM=    0.0000000   0.0000000   0.0000000   0.0000000   0.0000000   0.0000000   0.0000000   0.0000000   0.0000000   0.0000000
 AtZNuc=   6.0000000   6.0000000   6.0000000   6.0000000   6.0000000   6.0000000   6.0000000   6.0000000   6.0000000   6.0000000

  Atom        21          22          23          24          25          26          27          28          29          30
 IAtWgt=          12          12          12          12          12          12          12          12          12          12
 AtmWgt=  12.0000000  12.0000000  12.0000000  12.0000000  12.0000000  12.0000000  12.0000000  12.0000000  12.0000000  12.0000000
 NucSpn=           0           0           0           0           0           0           0           0           0           0
 AtZEff=  -0.0000000  -0.0000000  -0.0000000  -0.0000000  -0.0000000  -0.0000000  -0.0000000  -0.0000000  -0.0000000  -0.0000000
 NQMom=    0.0000000   0.0000000   0.0000000   0.0000000   0.0000000   0.0000000   0.0000000   0.0000000   0.0000000   0.0000000
 NMagM=    0.0000000   0.0000000   0.0000000   0.0000000   0.0000000   0.0000000   0.0000000   0.0000000   0.0000000   0.0000000
 AtZNuc=   6.0000000   6.0000000   6.0000000   6.0000000   6.0000000   6.0000000   6.0000000   6.0000000   6.0000000   6.0000000

  Atom        31          32          33          34          35          36          37          38          39          40
 IAtWgt=          12          12          12          12          12          12          12          12          12          12
 AtmWgt=  12.0000000  12.0000000  12.0000000  12.0000000  12.0000000  12.0000000  12.0000000  12.0000000  12.0000000  12.0000000
 NucSpn=           0           0           0           0           0           0           0           0           0           0
 AtZEff=  -0.0000000  -0.0000000  -0.0000000  -0.0000000  -0.0000000  -0.0000000  -0.0000000  -0.0000000  -0.0000000  -0.0000000
 NQMom=    0.0000000   0.0000000   0.0000000   0.0000000   0.0000000   0.0000000   0.0000000   0.0000000   0.0000000   0.0000000
 NMagM=    0.0000000   0.0000000   0.0000000   0.0000000   0.0000000   0.0000000   0.0000000   0.0000000   0.0000000   0.0000000
 AtZNuc=   6.0000000   6.0000000   6.0000000   6.0000000   6.0000000   6.0000000   6.0000000   6.0000000   6.0000000   6.0000000

  Atom        41          42          43          44          45          46          47          48          49          50
 IAtWgt=          12          12          12          12          12          12          12          12          12          12
 AtmWgt=  12.0000000  12.0000000  12.0000000  12.0000000  12.0000000  12.0000000  12.0000000  12.0000000  12.0000000  12.0000000
 NucSpn=           0           0           0           0           0           0           0           0           0           0
 AtZEff=  -0.0000000  -0.0000000  -0.0000000  -0.0000000  -0.0000000  -0.0000000  -0.0000000  -0.0000000  -0.0000000  -0.0000000
 NQMom=    0.0000000   0.0000000   0.0000000   0.0000000   0.0000000   0.0000000   0.0000000   0.0000000   0.0000000   0.0000000
 NMagM=    0.0000000   0.0000000   0.0000000   0.0000000   0.0000000   0.0000000   0.0000000   0.0000000   0.0000000   0.0000000
 AtZNuc=   6.0000000   6.0000000   6.0000000   6.0000000   6.0000000   6.0000000   6.0000000   6.0000000   6.0000000   6.0000000

  Atom        51          52          53          54          55          56          57          58          59          60
 IAtWgt=          12          12          12          12          12          12          12          12          12          12
 AtmWgt=  12.0000000  12.0000000  12.0000000  12.0000000  12.0000000  12.0000000  12.0000000  12.0000000  12.0000000  12.0000000
 NucSpn=           0           0           0           0           0           0           0           0           0           0
 AtZEff=  -0.0000000  -0.0000000  -0.0000000  -0.0000000  -0.0000000  -0.0000000  -0.0000000  -0.0000000  -0.0000000  -0.0000000
 NQMom=    0.0000000   0.0000000   0.0000000   0.0000000   0.0000000   0.0000000   0.0000000   0.0000000   0.0000000   0.0000000
 NMagM=    0.0000000   0.0000000   0.0000000   0.0000000   0.0000000   0.0000000   0.0000000   0.0000000   0.0000000   0.0000000
 AtZNuc=   6.0000000   6.0000000   6.0000000   6.0000000   6.0000000   6.0000000   6.0000000   6.0000000   6.0000000   6.0000000

  Atom        61          62          63          64          65          66          67          68          69          70
 IAtWgt=          12          12          12          12          12          12          12          12          12          12
 AtmWgt=  12.0000000  12.0000000  12.0000000  12.0000000  12.0000000  12.0000000  12.0000000  12.0000000  12.0000000  12.0000000
 NucSpn=           0           0           0           0           0           0           0           0           0           0
 AtZEff=  -0.0000000  -0.0000000  -0.0000000  -0.0000000  -0.0000000  -0.0000000  -0.0000000  -0.0000000  -0.0000000  -0.0000000
 NQMom=    0.0000000   0.0000000   0.0000000   0.0000000   0.0000000   0.0000000   0.0000000   0.0000000   0.0000000   0.0000000
 NMagM=    0.0000000   0.0000000   0.0000000   0.0000000   0.0000000   0.0000000   0.0000000   0.0000000   0.0000000   0.0000000
 AtZNuc=   6.0000000   6.0000000   6.0000000   6.0000000   6.0000000   6.0000000   6.0000000   6.0000000   6.0000000   6.0000000

  Atom        71          72          73          74          75          76          77          78          79          80
 IAtWgt=          12          12          12          12          12          12          12          12          12          12
 AtmWgt=  12.0000000  12.0000000  12.0000000  12.0000000  12.0000000  12.0000000  12.0000000  12.0000000  12.0000000  12.0000000
 NucSpn=           0           0           0           0           0           0           0           0           0           0
 AtZEff=  -0.0000000  -0.0000000  -0.0000000  -0.0000000  -0.0000000  -0.0000000  -0.0000000  -0.0000000  -0.0000000  -0.0000000
 NQMom=    0.0000000   0.0000000   0.0000000   0.0000000   0.0000000   0.0000000   0.0000000   0.0000000   0.0000000   0.0000000
 NMagM=    0.0000000   0.0000000   0.0000000   0.0000000   0.0000000   0.0000000   0.0000000   0.0000000   0.0000000   0.0000000
 AtZNuc=   6.0000000   6.0000000   6.0000000   6.0000000   6.0000000   6.0000000   6.0000000   6.0000000   6.0000000   6.0000000

  Atom        81          82          83          84          85          86          87          88          89          90
 IAtWgt=          12          12          12          12          35          35          35          35          35          35
 AtmWgt=  12.0000000  12.0000000  12.0000000  12.0000000  34.9688527  34.9688527  34.9688527  34.9688527  34.9688527  34.9688527
 NucSpn=           0           0           0           0           3           3           3           3           3           3
 AtZEff=  -0.0000000  -0.0000000  -0.0000000  -0.0000000  -0.0000000  -0.0000000  -0.0000000  -0.0000000  -0.0000000  -0.0000000
 NQMom=    0.0000000   0.0000000   0.0000000   0.0000000  -8.1650000  -8.1650000  -8.1650000  -8.1650000  -8.1650000  -8.1650000
 NMagM=    0.0000000   0.0000000   0.0000000   0.0000000   0.8218740   0.8218740   0.8218740   0.8218740   0.8218740   0.8218740
 AtZNuc=   6.0000000   6.0000000   6.0000000   6.0000000  17.0000000  17.0000000  17.0000000  17.0000000  17.0000000  17.0000000

  Atom        91          92          93          94
 IAtWgt=          35          35          35          35
 AtmWgt=  34.9688527  34.9688527  34.9688527  34.9688527
 NucSpn=           3           3           3           3
 AtZEff=  -0.0000000  -0.0000000  -0.0000000  -0.0000000
 NQMom=   -8.1650000  -8.1650000  -8.1650000  -8.1650000
 NMagM=    0.8218740   0.8218740   0.8218740   0.8218740
 AtZNuc=  17.0000000  17.0000000  17.0000000  17.0000000
 Leave Link  101 at Tue Jun 28 23:22:12 2022, MaxMem=  1342177280 cpu:               6.7 elap:               0.3
 (Enter /home/mkliu/g16/l103.exe)

 GradGradGradGradGradGradGradGradGradGradGradGradGradGradGradGradGradGrad
 Berny optimization.
 Initialization pass.
                           ----------------------------
                           !    Initial Parameters    !
                           ! (Angstroms and Degrees)  !
 --------------------------                            --------------------------
 ! Name  Definition              Value          Derivative Info.                !
 --------------------------------------------------------------------------------
 ! R1    R(1,5)                  1.4124         estimate D2E/DX2                !
 ! R2    R(1,17)                 1.4216         estimate D2E/DX2                !
 ! R3    R(1,23)                 1.4424         estimate D2E/DX2                !
 ! R4    R(2,6)                  1.499          estimate D2E/DX2                !
 ! R5    R(2,43)                 1.5225         estimate D2E/DX2                !
 ! R6    R(2,44)                 1.5091         estimate D2E/DX2                !
 ! R7    R(2,85)                 1.8019         estimate D2E/DX2                !
 ! R8    R(3,7)                  1.4358         estimate D2E/DX2                !
 ! R9    R(3,18)                 1.4119         estimate D2E/DX2                !
 ! R10   R(3,26)                 1.4105         estimate D2E/DX2                !
 ! R11   R(4,8)                  1.5002         estimate D2E/DX2                !
 ! R12   R(4,45)                 1.5054         estimate D2E/DX2                !
 ! R13   R(4,46)                 1.5179         estimate D2E/DX2                !
 ! R14   R(4,91)                 1.8075         estimate D2E/DX2                !
 ! R15   R(5,9)                  1.4448         estimate D2E/DX2                !
 ! R16   R(5,29)                 1.4328         estimate D2E/DX2                !
 ! R17   R(6,10)                 1.3611         estimate D2E/DX2                !
 ! R18   R(6,15)                 1.4278         estimate D2E/DX2                !
 ! R19   R(7,12)                 1.4086         estimate D2E/DX2                !
 ! R20   R(7,30)                 1.4114         estimate D2E/DX2                !
 ! R21   R(8,11)                 1.3703         estimate D2E/DX2                !
 ! R22   R(8,16)                 1.4065         estimate D2E/DX2                !
 ! R23   R(9,13)                 1.4095         estimate D2E/DX2                !
 ! R24   R(9,35)                 1.4294         estimate D2E/DX2                !
 ! R25   R(10,49)                1.506          estimate D2E/DX2                !
 ! R26   R(10,53)                1.431          estimate D2E/DX2                !
 ! R27   R(11,50)                1.5076         estimate D2E/DX2                !
 ! R28   R(11,54)                1.4105         estimate D2E/DX2                !
 ! R29   R(12,14)                1.4191         estimate D2E/DX2                !
 ! R30   R(12,36)                1.4296         estimate D2E/DX2                !
 ! R31   R(13,15)                1.4196         estimate D2E/DX2                !
 ! R32   R(13,43)                1.4186         estimate D2E/DX2                !
 ! R33   R(14,16)                1.4391         estimate D2E/DX2                !
 ! R34   R(14,46)                1.3907         estimate D2E/DX2                !
 ! R35   R(15,17)                1.3874         estimate D2E/DX2                !
 ! R36   R(16,18)                1.4118         estimate D2E/DX2                !
 ! R37   R(17,19)                1.4298         estimate D2E/DX2                !
 ! R38   R(18,20)                1.4302         estimate D2E/DX2                !
 ! R39   R(19,21)                1.4321         estimate D2E/DX2                !
 ! R40   R(19,53)                1.3803         estimate D2E/DX2                !
 ! R41   R(20,22)                1.4118         estimate D2E/DX2                !
 ! R42   R(20,54)                1.4119         estimate D2E/DX2                !
 ! R43   R(21,23)                1.4293         estimate D2E/DX2                !
 ! R44   R(21,57)                1.4113         estimate D2E/DX2                !
 ! R45   R(22,24)                1.4065         estimate D2E/DX2                !
 ! R46   R(22,58)                1.4391         estimate D2E/DX2                !
 ! R47   R(23,25)                1.3783         estimate D2E/DX2                !
 ! R48   R(24,26)                1.3703         estimate D2E/DX2                !
 ! R49   R(24,62)                1.5002         estimate D2E/DX2                !
 ! R50   R(25,27)                1.5004         estimate D2E/DX2                !
 ! R51   R(25,61)                1.3922         estimate D2E/DX2                !
 ! R52   R(26,28)                1.5076         estimate D2E/DX2                !
 ! R53   R(27,29)                1.5067         estimate D2E/DX2                !
 ! R54   R(27,65)                1.5111         estimate D2E/DX2                !
 ! R55   R(27,93)                1.8063         estimate D2E/DX2                !
 ! R56   R(28,30)                1.5003         estimate D2E/DX2                !
 ! R57   R(28,66)                1.5195         estimate D2E/DX2                !
 ! R58   R(28,89)                1.7999         estimate D2E/DX2                !
 ! R59   R(29,31)                1.3655         estimate D2E/DX2                !
 ! R60   R(30,32)                1.3607         estimate D2E/DX2                !
 ! R61   R(31,33)                1.4186         estimate D2E/DX2                !
 ! R62   R(31,69)                1.5225         estimate D2E/DX2                !
 ! R63   R(32,34)                1.415          estimate D2E/DX2                !
 ! R64   R(32,70)                1.5058         estimate D2E/DX2                !
 ! R65   R(33,35)                1.4095         estimate D2E/DX2                !
 ! R66   R(33,73)                1.4196         estimate D2E/DX2                !
 ! R67   R(34,36)                1.4176         estimate D2E/DX2                !
 ! R68   R(34,74)                1.4269         estimate D2E/DX2                !
 ! R69   R(35,37)                1.4448         estimate D2E/DX2                !
 ! R70   R(36,38)                1.444          estimate D2E/DX2                !
 ! R71   R(37,39)                1.4328         estimate D2E/DX2                !
 ! R72   R(37,77)                1.4124         estimate D2E/DX2                !
 ! R73   R(38,42)                1.4422         estimate D2E/DX2                !
 ! R74   R(38,78)                1.4113         estimate D2E/DX2                !
 ! R75   R(39,43)                1.3655         estimate D2E/DX2                !
 ! R76   R(39,79)                1.5067         estimate D2E/DX2                !
 ! R77   R(40,41)                1.3978         estimate D2E/DX2                !
 ! R78   R(40,44)                1.3784         estimate D2E/DX2                !
 ! R79   R(40,79)                1.5111         estimate D2E/DX2                !
 ! R80   R(41,45)                1.3866         estimate D2E/DX2                !
 ! R81   R(41,80)                1.4519         estimate D2E/DX2                !
 ! R82   R(42,46)                1.4033         estimate D2E/DX2                !
 ! R83   R(42,80)                1.4158         estimate D2E/DX2                !
 ! R84   R(44,47)                1.4093         estimate D2E/DX2                !
 ! R85   R(45,48)                1.4017         estimate D2E/DX2                !
 ! R86   R(47,48)                1.4078         estimate D2E/DX2                !
 ! R87   R(47,49)                1.5203         estimate D2E/DX2                !
 ! R88   R(48,50)                1.5195         estimate D2E/DX2                !
 ! R89   R(49,51)                1.5058         estimate D2E/DX2                !
 ! R90   R(49,86)                1.8034         estimate D2E/DX2                !
 ! R91   R(50,52)                1.5003         estimate D2E/DX2                !
 ! R92   R(50,87)                1.7999         estimate D2E/DX2                !
 ! R93   R(51,52)                1.3607         estimate D2E/DX2                !
 ! R94   R(51,55)                1.415          estimate D2E/DX2                !
 ! R95   R(52,56)                1.4114         estimate D2E/DX2                !
 ! R96   R(53,55)                1.4269         estimate D2E/DX2                !
 ! R97   R(54,56)                1.4358         estimate D2E/DX2                !
 ! R98   R(55,83)                1.4176         estimate D2E/DX2                !
 ! R99   R(56,84)                1.4086         estimate D2E/DX2                !
 ! R100  R(57,59)                1.4422         estimate D2E/DX2                !
 ! R101  R(57,83)                1.444          estimate D2E/DX2                !
 ! R102  R(58,60)                1.3907         estimate D2E/DX2                !
 ! R103  R(58,84)                1.4191         estimate D2E/DX2                !
 ! R104  R(59,60)                1.4033         estimate D2E/DX2                !
 ! R105  R(59,61)                1.4158         estimate D2E/DX2                !
 ! R106  R(60,62)                1.5179         estimate D2E/DX2                !
 ! R107  R(61,63)                1.4519         estimate D2E/DX2                !
 ! R108  R(62,64)                1.5054         estimate D2E/DX2                !
 ! R109  R(62,94)                1.8075         estimate D2E/DX2                !
 ! R110  R(63,64)                1.3866         estimate D2E/DX2                !
 ! R111  R(63,65)                1.3978         estimate D2E/DX2                !
 ! R112  R(64,66)                1.4017         estimate D2E/DX2                !
 ! R113  R(65,67)                1.3784         estimate D2E/DX2                !
 ! R114  R(66,68)                1.4078         estimate D2E/DX2                !
 ! R115  R(67,68)                1.4093         estimate D2E/DX2                !
 ! R116  R(67,69)                1.5091         estimate D2E/DX2                !
 ! R117  R(68,70)                1.5203         estimate D2E/DX2                !
 ! R118  R(69,71)                1.499          estimate D2E/DX2                !
 ! R119  R(69,92)                1.8019         estimate D2E/DX2                !
 ! R120  R(70,72)                1.506          estimate D2E/DX2                !
 ! R121  R(70,90)                1.8034         estimate D2E/DX2                !
 ! R122  R(71,72)                1.3611         estimate D2E/DX2                !
 ! R123  R(71,73)                1.4278         estimate D2E/DX2                !
 ! R124  R(72,74)                1.431          estimate D2E/DX2                !
 ! R125  R(73,75)                1.3874         estimate D2E/DX2                !
 ! R126  R(74,76)                1.3803         estimate D2E/DX2                !
 ! R127  R(75,76)                1.4298         estimate D2E/DX2                !
 ! R128  R(75,77)                1.4216         estimate D2E/DX2                !
 ! R129  R(76,78)                1.4321         estimate D2E/DX2                !
 ! R130  R(77,81)                1.4424         estimate D2E/DX2                !
 ! R131  R(78,81)                1.4293         estimate D2E/DX2                !
 ! R132  R(79,82)                1.5004         estimate D2E/DX2                !
 ! R133  R(79,88)                1.8063         estimate D2E/DX2                !
 ! R134  R(80,82)                1.3922         estimate D2E/DX2                !
 ! R135  R(81,82)                1.3783         estimate D2E/DX2                !
 ! R136  R(83,84)                1.4296         estimate D2E/DX2                !
 ! A1    A(5,1,17)             121.3724         estimate D2E/DX2                !
 ! A2    A(5,1,23)             120.3375         estimate D2E/DX2                !
 ! A3    A(17,1,23)            106.4103         estimate D2E/DX2                !
 ! A4    A(6,2,43)             101.6652         estimate D2E/DX2                !
 ! A5    A(6,2,44)             110.7184         estimate D2E/DX2                !
 ! A6    A(6,2,85)             112.9386         estimate D2E/DX2                !
 ! A7    A(43,2,44)            108.8376         estimate D2E/DX2                !
 ! A8    A(43,2,85)            112.2219         estimate D2E/DX2                !
 ! A9    A(44,2,85)            110.1466         estimate D2E/DX2                !
 ! A10   A(7,3,18)             121.6254         estimate D2E/DX2                !
 ! A11   A(7,3,26)             108.4581         estimate D2E/DX2                !
 ! A12   A(18,3,26)            121.9333         estimate D2E/DX2                !
 ! A13   A(8,4,45)             110.3928         estimate D2E/DX2                !
 ! A14   A(8,4,46)             101.7108         estimate D2E/DX2                !
 ! A15   A(8,4,91)             112.5279         estimate D2E/DX2                !
 ! A16   A(45,4,46)            111.2068         estimate D2E/DX2                !
 ! A17   A(45,4,91)            109.3855         estimate D2E/DX2                !
 ! A18   A(46,4,91)            111.459          estimate D2E/DX2                !
 ! A19   A(1,5,9)              118.4013         estimate D2E/DX2                !
 ! A20   A(1,5,29)             118.379          estimate D2E/DX2                !
 ! A21   A(9,5,29)             118.7911         estimate D2E/DX2                !
 ! A22   A(2,6,10)             122.56           estimate D2E/DX2                !
 ! A23   A(2,6,15)             109.5241         estimate D2E/DX2                !
 ! A24   A(10,6,15)            119.6674         estimate D2E/DX2                !
 ! A25   A(3,7,12)             122.0452         estimate D2E/DX2                !
 ! A26   A(3,7,30)             108.0612         estimate D2E/DX2                !
 ! A27   A(12,7,30)            121.7375         estimate D2E/DX2                !
 ! A28   A(4,8,11)             121.6243         estimate D2E/DX2                !
 ! A29   A(4,8,16)             110.1827         estimate D2E/DX2                !
 ! A30   A(11,8,16)            120.3494         estimate D2E/DX2                !
 ! A31   A(5,9,13)             118.6299         estimate D2E/DX2                !
 ! A32   A(5,9,35)             120.857          estimate D2E/DX2                !
 ! A33   A(13,9,35)            116.7886         estimate D2E/DX2                !
 ! A34   A(6,10,49)            123.3216         estimate D2E/DX2                !
 ! A35   A(6,10,53)            119.0427         estimate D2E/DX2                !
 ! A36   A(49,10,53)           109.6598         estimate D2E/DX2                !
 ! A37   A(8,11,50)            122.9212         estimate D2E/DX2                !
 ! A38   A(8,11,54)            119.1378         estimate D2E/DX2                !
 ! A39   A(50,11,54)           110.8688         estimate D2E/DX2                !
 ! A40   A(7,12,14)            115.7314         estimate D2E/DX2                !
 ! A41   A(7,12,36)            119.8176         estimate D2E/DX2                !
 ! A42   A(14,12,36)           118.9602         estimate D2E/DX2                !
 ! A43   A(9,13,15)            122.2668         estimate D2E/DX2                !
 ! A44   A(9,13,43)            121.6316         estimate D2E/DX2                !
 ! A45   A(15,13,43)           108.5371         estimate D2E/DX2                !
 ! A46   A(12,14,16)           122.0286         estimate D2E/DX2                !
 ! A47   A(12,14,46)           121.8443         estimate D2E/DX2                !
 ! A48   A(16,14,46)           109.2225         estimate D2E/DX2                !
 ! A49   A(6,15,13)            109.203          estimate D2E/DX2                !
 ! A50   A(6,15,17)            121.6598         estimate D2E/DX2                !
 ! A51   A(13,15,17)           118.8152         estimate D2E/DX2                !
 ! A52   A(8,16,14)            108.3713         estimate D2E/DX2                !
 ! A53   A(8,16,18)            121.9126         estimate D2E/DX2                !
 ! A54   A(14,16,18)           121.1782         estimate D2E/DX2                !
 ! A55   A(1,17,15)            120.4254         estimate D2E/DX2                !
 ! A56   A(1,17,19)            108.8493         estimate D2E/DX2                !
 ! A57   A(15,17,19)           118.3762         estimate D2E/DX2                !
 ! A58   A(3,18,16)            116.3971         estimate D2E/DX2                !
 ! A59   A(3,18,20)            118.7087         estimate D2E/DX2                !
 ! A60   A(16,18,20)           117.8326         estimate D2E/DX2                !
 ! A61   A(17,19,21)           108.2206         estimate D2E/DX2                !
 ! A62   A(17,19,53)           119.1953         estimate D2E/DX2                !
 ! A63   A(21,19,53)           120.2427         estimate D2E/DX2                !
 ! A64   A(18,20,22)           117.8327         estimate D2E/DX2                !
 ! A65   A(18,20,54)           118.7088         estimate D2E/DX2                !
 ! A66   A(22,20,54)           116.3971         estimate D2E/DX2                !
 ! A67   A(19,21,23)           106.6045         estimate D2E/DX2                !
 ! A68   A(19,21,57)           121.619          estimate D2E/DX2                !
 ! A69   A(23,21,57)           121.8162         estimate D2E/DX2                !
 ! A70   A(20,22,24)           121.9126         estimate D2E/DX2                !
 ! A71   A(20,22,58)           121.1782         estimate D2E/DX2                !
 ! A72   A(24,22,58)           108.3712         estimate D2E/DX2                !
 ! A73   A(1,23,21)            108.9416         estimate D2E/DX2                !
 ! A74   A(1,23,25)            120.5816         estimate D2E/DX2                !
 ! A75   A(21,23,25)           119.7816         estimate D2E/DX2                !
 ! A76   A(22,24,26)           120.3494         estimate D2E/DX2                !
 ! A77   A(22,24,62)           110.1827         estimate D2E/DX2                !
 ! A78   A(26,24,62)           121.6244         estimate D2E/DX2                !
 ! A79   A(23,25,27)           121.3768         estimate D2E/DX2                !
 ! A80   A(23,25,61)           119.3106         estimate D2E/DX2                !
 ! A81   A(27,25,61)           111.877          estimate D2E/DX2                !
 ! A82   A(3,26,24)            119.1378         estimate D2E/DX2                !
 ! A83   A(3,26,28)            110.8689         estimate D2E/DX2                !
 ! A84   A(24,26,28)           122.9211         estimate D2E/DX2                !
 ! A85   A(25,27,29)           112.1052         estimate D2E/DX2                !
 ! A86   A(25,27,65)           100.8326         estimate D2E/DX2                !
 ! A87   A(25,27,93)           112.0634         estimate D2E/DX2                !
 ! A88   A(29,27,65)           109.2168         estimate D2E/DX2                !
 ! A89   A(29,27,93)           110.2248         estimate D2E/DX2                !
 ! A90   A(65,27,93)           112.0802         estimate D2E/DX2                !
 ! A91   A(26,28,30)           100.9891         estimate D2E/DX2                !
 ! A92   A(26,28,66)           110.5048         estimate D2E/DX2                !
 ! A93   A(26,28,89)           112.8996         estimate D2E/DX2                !
 ! A94   A(30,28,66)           109.2367         estimate D2E/DX2                !
 ! A95   A(30,28,89)           113.7571         estimate D2E/DX2                !
 ! A96   A(66,28,89)           109.2078         estimate D2E/DX2                !
 ! A97   A(5,29,27)            122.0036         estimate D2E/DX2                !
 ! A98   A(5,29,31)            119.5965         estimate D2E/DX2                !
 ! A99   A(27,29,31)           116.4066         estimate D2E/DX2                !
 ! A100  A(7,30,28)            111.3763         estimate D2E/DX2                !
 ! A101  A(7,30,32)            119.2165         estimate D2E/DX2                !
 ! A102  A(28,30,32)           122.5035         estimate D2E/DX2                !
 ! A103  A(29,31,33)           121.2345         estimate D2E/DX2                !
 ! A104  A(29,31,69)           124.8542         estimate D2E/DX2                !
 ! A105  A(33,31,69)           109.913          estimate D2E/DX2                !
 ! A106  A(30,32,34)           120.0999         estimate D2E/DX2                !
 ! A107  A(30,32,70)           121.5558         estimate D2E/DX2                !
 ! A108  A(34,32,70)           111.7687         estimate D2E/DX2                !
 ! A109  A(31,33,35)           121.6316         estimate D2E/DX2                !
 ! A110  A(31,33,73)           108.5371         estimate D2E/DX2                !
 ! A111  A(35,33,73)           122.2668         estimate D2E/DX2                !
 ! A112  A(32,34,36)           122.5509         estimate D2E/DX2                !
 ! A113  A(32,34,74)           107.4188         estimate D2E/DX2                !
 ! A114  A(36,34,74)           121.7415         estimate D2E/DX2                !
 ! A115  A(9,35,33)            116.7886         estimate D2E/DX2                !
 ! A116  A(9,35,37)            120.857          estimate D2E/DX2                !
 ! A117  A(33,35,37)           118.6299         estimate D2E/DX2                !
 ! A118  A(12,36,34)           116.2827         estimate D2E/DX2                !
 ! A119  A(12,36,38)           119.4174         estimate D2E/DX2                !
 ! A120  A(34,36,38)           118.9205         estimate D2E/DX2                !
 ! A121  A(35,37,39)           118.7911         estimate D2E/DX2                !
 ! A122  A(35,37,77)           118.4014         estimate D2E/DX2                !
 ! A123  A(39,37,77)           118.379          estimate D2E/DX2                !
 ! A124  A(36,38,42)           119.3461         estimate D2E/DX2                !
 ! A125  A(36,38,78)           118.1915         estimate D2E/DX2                !
 ! A126  A(42,38,78)           116.9821         estimate D2E/DX2                !
 ! A127  A(37,39,43)           119.5965         estimate D2E/DX2                !
 ! A128  A(37,39,79)           122.0036         estimate D2E/DX2                !
 ! A129  A(43,39,79)           116.4067         estimate D2E/DX2                !
 ! A130  A(41,40,44)           120.8375         estimate D2E/DX2                !
 ! A131  A(41,40,79)           109.9362         estimate D2E/DX2                !
 ! A132  A(44,40,79)           125.3795         estimate D2E/DX2                !
 ! A133  A(40,41,45)           121.0236         estimate D2E/DX2                !
 ! A134  A(40,41,80)           109.2261         estimate D2E/DX2                !
 ! A135  A(45,41,80)           124.1379         estimate D2E/DX2                !
 ! A136  A(38,42,46)           119.6491         estimate D2E/DX2                !
 ! A137  A(38,42,80)           118.9647         estimate D2E/DX2                !
 ! A138  A(46,42,80)           115.6971         estimate D2E/DX2                !
 ! A139  A(2,43,13)            109.913          estimate D2E/DX2                !
 ! A140  A(2,43,39)            124.8542         estimate D2E/DX2                !
 ! A141  A(13,43,39)           121.2345         estimate D2E/DX2                !
 ! A142  A(2,44,40)            115.4353         estimate D2E/DX2                !
 ! A143  A(2,44,47)            124.0262         estimate D2E/DX2                !
 ! A144  A(40,44,47)           119.0009         estimate D2E/DX2                !
 ! A145  A(4,45,41)            115.5376         estimate D2E/DX2                !
 ! A146  A(4,45,48)            124.4193         estimate D2E/DX2                !
 ! A147  A(41,45,48)           118.7863         estimate D2E/DX2                !
 ! A148  A(4,46,14)            109.7472         estimate D2E/DX2                !
 ! A149  A(4,46,42)            124.5408         estimate D2E/DX2                !
 ! A150  A(14,46,42)           120.5365         estimate D2E/DX2                !
 ! A151  A(44,47,48)           120.0141         estimate D2E/DX2                !
 ! A152  A(44,47,49)           118.9032         estimate D2E/DX2                !
 ! A153  A(48,47,49)           120.4868         estimate D2E/DX2                !
 ! A154  A(45,48,47)           120.2697         estimate D2E/DX2                !
 ! A155  A(45,48,50)           118.3121         estimate D2E/DX2                !
 ! A156  A(47,48,50)           120.6989         estimate D2E/DX2                !
 ! A157  A(10,49,47)           110.7925         estimate D2E/DX2                !
 ! A158  A(10,49,51)           101.239          estimate D2E/DX2                !
 ! A159  A(10,49,86)           113.1155         estimate D2E/DX2                !
 ! A160  A(47,49,51)           109.2962         estimate D2E/DX2                !
 ! A161  A(47,49,86)           108.8202         estimate D2E/DX2                !
 ! A162  A(51,49,86)           113.3908         estimate D2E/DX2                !
 ! A163  A(11,50,48)           110.5048         estimate D2E/DX2                !
 ! A164  A(11,50,52)           100.9891         estimate D2E/DX2                !
 ! A165  A(11,50,87)           112.8996         estimate D2E/DX2                !
 ! A166  A(48,50,52)           109.2367         estimate D2E/DX2                !
 ! A167  A(48,50,87)           109.2078         estimate D2E/DX2                !
 ! A168  A(52,50,87)           113.7571         estimate D2E/DX2                !
 ! A169  A(49,51,52)           121.5558         estimate D2E/DX2                !
 ! A170  A(49,51,55)           111.7687         estimate D2E/DX2                !
 ! A171  A(52,51,55)           120.0999         estimate D2E/DX2                !
 ! A172  A(50,52,51)           122.5035         estimate D2E/DX2                !
 ! A173  A(50,52,56)           111.3763         estimate D2E/DX2                !
 ! A174  A(51,52,56)           119.2164         estimate D2E/DX2                !
 ! A175  A(10,53,19)           121.7426         estimate D2E/DX2                !
 ! A176  A(10,53,55)           109.2937         estimate D2E/DX2                !
 ! A177  A(19,53,55)           119.1304         estimate D2E/DX2                !
 ! A178  A(11,54,20)           121.9332         estimate D2E/DX2                !
 ! A179  A(11,54,56)           108.458          estimate D2E/DX2                !
 ! A180  A(20,54,56)           121.6253         estimate D2E/DX2                !
 ! A181  A(51,55,53)           107.4188         estimate D2E/DX2                !
 ! A182  A(51,55,83)           122.5508         estimate D2E/DX2                !
 ! A183  A(53,55,83)           121.7414         estimate D2E/DX2                !
 ! A184  A(52,56,54)           108.0612         estimate D2E/DX2                !
 ! A185  A(52,56,84)           121.7375         estimate D2E/DX2                !
 ! A186  A(54,56,84)           122.0452         estimate D2E/DX2                !
 ! A187  A(21,57,59)           116.9821         estimate D2E/DX2                !
 ! A188  A(21,57,83)           118.1914         estimate D2E/DX2                !
 ! A189  A(59,57,83)           119.3461         estimate D2E/DX2                !
 ! A190  A(22,58,60)           109.2226         estimate D2E/DX2                !
 ! A191  A(22,58,84)           122.0286         estimate D2E/DX2                !
 ! A192  A(60,58,84)           121.8444         estimate D2E/DX2                !
 ! A193  A(57,59,60)           119.6491         estimate D2E/DX2                !
 ! A194  A(57,59,61)           118.9647         estimate D2E/DX2                !
 ! A195  A(60,59,61)           115.6971         estimate D2E/DX2                !
 ! A196  A(58,60,59)           120.5364         estimate D2E/DX2                !
 ! A197  A(58,60,62)           109.7471         estimate D2E/DX2                !
 ! A198  A(59,60,62)           124.5408         estimate D2E/DX2                !
 ! A199  A(25,61,59)           122.5047         estimate D2E/DX2                !
 ! A200  A(25,61,63)           107.073          estimate D2E/DX2                !
 ! A201  A(59,61,63)           119.5567         estimate D2E/DX2                !
 ! A202  A(24,62,60)           101.7109         estimate D2E/DX2                !
 ! A203  A(24,62,64)           110.3928         estimate D2E/DX2                !
 ! A204  A(24,62,94)           112.5277         estimate D2E/DX2                !
 ! A205  A(60,62,64)           111.2069         estimate D2E/DX2                !
 ! A206  A(60,62,94)           111.4589         estimate D2E/DX2                !
 ! A207  A(64,62,94)           109.3855         estimate D2E/DX2                !
 ! A208  A(61,63,64)           124.1379         estimate D2E/DX2                !
 ! A209  A(61,63,65)           109.2261         estimate D2E/DX2                !
 ! A210  A(64,63,65)           121.0237         estimate D2E/DX2                !
 ! A211  A(62,64,63)           115.5376         estimate D2E/DX2                !
 ! A212  A(62,64,66)           124.4192         estimate D2E/DX2                !
 ! A213  A(63,64,66)           118.7862         estimate D2E/DX2                !
 ! A214  A(27,65,63)           109.9362         estimate D2E/DX2                !
 ! A215  A(27,65,67)           125.3796         estimate D2E/DX2                !
 ! A216  A(63,65,67)           120.8375         estimate D2E/DX2                !
 ! A217  A(28,66,64)           118.312          estimate D2E/DX2                !
 ! A218  A(28,66,68)           120.699          estimate D2E/DX2                !
 ! A219  A(64,66,68)           120.2696         estimate D2E/DX2                !
 ! A220  A(65,67,68)           119.0009         estimate D2E/DX2                !
 ! A221  A(65,67,69)           115.4353         estimate D2E/DX2                !
 ! A222  A(68,67,69)           124.0262         estimate D2E/DX2                !
 ! A223  A(66,68,67)           120.0142         estimate D2E/DX2                !
 ! A224  A(66,68,70)           120.4867         estimate D2E/DX2                !
 ! A225  A(67,68,70)           118.9032         estimate D2E/DX2                !
 ! A226  A(31,69,67)           108.8376         estimate D2E/DX2                !
 ! A227  A(31,69,71)           101.6652         estimate D2E/DX2                !
 ! A228  A(31,69,92)           112.2219         estimate D2E/DX2                !
 ! A229  A(67,69,71)           110.7185         estimate D2E/DX2                !
 ! A230  A(67,69,92)           110.1466         estimate D2E/DX2                !
 ! A231  A(71,69,92)           112.9386         estimate D2E/DX2                !
 ! A232  A(32,70,68)           109.2962         estimate D2E/DX2                !
 ! A233  A(32,70,72)           101.2389         estimate D2E/DX2                !
 ! A234  A(32,70,90)           113.3908         estimate D2E/DX2                !
 ! A235  A(68,70,72)           110.7925         estimate D2E/DX2                !
 ! A236  A(68,70,90)           108.8203         estimate D2E/DX2                !
 ! A237  A(72,70,90)           113.1155         estimate D2E/DX2                !
 ! A238  A(69,71,72)           122.56           estimate D2E/DX2                !
 ! A239  A(69,71,73)           109.524          estimate D2E/DX2                !
 ! A240  A(72,71,73)           119.6673         estimate D2E/DX2                !
 ! A241  A(70,72,71)           123.3216         estimate D2E/DX2                !
 ! A242  A(70,72,74)           109.6598         estimate D2E/DX2                !
 ! A243  A(71,72,74)           119.0427         estimate D2E/DX2                !
 ! A244  A(33,73,71)           109.203          estimate D2E/DX2                !
 ! A245  A(33,73,75)           118.8152         estimate D2E/DX2                !
 ! A246  A(71,73,75)           121.6599         estimate D2E/DX2                !
 ! A247  A(34,74,72)           109.2936         estimate D2E/DX2                !
 ! A248  A(34,74,76)           119.1303         estimate D2E/DX2                !
 ! A249  A(72,74,76)           121.7426         estimate D2E/DX2                !
 ! A250  A(73,75,76)           118.3761         estimate D2E/DX2                !
 ! A251  A(73,75,77)           120.4254         estimate D2E/DX2                !
 ! A252  A(76,75,77)           108.8492         estimate D2E/DX2                !
 ! A253  A(74,76,75)           119.1953         estimate D2E/DX2                !
 ! A254  A(74,76,78)           120.2427         estimate D2E/DX2                !
 ! A255  A(75,76,78)           108.2206         estimate D2E/DX2                !
 ! A256  A(37,77,75)           121.3724         estimate D2E/DX2                !
 ! A257  A(37,77,81)           120.3376         estimate D2E/DX2                !
 ! A258  A(75,77,81)           106.4103         estimate D2E/DX2                !
 ! A259  A(38,78,76)           121.6189         estimate D2E/DX2                !
 ! A260  A(38,78,81)           121.8161         estimate D2E/DX2                !
 ! A261  A(76,78,81)           106.6045         estimate D2E/DX2                !
 ! A262  A(39,79,40)           109.2168         estimate D2E/DX2                !
 ! A263  A(39,79,82)           112.1052         estimate D2E/DX2                !
 ! A264  A(39,79,88)           110.2248         estimate D2E/DX2                !
 ! A265  A(40,79,82)           100.8326         estimate D2E/DX2                !
 ! A266  A(40,79,88)           112.0802         estimate D2E/DX2                !
 ! A267  A(82,79,88)           112.0635         estimate D2E/DX2                !
 ! A268  A(41,80,42)           119.5568         estimate D2E/DX2                !
 ! A269  A(41,80,82)           107.073          estimate D2E/DX2                !
 ! A270  A(42,80,82)           122.5048         estimate D2E/DX2                !
 ! A271  A(77,81,78)           108.9416         estimate D2E/DX2                !
 ! A272  A(77,81,82)           120.5816         estimate D2E/DX2                !
 ! A273  A(78,81,82)           119.7816         estimate D2E/DX2                !
 ! A274  A(79,82,80)           111.877          estimate D2E/DX2                !
 ! A275  A(79,82,81)           121.3768         estimate D2E/DX2                !
 ! A276  A(80,82,81)           119.3106         estimate D2E/DX2                !
 ! A277  A(55,83,57)           118.9206         estimate D2E/DX2                !
 ! A278  A(55,83,84)           116.2827         estimate D2E/DX2                !
 ! A279  A(57,83,84)           119.4174         estimate D2E/DX2                !
 ! A280  A(56,84,58)           115.7313         estimate D2E/DX2                !
 ! A281  A(56,84,83)           119.8177         estimate D2E/DX2                !
 ! A282  A(58,84,83)           118.9602         estimate D2E/DX2                !
 ! D1    D(17,1,5,9)             2.7148         estimate D2E/DX2                !
 ! D2    D(17,1,5,29)         -153.4086         estimate D2E/DX2                !
 ! D3    D(23,1,5,9)           140.4655         estimate D2E/DX2                !
 ! D4    D(23,1,5,29)          -15.6579         estimate D2E/DX2                !
 ! D5    D(5,1,17,15)           -3.6968         estimate D2E/DX2                !
 ! D6    D(5,1,17,19)          137.8288         estimate D2E/DX2                !
 ! D7    D(23,1,17,15)        -146.473          estimate D2E/DX2                !
 ! D8    D(23,1,17,19)          -4.9474         estimate D2E/DX2                !
 ! D9    D(5,1,23,21)         -133.9172         estimate D2E/DX2                !
 ! D10   D(5,1,23,25)           10.4519         estimate D2E/DX2                !
 ! D11   D(17,1,23,21)           9.3247         estimate D2E/DX2                !
 ! D12   D(17,1,23,25)         153.6939         estimate D2E/DX2                !
 ! D13   D(43,2,6,10)         -137.4087         estimate D2E/DX2                !
 ! D14   D(43,2,6,15)           10.7502         estimate D2E/DX2                !
 ! D15   D(44,2,6,10)          -21.9042         estimate D2E/DX2                !
 ! D16   D(44,2,6,15)          126.2547         estimate D2E/DX2                !
 ! D17   D(85,2,6,10)          102.1467         estimate D2E/DX2                !
 ! D18   D(85,2,6,15)         -109.6944         estimate D2E/DX2                !
 ! D19   D(6,2,43,13)           -8.0839         estimate D2E/DX2                !
 ! D20   D(6,2,43,39)          149.4885         estimate D2E/DX2                !
 ! D21   D(44,2,43,13)        -124.9634         estimate D2E/DX2                !
 ! D22   D(44,2,43,39)          32.609          estimate D2E/DX2                !
 ! D23   D(85,2,43,13)         112.8627         estimate D2E/DX2                !
 ! D24   D(85,2,43,39)         -89.5649         estimate D2E/DX2                !
 ! D25   D(6,2,44,40)         -148.0073         estimate D2E/DX2                !
 ! D26   D(6,2,44,47)           17.6605         estimate D2E/DX2                !
 ! D27   D(43,2,44,40)         -37.0638         estimate D2E/DX2                !
 ! D28   D(43,2,44,47)         128.6039         estimate D2E/DX2                !
 ! D29   D(85,2,44,40)          86.3582         estimate D2E/DX2                !
 ! D30   D(85,2,44,47)        -107.974          estimate D2E/DX2                !
 ! D31   D(18,3,7,12)            3.1446         estimate D2E/DX2                !
 ! D32   D(18,3,7,30)          152.1125         estimate D2E/DX2                !
 ! D33   D(26,3,7,12)         -146.2189         estimate D2E/DX2                !
 ! D34   D(26,3,7,30)            2.7491         estimate D2E/DX2                !
 ! D35   D(7,3,18,16)            6.1403         estimate D2E/DX2                !
 ! D36   D(7,3,18,20)         -143.8715         estimate D2E/DX2                !
 ! D37   D(26,3,18,16)         151.42           estimate D2E/DX2                !
 ! D38   D(26,3,18,20)           1.4082         estimate D2E/DX2                !
 ! D39   D(7,3,26,24)          146.5161         estimate D2E/DX2                !
 ! D40   D(7,3,26,28)           -4.9381         estimate D2E/DX2                !
 ! D41   D(18,3,26,24)          -2.7341         estimate D2E/DX2                !
 ! D42   D(18,3,26,28)        -154.1883         estimate D2E/DX2                !
 ! D43   D(45,4,8,11)           23.42           estimate D2E/DX2                !
 ! D44   D(45,4,8,16)         -125.7353         estimate D2E/DX2                !
 ! D45   D(46,4,8,11)          141.5313         estimate D2E/DX2                !
 ! D46   D(46,4,8,16)           -7.6241         estimate D2E/DX2                !
 ! D47   D(91,4,8,11)          -99.0981         estimate D2E/DX2                !
 ! D48   D(91,4,8,16)          111.7465         estimate D2E/DX2                !
 ! D49   D(8,4,45,41)          144.6768         estimate D2E/DX2                !
 ! D50   D(8,4,45,48)          -22.3123         estimate D2E/DX2                !
 ! D51   D(46,4,45,41)          32.5587         estimate D2E/DX2                !
 ! D52   D(46,4,45,48)        -134.4304         estimate D2E/DX2                !
 ! D53   D(91,4,45,41)         -90.9815         estimate D2E/DX2                !
 ! D54   D(91,4,45,48)         102.0294         estimate D2E/DX2                !
 ! D55   D(8,4,46,14)            8.7701         estimate D2E/DX2                !
 ! D56   D(8,4,46,42)         -145.7128         estimate D2E/DX2                !
 ! D57   D(45,4,46,14)         126.2953         estimate D2E/DX2                !
 ! D58   D(45,4,46,42)         -28.1875         estimate D2E/DX2                !
 ! D59   D(91,4,46,14)        -111.3559         estimate D2E/DX2                !
 ! D60   D(91,4,46,42)          94.1612         estimate D2E/DX2                !
 ! D61   D(1,5,9,13)            -0.3519         estimate D2E/DX2                !
 ! D62   D(1,5,9,35)          -157.9158         estimate D2E/DX2                !
 ! D63   D(29,5,9,13)          155.6719         estimate D2E/DX2                !
 ! D64   D(29,5,9,35)           -1.892          estimate D2E/DX2                !
 ! D65   D(1,5,29,27)            0.417          estimate D2E/DX2                !
 ! D66   D(1,5,29,31)          163.7756         estimate D2E/DX2                !
 ! D67   D(9,5,29,27)         -155.6122         estimate D2E/DX2                !
 ! D68   D(9,5,29,31)            7.7464         estimate D2E/DX2                !
 ! D69   D(2,6,10,49)            0.0126         estimate D2E/DX2                !
 ! D70   D(2,6,10,53)          145.6607         estimate D2E/DX2                !
 ! D71   D(15,6,10,49)        -145.0805         estimate D2E/DX2                !
 ! D72   D(15,6,10,53)           0.5676         estimate D2E/DX2                !
 ! D73   D(2,6,15,13)           -9.9619         estimate D2E/DX2                !
 ! D74   D(2,6,15,17)         -154.4895         estimate D2E/DX2                !
 ! D75   D(10,6,15,13)         139.2591         estimate D2E/DX2                !
 ! D76   D(10,6,15,17)          -5.2684         estimate D2E/DX2                !
 ! D77   D(3,7,12,14)           -8.3291         estimate D2E/DX2                !
 ! D78   D(3,7,12,36)          145.2726         estimate D2E/DX2                !
 ! D79   D(30,7,12,14)        -153.1391         estimate D2E/DX2                !
 ! D80   D(30,7,12,36)           0.4627         estimate D2E/DX2                !
 ! D81   D(3,7,30,28)            0.4596         estimate D2E/DX2                !
 ! D82   D(3,7,30,32)         -151.1906         estimate D2E/DX2                !
 ! D83   D(12,7,30,28)         149.5424         estimate D2E/DX2                !
 ! D84   D(12,7,30,32)          -2.1077         estimate D2E/DX2                !
 ! D85   D(4,8,11,50)            2.5171         estimate D2E/DX2                !
 ! D86   D(4,8,11,54)         -145.347          estimate D2E/DX2                !
 ! D87   D(16,8,11,50)         148.6237         estimate D2E/DX2                !
 ! D88   D(16,8,11,54)           0.7595         estimate D2E/DX2                !
 ! D89   D(4,8,16,14)            3.9997         estimate D2E/DX2                !
 ! D90   D(4,8,16,18)          152.1515         estimate D2E/DX2                !
 ! D91   D(11,8,16,14)        -145.6089         estimate D2E/DX2                !
 ! D92   D(11,8,16,18)           2.543          estimate D2E/DX2                !
 ! D93   D(5,9,13,15)           -1.1014         estimate D2E/DX2                !
 ! D94   D(5,9,13,43)         -147.2495         estimate D2E/DX2                !
 ! D95   D(35,9,13,15)         157.3667         estimate D2E/DX2                !
 ! D96   D(35,9,13,43)          11.2185         estimate D2E/DX2                !
 ! D97   D(5,9,35,33)           -7.3288         estimate D2E/DX2                !
 ! D98   D(5,9,35,37)          150.6307         estimate D2E/DX2                !
 ! D99   D(13,9,35,33)        -165.2881         estimate D2E/DX2                !
 ! D100  D(13,9,35,37)          -7.3287         estimate D2E/DX2                !
 ! D101  D(6,10,49,47)          25.8334         estimate D2E/DX2                !
 ! D102  D(6,10,49,51)         141.672          estimate D2E/DX2                !
 ! D103  D(6,10,49,86)         -96.6653         estimate D2E/DX2                !
 ! D104  D(53,10,49,47)       -122.5752         estimate D2E/DX2                !
 ! D105  D(53,10,49,51)         -6.7366         estimate D2E/DX2                !
 ! D106  D(53,10,49,86)        114.9261         estimate D2E/DX2                !
 ! D107  D(6,10,53,19)           3.8226         estimate D2E/DX2                !
 ! D108  D(6,10,53,55)        -141.5686         estimate D2E/DX2                !
 ! D109  D(49,10,53,19)        153.7766         estimate D2E/DX2                !
 ! D110  D(49,10,53,55)          8.3854         estimate D2E/DX2                !
 ! D111  D(8,11,50,48)         -29.772          estimate D2E/DX2                !
 ! D112  D(8,11,50,52)        -145.2998         estimate D2E/DX2                !
 ! D113  D(8,11,50,87)          92.862          estimate D2E/DX2                !
 ! D114  D(54,11,50,48)        120.4109         estimate D2E/DX2                !
 ! D115  D(54,11,50,52)          4.8831         estimate D2E/DX2                !
 ! D116  D(54,11,50,87)       -116.955          estimate D2E/DX2                !
 ! D117  D(8,11,54,20)          -2.7338         estimate D2E/DX2                !
 ! D118  D(8,11,54,56)         146.5162         estimate D2E/DX2                !
 ! D119  D(50,11,54,20)       -154.1882         estimate D2E/DX2                !
 ! D120  D(50,11,54,56)         -4.9382         estimate D2E/DX2                !
 ! D121  D(7,12,14,16)           4.5027         estimate D2E/DX2                !
 ! D122  D(7,12,14,46)         152.2491         estimate D2E/DX2                !
 ! D123  D(36,12,14,16)       -149.3375         estimate D2E/DX2                !
 ! D124  D(36,12,14,46)         -1.5911         estimate D2E/DX2                !
 ! D125  D(7,12,36,34)           3.7072         estimate D2E/DX2                !
 ! D126  D(7,12,36,38)        -150.1451         estimate D2E/DX2                !
 ! D127  D(14,12,36,34)        156.4645         estimate D2E/DX2                !
 ! D128  D(14,12,36,38)          2.6122         estimate D2E/DX2                !
 ! D129  D(9,13,15,6)         -145.491          estimate D2E/DX2                !
 ! D130  D(9,13,15,17)           0.1932         estimate D2E/DX2                !
 ! D131  D(43,13,15,6)           4.4928         estimate D2E/DX2                !
 ! D132  D(43,13,15,17)        150.177          estimate D2E/DX2                !
 ! D133  D(9,13,43,2)          152.819          estimate D2E/DX2                !
 ! D134  D(9,13,43,39)          -5.7028         estimate D2E/DX2                !
 ! D135  D(15,13,43,2)           2.6074         estimate D2E/DX2                !
 ! D136  D(15,13,43,39)       -155.9144         estimate D2E/DX2                !
 ! D137  D(12,14,16,8)         153.1782         estimate D2E/DX2                !
 ! D138  D(12,14,16,18)          4.7479         estimate D2E/DX2                !
 ! D139  D(46,14,16,8)           1.8709         estimate D2E/DX2                !
 ! D140  D(46,14,16,18)       -146.5595         estimate D2E/DX2                !
 ! D141  D(12,14,46,4)        -158.2945         estimate D2E/DX2                !
 ! D142  D(12,14,46,42)         -2.6241         estimate D2E/DX2                !
 ! D143  D(16,14,46,4)          -6.9244         estimate D2E/DX2                !
 ! D144  D(16,14,46,42)        148.7461         estimate D2E/DX2                !
 ! D145  D(6,15,17,1)          143.4604         estimate D2E/DX2                !
 ! D146  D(6,15,17,19)           5.4663         estimate D2E/DX2                !
 ! D147  D(13,15,17,1)           2.1769         estimate D2E/DX2                !
 ! D148  D(13,15,17,19)       -135.8172         estimate D2E/DX2                !
 ! D149  D(8,16,18,3)         -154.0703         estimate D2E/DX2                !
 ! D150  D(8,16,18,20)          -3.7881         estimate D2E/DX2                !
 ! D151  D(14,16,18,3)          -9.8959         estimate D2E/DX2                !
 ! D152  D(14,16,18,20)        140.3863         estimate D2E/DX2                !
 ! D153  D(1,17,19,21)          -1.1803         estimate D2E/DX2                !
 ! D154  D(1,17,19,53)        -143.4923         estimate D2E/DX2                !
 ! D155  D(15,17,19,21)        141.2483         estimate D2E/DX2                !
 ! D156  D(15,17,19,53)         -1.0637         estimate D2E/DX2                !
 ! D157  D(3,18,20,22)           1.7929         estimate D2E/DX2                !
 ! D158  D(3,18,20,54)         151.3772         estimate D2E/DX2                !
 ! D159  D(16,18,20,22)       -147.791          estimate D2E/DX2                !
 ! D160  D(16,18,20,54)          1.7932         estimate D2E/DX2                !
 ! D161  D(17,19,21,23)          6.8822         estimate D2E/DX2                !
 ! D162  D(17,19,21,57)       -139.1782         estimate D2E/DX2                !
 ! D163  D(53,19,21,23)        148.7285         estimate D2E/DX2                !
 ! D164  D(53,19,21,57)          2.668          estimate D2E/DX2                !
 ! D165  D(17,19,53,10)         -3.5625         estimate D2E/DX2                !
 ! D166  D(17,19,53,55)        138.5803         estimate D2E/DX2                !
 ! D167  D(21,19,53,10)       -141.326          estimate D2E/DX2                !
 ! D168  D(21,19,53,55)          0.8168         estimate D2E/DX2                !
 ! D169  D(18,20,22,24)         -3.7878         estimate D2E/DX2                !
 ! D170  D(18,20,22,58)        140.3863         estimate D2E/DX2                !
 ! D171  D(54,20,22,24)       -154.0704         estimate D2E/DX2                !
 ! D172  D(54,20,22,58)         -9.8962         estimate D2E/DX2                !
 ! D173  D(18,20,54,11)          1.4079         estimate D2E/DX2                !
 ! D174  D(18,20,54,56)       -143.8715         estimate D2E/DX2                !
 ! D175  D(22,20,54,11)        151.42           estimate D2E/DX2                !
 ! D176  D(22,20,54,56)          6.1406         estimate D2E/DX2                !
 ! D177  D(19,21,23,1)         -10.0423         estimate D2E/DX2                !
 ! D178  D(19,21,23,25)       -154.743          estimate D2E/DX2                !
 ! D179  D(57,21,23,1)         135.936          estimate D2E/DX2                !
 ! D180  D(57,21,23,25)         -8.7647         estimate D2E/DX2                !
 ! D181  D(19,21,57,59)        150.5292         estimate D2E/DX2                !
 ! D182  D(19,21,57,83)         -3.2192         estimate D2E/DX2                !
 ! D183  D(23,21,57,59)          9.5531         estimate D2E/DX2                !
 ! D184  D(23,21,57,83)       -144.1954         estimate D2E/DX2                !
 ! D185  D(20,22,24,26)          2.5428         estimate D2E/DX2                !
 ! D186  D(20,22,24,62)        152.1515         estimate D2E/DX2                !
 ! D187  D(58,22,24,26)       -145.6089         estimate D2E/DX2                !
 ! D188  D(58,22,24,62)          3.9998         estimate D2E/DX2                !
 ! D189  D(20,22,58,60)       -146.5597         estimate D2E/DX2                !
 ! D190  D(20,22,58,84)          4.7482         estimate D2E/DX2                !
 ! D191  D(24,22,58,60)          1.8705         estimate D2E/DX2                !
 ! D192  D(24,22,58,84)        153.1783         estimate D2E/DX2                !
 ! D193  D(1,23,25,27)          10.5813         estimate D2E/DX2                !
 ! D194  D(1,23,25,61)        -136.8659         estimate D2E/DX2                !
 ! D195  D(21,23,25,27)        151.1714         estimate D2E/DX2                !
 ! D196  D(21,23,25,61)          3.7242         estimate D2E/DX2                !
 ! D197  D(22,24,26,3)           0.7597         estimate D2E/DX2                !
 ! D198  D(22,24,26,28)        148.6238         estimate D2E/DX2                !
 ! D199  D(62,24,26,3)        -145.347          estimate D2E/DX2                !
 ! D200  D(62,24,26,28)          2.517          estimate D2E/DX2                !
 ! D201  D(22,24,62,60)         -7.624          estimate D2E/DX2                !
 ! D202  D(22,24,62,64)       -125.7354         estimate D2E/DX2                !
 ! D203  D(22,24,62,94)        111.7464         estimate D2E/DX2                !
 ! D204  D(26,24,62,60)        141.5315         estimate D2E/DX2                !
 ! D205  D(26,24,62,64)         23.4201         estimate D2E/DX2                !
 ! D206  D(26,24,62,94)        -99.0981         estimate D2E/DX2                !
 ! D207  D(23,25,27,29)        -23.6637         estimate D2E/DX2                !
 ! D208  D(23,25,27,65)       -139.7307         estimate D2E/DX2                !
 ! D209  D(23,25,27,93)        100.8943         estimate D2E/DX2                !
 ! D210  D(61,25,27,29)        125.965          estimate D2E/DX2                !
 ! D211  D(61,25,27,65)          9.898          estimate D2E/DX2                !
 ! D212  D(61,25,27,93)       -109.477          estimate D2E/DX2                !
 ! D213  D(23,25,61,59)         -0.0692         estimate D2E/DX2                !
 ! D214  D(23,25,61,63)        143.7903         estimate D2E/DX2                !
 ! D215  D(27,25,61,59)       -150.3969         estimate D2E/DX2                !
 ! D216  D(27,25,61,63)         -6.5374         estimate D2E/DX2                !
 ! D217  D(3,26,28,30)           4.8831         estimate D2E/DX2                !
 ! D218  D(3,26,28,66)         120.4109         estimate D2E/DX2                !
 ! D219  D(3,26,28,89)        -116.955          estimate D2E/DX2                !
 ! D220  D(24,26,28,30)       -145.2998         estimate D2E/DX2                !
 ! D221  D(24,26,28,66)        -29.772          estimate D2E/DX2                !
 ! D222  D(24,26,28,89)         92.8622         estimate D2E/DX2                !
 ! D223  D(25,27,29,5)          18.1603         estimate D2E/DX2                !
 ! D224  D(25,27,29,31)       -145.6974         estimate D2E/DX2                !
 ! D225  D(65,27,29,5)         129.0393         estimate D2E/DX2                !
 ! D226  D(65,27,29,31)        -34.8184         estimate D2E/DX2                !
 ! D227  D(93,27,29,5)        -107.4109         estimate D2E/DX2                !
 ! D228  D(93,27,29,31)         88.7314         estimate D2E/DX2                !
 ! D229  D(25,27,65,63)         -9.7585         estimate D2E/DX2                !
 ! D230  D(25,27,65,67)        148.1149         estimate D2E/DX2                !
 ! D231  D(29,27,65,63)       -127.9514         estimate D2E/DX2                !
 ! D232  D(29,27,65,67)         29.9219         estimate D2E/DX2                !
 ! D233  D(93,27,65,63)        109.6044         estimate D2E/DX2                !
 ! D234  D(93,27,65,67)        -92.5223         estimate D2E/DX2                !
 ! D235  D(26,28,30,7)          -3.1701         estimate D2E/DX2                !
 ! D236  D(26,28,30,32)        147.3958         estimate D2E/DX2                !
 ! D237  D(66,28,30,7)        -119.6378         estimate D2E/DX2                !
 ! D238  D(66,28,30,32)         30.9282         estimate D2E/DX2                !
 ! D239  D(89,28,30,7)         118.0653         estimate D2E/DX2                !
 ! D240  D(89,28,30,32)        -91.3688         estimate D2E/DX2                !
 ! D241  D(26,28,66,64)         30.0212         estimate D2E/DX2                !
 ! D242  D(26,28,66,68)       -140.2872         estimate D2E/DX2                !
 ! D243  D(30,28,66,64)        140.2674         estimate D2E/DX2                !
 ! D244  D(30,28,66,68)        -30.041          estimate D2E/DX2                !
 ! D245  D(89,28,66,64)        -94.7443         estimate D2E/DX2                !
 ! D246  D(89,28,66,68)         94.9473         estimate D2E/DX2                !
 ! D247  D(5,29,31,33)          -4.1376         estimate D2E/DX2                !
 ! D248  D(5,29,31,69)        -159.3338         estimate D2E/DX2                !
 ! D249  D(27,29,31,33)        160.1299         estimate D2E/DX2                !
 ! D250  D(27,29,31,69)          4.9337         estimate D2E/DX2                !
 ! D251  D(7,30,32,34)          -0.6208         estimate D2E/DX2                !
 ! D252  D(7,30,32,70)         148.5898         estimate D2E/DX2                !
 ! D253  D(28,30,32,34)       -148.9985         estimate D2E/DX2                !
 ! D254  D(28,30,32,70)          0.2121         estimate D2E/DX2                !
 ! D255  D(29,31,33,35)         -5.7028         estimate D2E/DX2                !
 ! D256  D(29,31,33,73)       -155.9144         estimate D2E/DX2                !
 ! D257  D(69,31,33,35)        152.819          estimate D2E/DX2                !
 ! D258  D(69,31,33,73)          2.6074         estimate D2E/DX2                !
 ! D259  D(29,31,69,67)         32.609          estimate D2E/DX2                !
 ! D260  D(29,31,69,71)        149.4885         estimate D2E/DX2                !
 ! D261  D(29,31,69,92)        -89.5648         estimate D2E/DX2                !
 ! D262  D(33,31,69,67)       -124.9634         estimate D2E/DX2                !
 ! D263  D(33,31,69,71)         -8.0839         estimate D2E/DX2                !
 ! D264  D(33,31,69,92)        112.8627         estimate D2E/DX2                !
 ! D265  D(30,32,34,36)          5.1455         estimate D2E/DX2                !
 ! D266  D(30,32,34,74)        153.8383         estimate D2E/DX2                !
 ! D267  D(70,32,34,36)       -146.8406         estimate D2E/DX2                !
 ! D268  D(70,32,34,74)          1.8522         estimate D2E/DX2                !
 ! D269  D(30,32,70,68)        -31.6272         estimate D2E/DX2                !
 ! D270  D(30,32,70,72)       -148.5661         estimate D2E/DX2                !
 ! D271  D(30,32,70,90)         89.9638         estimate D2E/DX2                !
 ! D272  D(34,32,70,68)        119.8921         estimate D2E/DX2                !
 ! D273  D(34,32,70,72)          2.9532         estimate D2E/DX2                !
 ! D274  D(34,32,70,90)       -118.517          estimate D2E/DX2                !
 ! D275  D(31,33,35,9)          11.2186         estimate D2E/DX2                !
 ! D276  D(31,33,35,37)       -147.2495         estimate D2E/DX2                !
 ! D277  D(73,33,35,9)         157.3668         estimate D2E/DX2                !
 ! D278  D(73,33,35,37)         -1.1014         estimate D2E/DX2                !
 ! D279  D(31,33,73,71)          4.4928         estimate D2E/DX2                !
 ! D280  D(31,33,73,75)        150.1771         estimate D2E/DX2                !
 ! D281  D(35,33,73,71)       -145.491          estimate D2E/DX2                !
 ! D282  D(35,33,73,75)          0.1933         estimate D2E/DX2                !
 ! D283  D(32,34,36,12)         -6.5546         estimate D2E/DX2                !
 ! D284  D(32,34,36,38)        147.4334         estimate D2E/DX2                !
 ! D285  D(74,34,36,12)       -150.893          estimate D2E/DX2                !
 ! D286  D(74,34,36,38)          3.095          estimate D2E/DX2                !
 ! D287  D(32,34,74,72)         -6.2804         estimate D2E/DX2                !
 ! D288  D(32,34,74,76)       -152.7104         estimate D2E/DX2                !
 ! D289  D(36,34,74,72)        142.7199         estimate D2E/DX2                !
 ! D290  D(36,34,74,76)         -3.7101         estimate D2E/DX2                !
 ! D291  D(9,35,37,39)          -1.8921         estimate D2E/DX2                !
 ! D292  D(9,35,37,77)        -157.9159         estimate D2E/DX2                !
 ! D293  D(33,35,37,39)        155.6719         estimate D2E/DX2                !
 ! D294  D(33,35,37,77)         -0.3519         estimate D2E/DX2                !
 ! D295  D(12,36,38,42)          0.4152         estimate D2E/DX2                !
 ! D296  D(12,36,38,78)        153.5308         estimate D2E/DX2                !
 ! D297  D(34,36,38,42)       -152.7497         estimate D2E/DX2                !
 ! D298  D(34,36,38,78)          0.366          estimate D2E/DX2                !
 ! D299  D(35,37,39,43)          7.7464         estimate D2E/DX2                !
 ! D300  D(35,37,39,79)       -155.6123         estimate D2E/DX2                !
[...]
 Alpha virt. eigenvalues --    1.33417   1.33741   1.33856   1.34497   1.34956
 Alpha virt. eigenvalues --    1.35027   1.35210   1.36081   1.36199   1.36400
 Alpha virt. eigenvalues --    1.36625   1.37118   1.37488   1.38531   1.38893
 Alpha virt. eigenvalues --    1.39279   1.40431   1.40631   1.40718   1.41477
 Alpha virt. eigenvalues --    1.41910   1.42397   1.42803   1.42954   1.43544
 Alpha virt. eigenvalues --    1.44011   1.44472   1.45249   1.45549   1.45902
 Alpha virt. eigenvalues --    1.46241   1.46687   1.47021   1.47684   1.48843
 Alpha virt. eigenvalues --    1.49196   1.49895   1.49932   1.50697   1.51231
 Alpha virt. eigenvalues --    1.51670   1.52227   1.52386   1.54009   1.54097
 Alpha virt. eigenvalues --    1.54618   1.54665   1.55099   1.56069   1.57077
 Alpha virt. eigenvalues --    1.57100   1.57421   1.57831   1.58600   1.59440
 Alpha virt. eigenvalues --    1.60041   1.60368   1.60510   1.60619   1.61688
 Alpha virt. eigenvalues --    1.61722   1.62364   1.62478   1.62623   1.63297
 Alpha virt. eigenvalues --    1.63812   1.63914   1.63987   1.64544   1.64994
 Alpha virt. eigenvalues --    1.65201   1.65232   1.65453   1.65515   1.65738
 Alpha virt. eigenvalues --    1.66080   1.66585   1.66677   1.67068   1.67349
 Alpha virt. eigenvalues --    1.67459   1.67692   1.67844   1.67941   1.68193
 Alpha virt. eigenvalues --    1.68325   1.68848   1.68908   1.69214   1.69512
 Alpha virt. eigenvalues --    1.69601   1.69778   1.69897   1.70174   1.70384
 Alpha virt. eigenvalues --    1.70718   1.71122   1.71261   1.71592   1.71827
 Alpha virt. eigenvalues --    1.72038   1.72147   1.72385   1.73069   1.73118
 Alpha virt. eigenvalues --    1.73535   1.73539   1.73678   1.74023   1.74308
 Alpha virt. eigenvalues --    1.74460   1.74869   1.75292   1.75386   1.75469
 Alpha virt. eigenvalues --    1.75609   1.75842   1.76062   1.76506   1.76586
 Alpha virt. eigenvalues --    1.76905   1.77120   1.77349   1.77401   1.77511
 Alpha virt. eigenvalues --    1.78018   1.78026   1.78262   1.78507   1.78947
 Alpha virt. eigenvalues --    1.79055   1.79306   1.79867   1.80018   1.80127
 Alpha virt. eigenvalues --    1.80338   1.80436   1.80999   1.81386   1.81444
 Alpha virt. eigenvalues --    1.81471   1.81904   1.82116   1.82392   1.82701
 Alpha virt. eigenvalues --    1.82988   1.83217   1.84290   1.84462   1.84775
 Alpha virt. eigenvalues --    1.85425   1.85432   1.85668   1.86171   1.86755
 Alpha virt. eigenvalues --    1.86900   1.87542   1.87706   1.87838   1.88017
 Alpha virt. eigenvalues --    1.88275   1.88754   1.89273   1.89635   1.89803
 Alpha virt. eigenvalues --    1.90076   1.90677   1.90740   1.90957   1.92121
 Alpha virt. eigenvalues --    1.92494   1.92686   1.92875   1.93292   1.93627
 Alpha virt. eigenvalues --    1.94266   1.94330   1.94726   1.94847   1.95034
 Alpha virt. eigenvalues --    1.95491   1.95608   1.95616   1.96196   1.96541
 Alpha virt. eigenvalues --    1.98269   1.98328   1.98588   1.98805   1.99167
 Alpha virt. eigenvalues --    1.99303   1.99502   1.99897   1.99925   2.00593
 Alpha virt. eigenvalues --    2.00846   2.01178   2.01456   2.01647   2.01932
 Alpha virt. eigenvalues --    2.01938   2.02494   2.02592   2.03062   2.03134
 Alpha virt. eigenvalues --    2.03171   2.03901   2.04092   2.04104   2.04375
 Alpha virt. eigenvalues --    2.04644   2.05295   2.05824   2.06312   2.06639
 Alpha virt. eigenvalues --    2.06763   2.07293   2.07994   2.08261   2.08321
 Alpha virt. eigenvalues --    2.08527   2.08770   2.09197   2.09872   2.10171
 Alpha virt. eigenvalues --    2.10469   2.10643   2.11185   2.11912   2.12176
 Alpha virt. eigenvalues --    2.12260   2.12428   2.13006   2.13074   2.13497
 Alpha virt. eigenvalues --    2.13852   2.14217   2.14859   2.15077   2.16296
 Alpha virt. eigenvalues --    2.16598   2.16982   2.17131   2.18137   2.18207
 Alpha virt. eigenvalues --    2.18245   2.18434   2.19264   2.19274   2.19667
 Alpha virt. eigenvalues --    2.20344   2.20536   2.20817   2.21070   2.21596
 Alpha virt. eigenvalues --    2.21964   2.21981   2.22885   2.23438   2.23999
 Alpha virt. eigenvalues --    2.24206   2.24381   2.24398   2.24887   2.24931
 Alpha virt. eigenvalues --    2.26254   2.26262   2.27007   2.27017   2.27689
 Alpha virt. eigenvalues --    2.28461   2.29055   2.29242   2.29300   2.29894
 Alpha virt. eigenvalues --    2.30270   2.30799   2.31111   2.31113   2.32093
 Alpha virt. eigenvalues --    2.32403   2.33283   2.33979   2.34016   2.34974
 Alpha virt. eigenvalues --    2.35026   2.35405   2.35791   2.36163   2.36465
 Alpha virt. eigenvalues --    2.37568   2.37736   2.38482   2.39560   2.39680
 Alpha virt. eigenvalues --    2.40491   2.40771   2.41417   2.41562   2.42539
 Alpha virt. eigenvalues --    2.42745   2.43223   2.43572   2.44410   2.44593
 Alpha virt. eigenvalues --    2.45126   2.45587   2.45694   2.47195   2.47269
 Alpha virt. eigenvalues --    2.47887   2.48091   2.48822   2.49592   2.49875
 Alpha virt. eigenvalues --    2.50231   2.51189   2.51193   2.51908   2.52100
 Alpha virt. eigenvalues --    2.52362   2.52536   2.52979   2.53101   2.53769
 Alpha virt. eigenvalues --    2.54155   2.54788   2.55274   2.55736   2.55898
 Alpha virt. eigenvalues --    2.56018   2.56171   2.56473   2.56915   2.57787
 Alpha virt. eigenvalues --    2.58071   2.58231   2.58471   2.58653   2.59496
 Alpha virt. eigenvalues --    2.59676   2.60034   2.60500   2.60780   2.60926
 Alpha virt. eigenvalues --    2.61627   2.61791   2.62042   2.62098   2.62386
 Alpha virt. eigenvalues --    2.62730   2.62922   2.63414   2.63753   2.63949
 Alpha virt. eigenvalues --    2.64553   2.65131   2.65433   2.65452   2.65569
 Alpha virt. eigenvalues --    2.66707   2.66748   2.66928   2.67326   2.67698
 Alpha virt. eigenvalues --    2.67904   2.68011   2.69317   2.69466   2.69883
 Alpha virt. eigenvalues --    2.70507   2.70574   2.71037   2.71085   2.71560
 Alpha virt. eigenvalues --    2.71733   2.71855   2.72128   2.72511   2.72985
 Alpha virt. eigenvalues --    2.73818   2.74135   2.74225   2.74665   2.75082
 Alpha virt. eigenvalues --    2.75339   2.75572   2.75942   2.76066   2.77508
 Alpha virt. eigenvalues --    2.77876   2.78081   2.78227   2.78772   2.79442
 Alpha virt. eigenvalues --    2.79612   2.80171   2.80845   2.81183   2.82060
 Alpha virt. eigenvalues --    2.82392   2.82766   2.82809   2.83558   2.83983
 Alpha virt. eigenvalues --    2.84295   2.84578   2.85312   2.85439   2.86618
 Alpha virt. eigenvalues --    2.86963   2.87159   2.87818   2.88319   2.88850
 Alpha virt. eigenvalues --    2.88931   2.89881   2.90093   2.90513   2.90712
 Alpha virt. eigenvalues --    2.91045   2.91551   2.91644   2.91715   2.92965
 Alpha virt. eigenvalues --    2.93090   2.94608   2.94852   2.96031   2.96709
 Alpha virt. eigenvalues --    2.98263   2.98390   2.99207   2.99242   2.99987
 Alpha virt. eigenvalues --    3.00097   3.03096   3.03154   3.04167   3.04465
 Alpha virt. eigenvalues --    3.06731   3.09044   3.10250   3.11381   3.11605
 Alpha virt. eigenvalues --    3.13287   3.13682   3.13728   3.15299   3.16731
 Alpha virt. eigenvalues --    3.18035   3.20741   3.21890   3.23603   3.24601
 Alpha virt. eigenvalues --    3.25938   3.26037   3.28370   3.29855   3.31182
 Alpha virt. eigenvalues --    3.31475   3.35600   3.36449   3.41659   3.41685
 Alpha virt. eigenvalues --    3.42539   3.44614   3.44651   3.45838   3.49698
 Alpha virt. eigenvalues --    3.50242   3.55171   3.56012   3.63559   4.00888
 Alpha virt. eigenvalues --    4.01445   4.01610   4.02439   4.03256   4.03711
 Alpha virt. eigenvalues --    4.04193   4.04339   4.05949   4.06282   4.06923
 Alpha virt. eigenvalues --    4.07196   4.08415   4.09177   4.09487   4.09587
 Alpha virt. eigenvalues --    4.10234   4.10733   4.11587   4.11887   4.13964
 Alpha virt. eigenvalues --    4.14077   4.15339   4.16472   4.16593   4.16824
 Alpha virt. eigenvalues --    4.19014   4.19562   4.19593   4.20247   4.21497
 Alpha virt. eigenvalues --    4.21688   4.22002   4.22997   4.23779   4.25656
 Alpha virt. eigenvalues --    4.26271   4.26287   4.26905   4.27212   4.28631
 Alpha virt. eigenvalues --    4.28771   4.28934   4.29392   4.29495   4.30639
 Alpha virt. eigenvalues --    4.31456   4.32447   4.34316   4.35569   4.35706
 Alpha virt. eigenvalues --    4.36737   4.38883   4.40001   4.40844   4.40891
 Alpha virt. eigenvalues --    4.42052   4.42804   4.43319   4.44322   4.47170
 Alpha virt. eigenvalues --    4.47896   4.48887   4.51456   4.51898   4.53066
 Alpha virt. eigenvalues --    4.53119   4.56718   4.57241   4.59012   4.59525
 Alpha virt. eigenvalues --    4.60938   4.61266   4.64361   4.65221   4.66801
 Alpha virt. eigenvalues --    4.67399   4.72031   4.78288   4.79653   4.80525
 Alpha virt. eigenvalues --    4.80541   4.83427   4.87030   4.87183   4.91679
 Alpha virt. eigenvalues --    4.93642   5.00539   5.02863   5.06610   5.09739
 Alpha virt. eigenvalues --    5.13708   5.15027   5.24602
          Condensed to atoms (all electrons):
 Mulliken charges:
               1
     1  C   -0.045888
     2  C   -0.380017
     3  C    0.008158
     4  C   -0.370782
     5  C    0.077326
     6  C    0.091879
     7  C    0.008811
     8  C    0.091507
     9  C    0.027345
    10  C    0.091254
    11  C    0.090393
    12  C    0.046480
    13  C    0.003538
    14  C    0.011121
    15  C    0.025109
    16  C    0.008097
    17  C   -0.012270
    18  C    0.043641
    19  C   -0.014586
    20  C    0.043641
    21  C   -0.019961
    22  C    0.008097
    23  C    0.004842
    24  C    0.091507
    25  C    0.074493
    26  C    0.090393
    27  C   -0.370100
    28  C   -0.381861
    29  C    0.114897
    30  C    0.086530
    31  C    0.081621
    32  C    0.094458
    33  C    0.003538
    34  C    0.006180
    35  C    0.027345
    36  C    0.032066
    37  C    0.077326
    38  C    0.046314
    39  C    0.114897
    40  C    0.086330
    41  C    0.036917
    42  C    0.060952
    43  C    0.081621
    44  C    0.147196
    45  C    0.122032
    46  C    0.045962
    47  C    0.115663
    48  C    0.129395
    49  C   -0.374529
    50  C   -0.381861
    51  C    0.094458
    52  C    0.086530
    53  C    0.026244
    54  C    0.008158
    55  C    0.006180
    56  C    0.008811
    57  C    0.046313
    58  C    0.011121
    59  C    0.060951
    60  C    0.045962
    61  C   -0.008250
    62  C   -0.370782
    63  C    0.036917
    64  C    0.122032
    65  C    0.086330
    66  C    0.129395
    67  C    0.147197
    68  C    0.115663
    69  C   -0.380017
    70  C   -0.374529
    71  C    0.091879
    72  C    0.091255
    73  C    0.025109
    74  C    0.026244
    75  C   -0.012270
    76  C   -0.014586
    77  C   -0.045888
    78  C   -0.019961
    79  C   -0.370101
    80  C   -0.008249
    81  C    0.004843
    82  C    0.074493
    83  C    0.032066
    84  C    0.046480
    85  Cl   0.013828
    86  Cl   0.007790
    87  Cl   0.017227
    88  Cl   0.000564
    89  Cl   0.017227
    90  Cl   0.007790
    91  Cl   0.002086
    92  Cl   0.013828
    93  Cl   0.000564
    94  Cl   0.002086
 Sum of Mulliken charges =  -0.00000
 Mulliken charges with hydrogens summed into heavy atoms:
               1
     1  C   -0.045888
     2  C   -0.380017
     3  C    0.008158
     4  C   -0.370782
     5  C    0.077326
     6  C    0.091879
     7  C    0.008811
     8  C    0.091507
     9  C    0.027345
    10  C    0.091254
    11  C    0.090393
    12  C    0.046480
    13  C    0.003538
    14  C    0.011121
    15  C    0.025109
    16  C    0.008097
    17  C   -0.012270
    18  C    0.043641
    19  C   -0.014586
    20  C    0.043641
    21  C   -0.019961
    22  C    0.008097
    23  C    0.004842
    24  C    0.091507
    25  C    0.074493
    26  C    0.090393
    27  C   -0.370100
    28  C   -0.381861
    29  C    0.114897
    30  C    0.086530
    31  C    0.081621
    32  C    0.094458
    33  C    0.003538
    34  C    0.006180
    35  C    0.027345
    36  C    0.032066
    37  C    0.077326
    38  C    0.046314
    39  C    0.114897
    40  C    0.086330
    41  C    0.036917
    42  C    0.060952
    43  C    0.081621
    44  C    0.147196
    45  C    0.122032
    46  C    0.045962
    47  C    0.115663
    48  C    0.129395
    49  C   -0.374529
    50  C   -0.381861
    51  C    0.094458
    52  C    0.086530
    53  C    0.026244
    54  C    0.008158
    55  C    0.006180
    56  C    0.008811
    57  C    0.046313
    58  C    0.011121
    59  C    0.060951
    60  C    0.045962
    61  C   -0.008250
    62  C   -0.370782
    63  C    0.036917
    64  C    0.122032
    65  C    0.086330
    66  C    0.129395
    67  C    0.147197
    68  C    0.115663
    69  C   -0.380017
    70  C   -0.374529
    71  C    0.091879
    72  C    0.091255
    73  C    0.025109
    74  C    0.026244
    75  C   -0.012270
    76  C   -0.014586
    77  C   -0.045888
    78  C   -0.019961
    79  C   -0.370101
    80  C   -0.008249
    81  C    0.004843
    82  C    0.074493
    83  C    0.032066
    84  C    0.046480
    85  Cl   0.013828
    86  Cl   0.007790
    87  Cl   0.017227
    88  Cl   0.000564
    89  Cl   0.017227
    90  Cl   0.007790
    91  Cl   0.002086
    92  Cl   0.013828
    93  Cl   0.000564
    94  Cl   0.002086
 Electronic spatial extent (au):  <R**2>=          57445.2278
 Charge=              0.0000 electrons
 Dipole moment (field-independent basis, Debye):
    X=             -0.0000    Y=              1.2793    Z=              0.0001  Tot=              1.2793
 Quadrupole moment (field-independent basis, Debye-Ang):
   XX=           -646.4698   YY=           -591.7333   ZZ=           -584.5546
   XY=              0.0000   XZ=              9.6126   YZ=             -0.0000
 Traceless Quadrupole moment (field-independent basis, Debye-Ang):
   XX=            -38.8839   YY=             15.8526   ZZ=             23.0313
   XY=              0.0000   XZ=              9.6126   YZ=             -0.0000
 Octapole moment (field-independent basis, Debye-Ang**2):
  XXX=             -0.0002  YYY=             19.9407  ZZZ=              0.0011  XYY=             -0.0001
  XXY=              2.3871  XXZ=              0.0003  XZZ=             -0.0002  YZZ=             10.4302
  YYZ=              0.0005  XYZ=             -5.4583
 Hexadecapole moment (field-independent basis, Debye-Ang**3):
 XXXX=         -37414.6471 YYYY=         -23346.3694 ZZZZ=         -21269.8921 XXXY=             -0.0000
 XXXZ=           -208.9222 YYYX=              0.0002 YYYZ=             -0.0005 ZZZX=             61.7389
 ZZZY=             -0.0007 XXYY=         -10368.9423 XXZZ=          -9817.7167 YYZZ=          -7519.6356
 XXYZ=              0.0000 YYXZ=            131.2817 ZZXY=             -0.0002
 N-N= 2.220837419100D+04 E-N=-6.275054155346D+04  KE= 7.759003670881D+03
 No NMR shielding tensors so no spin-rotation constants.
 Leave Link  601 at Wed Jun 29 00:37:22 2022, MaxMem=  1342177280 cpu:              25.1 elap:               1.3
 (Enter /home/mkliu/g16/l9999.exe)
 1\1\GINC-NODE02\FOpt\RB3LYP\6-31G(d,p)\C84Cl10\MKLIU\29-Jun-2022\0\\#P
  opt b3lyp/6-31G(d, p) empiricaldispersion=GD3\\force\\0,1\C,8.4930279
 354,18.8482058278,10.7725698128\C,12.6109413548,19.9806719682,8.883774
 692\C,8.2603584426,26.8602341215,10.5256087531\C,12.4855348676,25.7531
 140013,8.928227541\C,8.0200420149,19.1273369211,9.459731358\C,12.08930
 16836,19.4815074994,10.208465194\C,7.9507026243,26.8275837338,9.108995
 4291\C,11.8806650086,26.2064733695,10.2414008188\C,8.9946804996,19.237
 5012605,8.3770969329\C,12.3588242389,20.1087921846,11.3886762958\C,12.
 1331662851,25.5371642639,11.4190905932\C,8.9579288106,26.6468792245,8.
 1263808699\C,10.3702384614,19.0775167836,8.6862854655\C,10.3067842015,
 26.6797812089,8.5984115236\C,10.8214812958,18.8349508017,10.0154628593
 \C,10.6239086852,26.7943266435,10.013995617\C,9.889574463,18.737291288
 6,11.0472937104\C,9.5974302218,26.7722826901,10.9970701128\C,10.172600
 584,19.4110070885,12.2896600517\C,9.8500473232,26.0506746475,12.220574
 7348\C,8.9412214973,19.9738316845,12.7824092014\C,8.7458864994,25.4325
 351517,12.868118641\C,7.8927210983,19.5047349903,11.9226201192\C,7.431
 2752837,25.5764401719,12.3908225134\C,6.7348011187,20.2503829042,11.78
 51071108\C,7.1839520605,26.2854790116,11.235495394\C,5.9145064565,20.1
 982042446,10.5155696695\C,6.0396454971,25.9462072972,10.2894298209\C,6
 .7417018572,19.7864162249,9.3102393702\C,6.6519597272,26.2940081646,8.
 9488818652\C,6.4165513398,20.3633210675,8.1109533614\C,6.3409033798,25
 .6166642301,7.8037037697\C,7.3391502825,20.4081647792,7.024049931\C,7.
 305193924,25.464589391,6.7737349491\C,8.6769338141,19.9583176671,7.170
 0799846\C,8.656702875,25.9071614747,6.9277473296\C,9.7243057217,20.626
 6061655,6.4016042906\C,9.7192011154,25.165232483,6.2586088533\C,11.082
 4376675,20.579816874,6.8957429439\C,12.7908548051,22.1756023127,7.7758
 448188\C,12.7141143006,23.5737440211,7.7950584579\C,11.0586526836,25.1
 827788779,6.8256816941\C,11.380129255,19.7922020096,7.9764232911\C,12.
 9770040965,21.4569823049,8.9460028363\C,12.8766305856,24.2889709123,8.
 9798447777\C,11.3277346215,25.9927209279,7.9516364983\C,13.1623112667,
 22.1596997477,10.1666255501\C,13.1134386854,23.5788030714,10.177690980
 8\C,13.1922292302,21.3747615187,11.4827958633\C,13.0779793128,24.34561
 54265,11.5034850768\C,12.4465926732,22.1418999794,12.5632868714\C,12.4
 017731301,23.5075327508,12.5680628985\C,11.3610247271,20.1077294707,12
 .4268566693\C,11.1184009321,25.4354096588,12.3952211066\C,11.363854650
 1,21.385063866,13.0816470961\C,11.2579775268,24.1629500021,13.07721223
 84\C,8.8961638958,21.2724856379,13.3649035451\C,8.8768517888,24.118581
 7389,13.479627694\C,7.6566216343,22.0216046072,13.2293730656\C,7.67650
 37396,23.4290381872,13.3515380248\C,6.6129088889,21.4799635458,12.4263
 59084\C,6.6087825786,24.3598645723,12.7640196966\C,5.8355233308,22.359
 6219562,11.544561958\C,5.9472210601,23.7485802019,11.5441822866\C,5.48
 54183718,21.6600928958,10.3830344764\C,5.7094240145,24.4511581477,10.3
 420634012\C,5.2922935607,22.3251817476,9.182744126\C,5.383277518,23.74
 25914933,9.1555024457\C,5.3537104064,21.4637802153,7.9291166539\C,5.34
 55067039,24.4672649336,7.8054102129\C,5.9102310068,22.2305981036,6.755
 0838607\C,5.8999593049,23.5926804585,6.6946515387\C,6.9981970366,21.49
 70362207,6.1712429986\C,6.986332358,24.2734135417,6.0390460398\C,8.000
 7814351,22.1370407386,5.4446899041\C,7.9932591062,23.5774114318,5.3923
 046154\C,9.353220412,21.6876733488,5.5289053353\C,9.3574574165,24.0337
 850541,5.4732444076\C,12.1016093276,21.6411641456,6.5196136888\C,11.88
 16226739,24.0305506749,6.6752474957\C,10.1930241265,22.8689352035,5.41
 33148341\C,11.452035551,22.8990245904,5.9874753616\C,10.150182578,22.0
 00190298,13.5229943133\C,10.1330109605,23.4401725108,13.5512737721\Cl,
 14.0467829104,18.9761680459,8.3122784137\Cl,14.9386384755,21.013420876
 5,11.9585845118\Cl,14.7773877522,24.868440865,11.9775687277\Cl,13.3135
 427283,20.9779320075,5.2867710505\Cl,4.5378203982,26.9395435367,10.668
 7652917\Cl,3.6252939044,25.0296239033,7.4427704008\Cl,13.9563506274,26
 .7814019447,8.471715112\Cl,3.695287122,20.7602971854,7.539217819\Cl,4.
 46823417,19.0632313741,10.7362344999\Cl,5.3261420923,24.7755503717,14.
 0333176741\\Version=ES64L-G16RevA.03\State=1-A\HF=-7803.0326369\RMSD=6
 .056e-09\RMSF=6.984e-05\Dipole=0.0568026,0.4358216,0.2452873\Quadrupol
 e=-29.2306302,13.1960046,16.0346257,2.4274416,5.1836252,-3.0669534\PG=
 C01 [X(C84Cl10)]\\@


 FLOATING POINT NUMBERS ARE LIKE SANDPILES:
 EVERY TIME THAT YOU MOVE ONE, YOU LOSE A LITTLE SAND 
 AND YOU PICK UP A LITTLE DIRT.
 Job cpu time:       1 days  5 hours 54 minutes 14.7 seconds.
 Elapsed time:       0 days  1 hours 14 minutes 52.2 seconds.
 File lengths (MBytes):  RWF=   1291 Int=      0 D2E=      0 Chk=    162 Scr=      1
 Normal termination of Gaussian 16 at Wed Jun 29 00:37:24 2022.
