 Entering Gaussian System, Link 0=g16
 Input=10_addons_C84_11_Cl22_rank_7.gjf
 Output=10_addons_C84_11_Cl22_rank_7.log
 Initial command:
 /home/mkliu/g16/l1.exe "/data/scratch/Gau-166112.inp" -scrdir="/data/scratch/"
 Entering Link 1 = /home/mkliu/g16/l1.exe PID=    166113.
  
 Copyright (c) 1988,1990,1992,1993,1995,1998,2003,2009,2016,
            Gaussian, Inc.  All Rights Reserved.
  
 This is part of the Gaussian(R) 16 program.  It is based on
 the Gaussian(R) 09 system (copyright 2009, Gaussian, Inc.),
 the Gaussian(R) 03 system (copyright 2003, Gaussian, Inc.),
 the Gaussian(R) 98 system (copyright 1998, Gaussian, Inc.),
 the Gaussian(R) 94 system (copyright 1995, Gaussian, Inc.),
 the Gaussian 92(TM) system (copyright 1992, Gaussian, Inc.),
 the Gaussian 90(TM) system (copyright 1990, Gaussian, Inc.),
 the Gaussian 88(TM) system (copyright 1988, Gaussian, Inc.),
 the Gaussian 86(TM) system (copyright 1986, Carnegie Mellon
 University), and the Gaussian 82(TM) system (copyright 1983,
 Carnegie Mellon University). Gaussian is a federally registered
 trademark of Gaussian, Inc.
  
 This software contains proprietary and confidential information,
 including trade secrets, belonging to Gaussian, Inc.
  
 This software is provided under written license and may be
 used, copied, transmitted, or stored only in accord with that
 written license.
  
 The following legend is applicable only to US Government
 contracts under FAR:
  
                    RESTRICTED RIGHTS LEGEND
  
 Use, reproduction and disclosure by the US Government is
 subject to restrictions as set forth in subparagraphs (a)
 and (c) of the Commercial Computer Software - Restricted
 Rights clause in FAR 52.227-19.
  
 Gaussian, Inc.
 340 Quinnipiac St., Bldg. 40, Wallingford CT 06492
  
  
 ---------------------------------------------------------------
 Warning -- This program may not be used in any manner that
 competes with the business of Gaussian, Inc. or will provide
 assistance to any competitor of Gaussian, Inc.  The licensee
 of this program is prohibited from giving any competitor of
 Gaussian, Inc. access to this program.  By using this program,
 the user acknowledges that Gaussian, Inc. is engaged in the
 business of creating and licensing software in the field of
 computational chemistry and represents and warrants to the
 licensee that it is not a competitor of Gaussian, Inc. and that
 it will not use this program in any manner prohibited above.
 ---------------------------------------------------------------
  

 Cite this work as:
 Gaussian 16, Revision A.03,
 M. J. Frisch, G. W. Trucks, H. B. Schlegel, G. E. Scuseria, 
 M. A. Robb, J. R. Cheeseman, G. Scalmani, V. Barone, 
 G. A. Petersson, H. Nakatsuji, X. Li, M. Caricato, A. V. Marenich, 
 J. Bloino, B. G. Janesko, R. Gomperts, B. Mennucci, H. P. Hratchian, 
 J. V. Ortiz, A. F. Izmaylov, J. L. Sonnenberg, D. Williams-Young, 
 F. Ding, F. Lipparini, F. Egidi, J. Goings, B. Peng, A. Petrone, 
 T. Henderson, D. Ranasinghe, V. G. Zakrzewski, J. Gao, N. Rega, 
 G. Zheng, W. Liang, M. Hada, M. Ehara, K. Toyota, R. Fukuda, 
 J. Hasegawa, M. Ishida, T. Nakajima, Y. Honda, O. Kitao, H. Nakai, 
 T. Vreven, K. Throssell, J. A. Montgomery, Jr., J. E. Peralta, 
 F. Ogliaro, M. J. Bearpark, J. J. Heyd, E. N. Brothers, K. N. Kudin, 
 V. N. Staroverov, T. A. Keith, R. Kobayashi, J. Normand, 
 K. Raghavachari, A. P. Rendell, J. C. Burant, S. S. Iyengar, 
 J. Tomasi, M. Cossi, J. M. Millam, M. Klene, C. Adamo, R. Cammi, 
 J. W. Ochterski, R. L. Martin, K. Morokuma, O. Farkas, 
 J. B. Foresman, and D. J. Fox, Gaussian, Inc., Wallingford CT, 2016.
 
 ******************************************
 Gaussian 16:  ES64L-G16RevA.03 25-Dec-2016
                26-Jun-2022 
 ******************************************
 %mem=10GB
 %chk=10_addons_C84_11_Cl22_rank_7.chk
 %nprocshared=24
 Will use up to   24 processors via shared memory.
 ------------------------------------------------
 #P opt b3lyp/6-31G(d, p) empiricaldispersion=GD3
 ------------------------------------------------
 1/18=20,19=15,26=3,38=1/1,3;
 2/9=110,12=2,17=6,18=5,40=1/2;
 3/5=1,6=6,7=101,11=2,25=1,30=1,71=1,74=-5,124=31/1,2,3;
 4//1;
 5/5=2,38=5/2;
 6/7=2,8=2,9=2,10=2,28=1/1;
 7//1,2,3,16;
 1/18=20,19=15,26=3/3(2);
 2/9=110/2;
 99//99;
 2/9=110/2;
 3/5=1,6=6,7=101,11=2,25=1,30=1,71=1,74=-5,124=31/1,2,3;
 4/5=5,16=3,69=1/1;
 5/5=2,38=5/2;
 7//1,2,3,16;
 1/18=20,19=15,26=3/3(-5);
 2/9=110/2;
 6/7=2,8=2,9=2,10=2,19=2,28=1/1;
 99/9=1/99;
 Leave Link    1 at Sun Jun 26 23:22:58 2022, MaxMem=  1342177280 cpu:               0.6 elap:               0.0
 (Enter /home/mkliu/g16/l101.exe)
 -----
 force
 -----
 Symbolic Z-matrix:
 Charge =  0 Multiplicity = 1
 C                     8.42845   18.63978   10.80804 
 C                     12.57241   19.99582   8.91028 
 C                     8.26696   26.84625   10.52302 
 C                     12.49301   25.74322   8.92005 
 C                     8.02899   19.18101   9.44516 
 C                     12.07246   19.49674   10.23075 
 C                     7.95815   26.80505   9.13746 
 C                     11.88416   26.1691   10.22296 
 C                     8.98217   19.27048   8.39886 
 C                     12.34468   20.1459   11.39849 
 C                     12.13933   25.52116   11.3873 
 C                     8.96179   26.60705   8.16101 
 C                     10.37093   19.08961   8.69797 
 C                     10.28757   26.6456   8.63122 
 C                     10.81831   18.84395   10.04915 
 C                     10.60578   26.76227   10.00682 
 C                     9.90326   18.74106   11.0632 
 C                     9.5987    26.75995   10.99617 
 C                     10.15513   19.46352   12.25091 
 C                     9.86046   26.05737   12.21889 
 C                     8.93386   20.03246   12.72397 
 C                     8.77745   25.43722   12.87786 
 C                     7.88611   19.527    11.90031 
 C                     7.4424    25.53272   12.35421 
 C                     6.74229   20.23859   11.747 
 C                     7.18315   26.25542   11.22789 
 C                     5.91933   20.1906   10.49488 
 C                     6.04201   25.92116   10.2984 
 C                     6.78285   19.81534   9.31792 
 C                     6.65294   26.26666   8.97507 
 C                     6.4411    20.40106   8.11256 
 C                     6.34538   25.59802   7.84018 
 C                     7.35136   20.43575   7.05023 
 C                     7.32405   25.44513   6.81535 
 C                     8.67569   19.97081   7.19053 
 C                     8.66483   25.86341   6.97687 
 C                     9.71064   20.61416   6.41775 
 C                     9.7184    25.1238   6.32161 
 C                     11.05422   20.59425   6.91319 
 C                     12.70202   22.18413   7.81747 
 C                     12.72506   23.58173   7.803 
 C                     11.05118   25.15677   6.8782 
 C                     11.35698   19.78134   8.02435 
 C                     12.90323   21.46613   8.98699 
 C                     12.88217   24.28736   8.97632 
 C                     11.3234   25.93191   7.96816 
 C                     13.12812   22.17188   10.17685 
 C                     13.10003   23.5794   10.174 
 C                     13.1783   21.39869   11.48623 
 C                     13.07854   24.3485   11.48403 
 C                     12.43601   22.17301   12.54223 
 C                     12.39679   23.52529   12.53706 
 C                     11.34671   20.15936   12.41103 
 C                     11.11706   25.43413   12.38001 
 C                     11.33186   21.42949   13.05461 
 C                     11.25174   24.19065   13.05317 
 C                     8.89404   21.31219   13.31017 
 C                     8.90237   24.1624   13.47693 
 C                     7.6663    22.0398   13.16831 
 C                     7.66632   23.4496   13.27933 
 C                     6.63336   21.50052   12.37995 
 C                     6.77475   24.27403   12.57034 
 C                     5.84318   22.34134   11.5362 
 C                     5.94286   23.74095   11.54949 
 C                     5.5079    21.64395   10.36334 
 C                     5.68871   24.44257   10.33636 
 C                     5.3202    22.31904   9.18062 
 C                     5.39387   23.74017   9.16886 
 C                     5.37258   21.46944   7.93595 
 C                     5.35374   24.46392   7.82872 
 C                     5.91456   22.24297   6.77166 
 C                     5.91047   23.60339   6.72576 
 C                     7.00097   21.52505   6.18707 
 C                     6.99163   24.28041   6.07856 
 C                     8.00013   22.15994   5.4842 
 C                     8.00642   23.58858   5.42955 
 C                     9.35326   21.6994   5.58676 
 C                     9.3546    24.03613   5.50732 
 C                     11.87711   21.72001   6.71715 
 C                     12.07517   24.10329   6.54034 
 C                     10.18561   22.84801   5.4618 
 C                     11.44376   22.8467   6.01663 
 C                     10.13825   22.03579   13.48531 
 C                     10.12693   23.47284   13.53054 
 Cl                    4.56721   26.8929   10.67886 
 Cl                    3.6604    24.99921   7.51268 
 Cl                    13.29951   24.7851   5.39715 
 Cl                    13.91056   26.74633   8.43504 
 Cl                    14.76085   24.82782   11.91606 
 Cl                    14.90052   21.07586   11.90254 
 Cl                    14.01914   19.09042   8.31473 
 Cl                    3.75026   20.75406   7.59989 
 Cl                    4.50523   19.0834   10.61893 
 Cl                    7.82879   16.93434   10.92585 
 
 ITRead=  0  0  0  0  0  0  0  0  0  0  0  0  0  0  0  0  0  0  0  0
 ITRead=  0  0  0  0  0  0  0  0  0  0  0  0  0  0  0  0  0  0  0  0
 ITRead=  0  0  0  0  0  0  0  0  0  0  0  0  0  0  0  0  0  0  0  0
 ITRead=  0  0  0  0  0  0  0  0  0  0  0  0  0  0  0  0  0  0  0  0
 ITRead=  0  0  0  0  0  0  0  0  0  0  0  0  0  0
 MicOpt= -1 -1 -1 -1 -1 -1 -1 -1 -1 -1 -1 -1 -1 -1 -1 -1 -1 -1 -1 -1
 MicOpt= -1 -1 -1 -1 -1 -1 -1 -1 -1 -1 -1 -1 -1 -1 -1 -1 -1 -1 -1 -1
 MicOpt= -1 -1 -1 -1 -1 -1 -1 -1 -1 -1 -1 -1 -1 -1 -1 -1 -1 -1 -1 -1
 MicOpt= -1 -1 -1 -1 -1 -1 -1 -1 -1 -1 -1 -1 -1 -1 -1 -1 -1 -1 -1 -1
 MicOpt= -1 -1 -1 -1 -1 -1 -1 -1 -1 -1 -1 -1 -1 -1
 NAtoms=     94 NQM=       94 NQMF=       0 NMMI=      0 NMMIF=      0
                NMic=       0 NMicF=      0.
                    Isotopes and Nuclear Properties:
 (Nuclear quadrupole moments (NQMom) in fm**2, nuclear magnetic moments (NMagM)
  in nuclear magnetons)

  Atom         1           2           3           4           5           6           7           8           9          10
 IAtWgt=          12          12          12          12          12          12          12          12          12          12
 AtmWgt=  12.0000000  12.0000000  12.0000000  12.0000000  12.0000000  12.0000000  12.0000000  12.0000000  12.0000000  12.0000000
 NucSpn=           0           0           0           0           0           0           0           0           0           0
 AtZEff=  -0.0000000  -0.0000000  -0.0000000  -0.0000000  -0.0000000  -0.0000000  -0.0000000  -0.0000000  -0.0000000  -0.0000000
 NQMom=    0.0000000   0.0000000   0.0000000   0.0000000   0.0000000   0.0000000   0.0000000   0.0000000   0.0000000   0.0000000
 NMagM=    0.0000000   0.0000000   0.0000000   0.0000000   0.0000000   0.0000000   0.0000000   0.0000000   0.0000000   0.0000000
 AtZNuc=   6.0000000   6.0000000   6.0000000   6.0000000   6.0000000   6.0000000   6.0000000   6.0000000   6.0000000   6.0000000

  Atom        11          12          13          14          15          16          17          18          19          20
 IAtWgt=          12          12          12          12          12          12          12          12          12          12
 AtmWgt=  12.0000000  12.0000000  12.0000000  12.0000000  12.0000000  12.0000000  12.0000000  12.0000000  12.0000000  12.0000000
 NucSpn=           0           0           0           0           0           0           0           0           0           0
 AtZEff=  -0.0000000  -0.0000000  -0.0000000  -0.0000000  -0.0000000  -0.0000000  -0.0000000  -0.0000000  -0.0000000  -0.0000000
 NQMom=    0.0000000   0.0000000   0.0000000   0.0000000   0.0000000   0.0000000   0.0000000   0.0000000   0.0000000   0.0000000
 NMagM=    0.0000000   0.0000000   0.0000000   0.0000000   0.0000000   0.0000000   0.0000000   0.0000000   0.0000000   0.0000000
 AtZNuc=   6.0000000   6.0000000   6.0000000   6.0000000   6.0000000   6.0000000   6.0000000   6.0000000   6.0000000   6.0000000

  Atom        21          22          23          24          25          26          27          28          29          30
 IAtWgt=          12          12          12          12          12          12          12          12          12          12
 AtmWgt=  12.0000000  12.0000000  12.0000000  12.0000000  12.0000000  12.0000000  12.0000000  12.0000000  12.0000000  12.0000000
 NucSpn=           0           0           0           0           0           0           0           0           0           0
 AtZEff=  -0.0000000  -0.0000000  -0.0000000  -0.0000000  -0.0000000  -0.0000000  -0.0000000  -0.0000000  -0.0000000  -0.0000000
 NQMom=    0.0000000   0.0000000   0.0000000   0.0000000   0.0000000   0.0000000   0.0000000   0.0000000   0.0000000   0.0000000
 NMagM=    0.0000000   0.0000000   0.0000000   0.0000000   0.0000000   0.0000000   0.0000000   0.0000000   0.0000000   0.0000000
 AtZNuc=   6.0000000   6.0000000   6.0000000   6.0000000   6.0000000   6.0000000   6.0000000   6.0000000   6.0000000   6.0000000

  Atom        31          32          33          34          35          36          37          38          39          40
 IAtWgt=          12          12          12          12          12          12          12          12          12          12
 AtmWgt=  12.0000000  12.0000000  12.0000000  12.0000000  12.0000000  12.0000000  12.0000000  12.0000000  12.0000000  12.0000000
 NucSpn=           0           0           0           0           0           0           0           0           0           0
 AtZEff=  -0.0000000  -0.0000000  -0.0000000  -0.0000000  -0.0000000  -0.0000000  -0.0000000  -0.0000000  -0.0000000  -0.0000000
 NQMom=    0.0000000   0.0000000   0.0000000   0.0000000   0.0000000   0.0000000   0.0000000   0.0000000   0.0000000   0.0000000
 NMagM=    0.0000000   0.0000000   0.0000000   0.0000000   0.0000000   0.0000000   0.0000000   0.0000000   0.0000000   0.0000000
 AtZNuc=   6.0000000   6.0000000   6.0000000   6.0000000   6.0000000   6.0000000   6.0000000   6.0000000   6.0000000   6.0000000

  Atom        41          42          43          44          45          46          47          48          49          50
 IAtWgt=          12          12          12          12          12          12          12          12          12          12
 AtmWgt=  12.0000000  12.0000000  12.0000000  12.0000000  12.0000000  12.0000000  12.0000000  12.0000000  12.0000000  12.0000000
 NucSpn=           0           0           0           0           0           0           0           0           0           0
 AtZEff=  -0.0000000  -0.0000000  -0.0000000  -0.0000000  -0.0000000  -0.0000000  -0.0000000  -0.0000000  -0.0000000  -0.0000000
 NQMom=    0.0000000   0.0000000   0.0000000   0.0000000   0.0000000   0.0000000   0.0000000   0.0000000   0.0000000   0.0000000
 NMagM=    0.0000000   0.0000000   0.0000000   0.0000000   0.0000000   0.0000000   0.0000000   0.0000000   0.0000000   0.0000000
 AtZNuc=   6.0000000   6.0000000   6.0000000   6.0000000   6.0000000   6.0000000   6.0000000   6.0000000   6.0000000   6.0000000

  Atom        51          52          53          54          55          56          57          58          59          60
 IAtWgt=          12          12          12          12          12          12          12          12          12          12
 AtmWgt=  12.0000000  12.0000000  12.0000000  12.0000000  12.0000000  12.0000000  12.0000000  12.0000000  12.0000000  12.0000000
 NucSpn=           0           0           0           0           0           0           0           0           0           0
 AtZEff=  -0.0000000  -0.0000000  -0.0000000  -0.0000000  -0.0000000  -0.0000000  -0.0000000  -0.0000000  -0.0000000  -0.0000000
 NQMom=    0.0000000   0.0000000   0.0000000   0.0000000   0.0000000   0.0000000   0.0000000   0.0000000   0.0000000   0.0000000
 NMagM=    0.0000000   0.0000000   0.0000000   0.0000000   0.0000000   0.0000000   0.0000000   0.0000000   0.0000000   0.0000000
 AtZNuc=   6.0000000   6.0000000   6.0000000   6.0000000   6.0000000   6.0000000   6.0000000   6.0000000   6.0000000   6.0000000

  Atom        61          62          63          64          65          66          67          68          69          70
 IAtWgt=          12          12          12          12          12          12          12          12          12          12
 AtmWgt=  12.0000000  12.0000000  12.0000000  12.0000000  12.0000000  12.0000000  12.0000000  12.0000000  12.0000000  12.0000000
 NucSpn=           0           0           0           0           0           0           0           0           0           0
 AtZEff=  -0.0000000  -0.0000000  -0.0000000  -0.0000000  -0.0000000  -0.0000000  -0.0000000  -0.0000000  -0.0000000  -0.0000000
 NQMom=    0.0000000   0.0000000   0.0000000   0.0000000   0.0000000   0.0000000   0.0000000   0.0000000   0.0000000   0.0000000
 NMagM=    0.0000000   0.0000000   0.0000000   0.0000000   0.0000000   0.0000000   0.0000000   0.0000000   0.0000000   0.0000000
 AtZNuc=   6.0000000   6.0000000   6.0000000   6.0000000   6.0000000   6.0000000   6.0000000   6.0000000   6.0000000   6.0000000

  Atom        71          72          73          74          75          76          77          78          79          80
 IAtWgt=          12          12          12          12          12          12          12          12          12          12
 AtmWgt=  12.0000000  12.0000000  12.0000000  12.0000000  12.0000000  12.0000000  12.0000000  12.0000000  12.0000000  12.0000000
 NucSpn=           0           0           0           0           0           0           0           0           0           0
 AtZEff=  -0.0000000  -0.0000000  -0.0000000  -0.0000000  -0.0000000  -0.0000000  -0.0000000  -0.0000000  -0.0000000  -0.0000000
 NQMom=    0.0000000   0.0000000   0.0000000   0.0000000   0.0000000   0.0000000   0.0000000   0.0000000   0.0000000   0.0000000
 NMagM=    0.0000000   0.0000000   0.0000000   0.0000000   0.0000000   0.0000000   0.0000000   0.0000000   0.0000000   0.0000000
 AtZNuc=   6.0000000   6.0000000   6.0000000   6.0000000   6.0000000   6.0000000   6.0000000   6.0000000   6.0000000   6.0000000

  Atom        81          82          83          84          85          86          87          88          89          90
 IAtWgt=          12          12          12          12          35          35          35          35          35          35
 AtmWgt=  12.0000000  12.0000000  12.0000000  12.0000000  34.9688527  34.9688527  34.9688527  34.9688527  34.9688527  34.9688527
 NucSpn=           0           0           0           0           3           3           3           3           3           3
 AtZEff=  -0.0000000  -0.0000000  -0.0000000  -0.0000000  -0.0000000  -0.0000000  -0.0000000  -0.0000000  -0.0000000  -0.0000000
 NQMom=    0.0000000   0.0000000   0.0000000   0.0000000  -8.1650000  -8.1650000  -8.1650000  -8.1650000  -8.1650000  -8.1650000
 NMagM=    0.0000000   0.0000000   0.0000000   0.0000000   0.8218740   0.8218740   0.8218740   0.8218740   0.8218740   0.8218740
 AtZNuc=   6.0000000   6.0000000   6.0000000   6.0000000  17.0000000  17.0000000  17.0000000  17.0000000  17.0000000  17.0000000

  Atom        91          92          93          94
 IAtWgt=          35          35          35          35
 AtmWgt=  34.9688527  34.9688527  34.9688527  34.9688527
 NucSpn=           3           3           3           3
 AtZEff=  -0.0000000  -0.0000000  -0.0000000  -0.0000000
 NQMom=   -8.1650000  -8.1650000  -8.1650000  -8.1650000
 NMagM=    0.8218740   0.8218740   0.8218740   0.8218740
 AtZNuc=  17.0000000  17.0000000  17.0000000  17.0000000
 Leave Link  101 at Sun Jun 26 23:22:59 2022, MaxMem=  1342177280 cpu:               6.6 elap:               0.3
 (Enter /home/mkliu/g16/l103.exe)

 GradGradGradGradGradGradGradGradGradGradGradGradGradGradGradGradGradGrad
 Berny optimization.
 Initialization pass.
                           ----------------------------
                           !    Initial Parameters    !
                           ! (Angstroms and Degrees)  !
 --------------------------                            --------------------------
 ! Name  Definition              Value          Derivative Info.                !
 --------------------------------------------------------------------------------
 ! R1    R(1,5)                  1.5199         estimate D2E/DX2                !
 ! R2    R(1,17)                 1.5001         estimate D2E/DX2                !
 ! R3    R(1,23)                 1.5081         estimate D2E/DX2                !
 ! R4    R(1,94)                 1.8116         estimate D2E/DX2                !
 ! R5    R(2,6)                  1.4976         estimate D2E/DX2                !
 ! R6    R(2,43)                 1.5193         estimate D2E/DX2                !
 ! R7    R(2,44)                 1.509          estimate D2E/DX2                !
 ! R8    R(2,91)                 1.8076         estimate D2E/DX2                !
 ! R9    R(3,7)                  1.4202         estimate D2E/DX2                !
 ! R10   R(3,18)                 1.4159         estimate D2E/DX2                !
 ! R11   R(3,26)                 1.4215         estimate D2E/DX2                !
 ! R12   R(4,8)                  1.4999         estimate D2E/DX2                !
 ! R13   R(4,45)                 1.508          estimate D2E/DX2                !
 ! R14   R(4,46)                 1.5198         estimate D2E/DX2                !
 ! R15   R(4,88)                 1.803          estimate D2E/DX2                !
 ! R16   R(5,9)                  1.4182         estimate D2E/DX2                !
 ! R17   R(5,29)                 1.4041         estimate D2E/DX2                !
 ! R18   R(6,10)                 1.3635         estimate D2E/DX2                !
 ! R19   R(6,15)                 1.4255         estimate D2E/DX2                !
 ! R20   R(7,12)                 1.4142         estimate D2E/DX2                !
 ! R21   R(7,30)                 1.4212         estimate D2E/DX2                !
 ! R22   R(8,11)                 1.3567         estimate D2E/DX2                !
 ! R23   R(8,16)                 1.4258         estimate D2E/DX2                !
 ! R24   R(9,13)                 1.4321         estimate D2E/DX2                !
 ! R25   R(9,35)                 1.4298         estimate D2E/DX2                !
 ! R26   R(10,49)                1.5073         estimate D2E/DX2                !
 ! R27   R(10,53)                1.4217         estimate D2E/DX2                !
 ! R28   R(11,50)                1.5055         estimate D2E/DX2                !
 ! R29   R(11,54)                1.4276         estimate D2E/DX2                !
 ! R30   R(12,14)                1.4072         estimate D2E/DX2                !
 ! R31   R(12,36)                1.4295         estimate D2E/DX2                !
 ! R32   R(13,15)                1.4444         estimate D2E/DX2                !
 ! R33   R(13,43)                1.38           estimate D2E/DX2                !
 ! R34   R(14,16)                1.4167         estimate D2E/DX2                !
 ! R35   R(14,46)                1.4219         estimate D2E/DX2                !
 ! R36   R(15,17)                1.3697         estimate D2E/DX2                !
 ! R37   R(16,18)                1.4118         estimate D2E/DX2                !
 ! R38   R(17,19)                1.4128         estimate D2E/DX2                !
 ! R39   R(18,20)                1.4343         estimate D2E/DX2                !
 ! R40   R(19,21)                1.4279         estimate D2E/DX2                !
 ! R41   R(19,53)                1.3891         estimate D2E/DX2                !
 ! R42   R(20,22)                1.4113         estimate D2E/DX2                !
 ! R43   R(20,54)                1.4119         estimate D2E/DX2                !
 ! R44   R(21,23)                1.4254         estimate D2E/DX2                !
 ! R45   R(21,57)                1.4082         estimate D2E/DX2                !
 ! R46   R(22,24)                1.4372         estimate D2E/DX2                !
 ! R47   R(22,58)                1.4141         estimate D2E/DX2                !
 ! R48   R(23,25)                1.3558         estimate D2E/DX2                !
 ! R49   R(24,26)                1.3631         estimate D2E/DX2                !
 ! R50   R(24,62)                1.4411         estimate D2E/DX2                !
 ! R51   R(25,27)                1.4991         estimate D2E/DX2                !
 ! R52   R(25,61)                1.416          estimate D2E/DX2                !
 ! R53   R(26,28)                1.5093         estimate D2E/DX2                !
 ! R54   R(27,29)                1.5072         estimate D2E/DX2                !
 ! R55   R(27,65)                1.5162         estimate D2E/DX2                !
 ! R56   R(27,93)                1.8003         estimate D2E/DX2                !
 ! R57   R(28,30)                1.4979         estimate D2E/DX2                !
 ! R58   R(28,66)                1.5207         estimate D2E/DX2                !
 ! R59   R(28,85)                1.8067         estimate D2E/DX2                !
 ! R60   R(29,31)                1.383          estimate D2E/DX2                !
 ! R61   R(30,32)                1.3526         estimate D2E/DX2                !
 ! R62   R(31,33)                1.3994         estimate D2E/DX2                !
 ! R63   R(31,69)                1.5213         estimate D2E/DX2                !
 ! R64   R(32,34)                1.4253         estimate D2E/DX2                !
 ! R65   R(32,70)                1.5065         estimate D2E/DX2                !
 ! R66   R(33,35)                1.4106         estimate D2E/DX2                !
 ! R67   R(33,73)                1.4333         estimate D2E/DX2                !
 ! R68   R(34,36)                1.4138         estimate D2E/DX2                !
 ! R69   R(34,74)                1.4177         estimate D2E/DX2                !
 ! R70   R(35,37)                1.443          estimate D2E/DX2                !
 ! R71   R(36,38)                1.4444         estimate D2E/DX2                !
 ! R72   R(37,39)                1.4322         estimate D2E/DX2                !
 ! R73   R(37,77)                1.4128         estimate D2E/DX2                !
 ! R74   R(38,42)                1.4447         estimate D2E/DX2                !
 ! R75   R(38,78)                1.4066         estimate D2E/DX2                !
 ! R76   R(39,43)                1.4097         estimate D2E/DX2                !
 ! R77   R(39,79)                1.4082         estimate D2E/DX2                !
 ! R78   R(40,41)                1.3979         estimate D2E/DX2                !
 ! R79   R(40,44)                1.387          estimate D2E/DX2                !
 ! R80   R(40,79)                1.4514         estimate D2E/DX2                !
 ! R81   R(41,45)                1.3781         estimate D2E/DX2                !
 ! R82   R(41,80)                1.5128         estimate D2E/DX2                !
 ! R83   R(42,46)                1.3649         estimate D2E/DX2                !
 ! R84   R(42,80)                1.5075         estimate D2E/DX2                !
 ! R85   R(44,47)                1.4016         estimate D2E/DX2                !
 ! R86   R(45,48)                1.4082         estimate D2E/DX2                !
 ! R87   R(47,48)                1.4078         estimate D2E/DX2                !
 ! R88   R(47,49)                1.5215         estimate D2E/DX2                !
 ! R89   R(48,50)                1.5193         estimate D2E/DX2                !
 ! R90   R(49,51)                1.5052         estimate D2E/DX2                !
 ! R91   R(49,90)                1.801          estimate D2E/DX2                !
 ! R92   R(50,52)                1.5005         estimate D2E/DX2                !
 ! R93   R(50,89)                1.8018         estimate D2E/DX2                !
 ! R94   R(51,52)                1.3529         estimate D2E/DX2                !
 ! R95   R(51,55)                1.4264         estimate D2E/DX2                !
 ! R96   R(52,56)                1.4213         estimate D2E/DX2                !
 ! R97   R(53,55)                1.424          estimate D2E/DX2                !
 ! R98   R(54,56)                1.4204         estimate D2E/DX2                !
 ! R99   R(55,83)                1.4063         estimate D2E/DX2                !
 ! R100  R(56,84)                1.4172         estimate D2E/DX2                !
 ! R101  R(57,59)                1.4342         estimate D2E/DX2                !
 ! R102  R(57,83)                1.4499         estimate D2E/DX2                !
 ! R103  R(58,60)                1.4405         estimate D2E/DX2                !
 ! R104  R(58,84)                1.4064         estimate D2E/DX2                !
 ! R105  R(59,60)                1.4142         estimate D2E/DX2                !
 ! R106  R(59,61)                1.4069         estimate D2E/DX2                !
 ! R107  R(60,62)                1.4061         estimate D2E/DX2                !
 ! R108  R(61,63)                1.4294         estimate D2E/DX2                !
 ! R109  R(62,64)                1.4207         estimate D2E/DX2                !
 ! R110  R(63,64)                1.4032         estimate D2E/DX2                !
 ! R111  R(63,65)                1.4051         estimate D2E/DX2                !
 ! R112  R(64,66)                1.4243         estimate D2E/DX2                !
 ! R113  R(65,67)                1.3747         estimate D2E/DX2                !
 ! R114  R(66,68)                1.394          estimate D2E/DX2                !
 ! R115  R(67,68)                1.4231         estimate D2E/DX2                !
 ! R116  R(67,69)                1.5079         estimate D2E/DX2                !
 ! R117  R(68,70)                1.5236         estimate D2E/DX2                !
 ! R118  R(69,71)                1.4992         estimate D2E/DX2                !
 ! R119  R(69,92)                1.8046         estimate D2E/DX2                !
 ! R120  R(70,72)                1.5057         estimate D2E/DX2                !
 ! R121  R(70,86)                1.8038         estimate D2E/DX2                !
 ! R122  R(71,72)                1.3612         estimate D2E/DX2                !
 ! R123  R(71,73)                1.4274         estimate D2E/DX2                !
 ! R124  R(72,74)                1.4304         estimate D2E/DX2                !
 ! R125  R(73,75)                1.3767         estimate D2E/DX2                !
 ! R126  R(74,76)                1.3891         estimate D2E/DX2                !
 ! R127  R(75,76)                1.4297         estimate D2E/DX2                !
 ! R128  R(75,77)                1.433          estimate D2E/DX2                !
 ! R129  R(76,78)                1.4226         estimate D2E/DX2                !
 ! R130  R(77,81)                1.424          estimate D2E/DX2                !
 ! R131  R(78,81)                1.4506         estimate D2E/DX2                !
 ! R132  R(79,82)                1.3957         estimate D2E/DX2                !
 ! R133  R(80,82)                1.5007         estimate D2E/DX2                !
 ! R134  R(80,87)                1.8085         estimate D2E/DX2                !
 ! R135  R(81,82)                1.3751         estimate D2E/DX2                !
 ! R136  R(83,84)                1.4378         estimate D2E/DX2                !
 ! A1    A(5,1,17)             112.7596         estimate D2E/DX2                !
 ! A2    A(5,1,23)             110.209          estimate D2E/DX2                !
 ! A3    A(5,1,94)             107.8515         estimate D2E/DX2                !
 ! A4    A(17,1,23)            100.9899         estimate D2E/DX2                !
 ! A5    A(17,1,94)            112.2046         estimate D2E/DX2                !
 ! A6    A(23,1,94)            112.811          estimate D2E/DX2                !
 ! A7    A(6,2,43)             101.5397         estimate D2E/DX2                !
 ! A8    A(6,2,44)             110.6758         estimate D2E/DX2                !
 ! A9    A(6,2,91)             113.0027         estimate D2E/DX2                !
 ! A10   A(43,2,44)            110.0343         estimate D2E/DX2                !
 ! A11   A(43,2,91)            112.1767         estimate D2E/DX2                !
 ! A12   A(44,2,91)            109.2276         estimate D2E/DX2                !
 ! A13   A(7,3,18)             121.9227         estimate D2E/DX2                !
 ! A14   A(7,3,26)             107.8145         estimate D2E/DX2                !
 ! A15   A(18,3,26)            121.7418         estimate D2E/DX2                !
 ! A16   A(8,4,45)             110.271          estimate D2E/DX2                !
 ! A17   A(8,4,46)             101.3285         estimate D2E/DX2                !
 ! A18   A(8,4,88)             113.2563         estimate D2E/DX2                !
 ! A19   A(45,4,46)            109.9888         estimate D2E/DX2                !
 ! A20   A(45,4,88)            110.136          estimate D2E/DX2                !
 ! A21   A(46,4,88)            111.5616         estimate D2E/DX2                !
 ! A22   A(1,5,9)              120.4898         estimate D2E/DX2                !
 ! A23   A(1,5,29)             118.3859         estimate D2E/DX2                !
 ! A24   A(9,5,29)             120.0759         estimate D2E/DX2                !
 ! A25   A(2,6,10)             121.9947         estimate D2E/DX2                !
 ! A26   A(2,6,15)             109.5118         estimate D2E/DX2                !
 ! A27   A(10,6,15)            120.1842         estimate D2E/DX2                !
 ! A28   A(3,7,12)             121.5594         estimate D2E/DX2                !
 ! A29   A(3,7,30)             108.7941         estimate D2E/DX2                !
 ! A30   A(12,7,30)            121.3217         estimate D2E/DX2                !
 ! A31   A(4,8,11)             122.2465         estimate D2E/DX2                !
 ! A32   A(4,8,16)             110.5121         estimate D2E/DX2                !
 ! A33   A(11,8,16)            119.8301         estimate D2E/DX2                !
 ! A34   A(5,9,13)             119.3221         estimate D2E/DX2                !
 ! A35   A(5,9,35)             120.684          estimate D2E/DX2                !
 ! A36   A(13,9,35)            116.5018         estimate D2E/DX2                !
 ! A37   A(6,10,49)            123.7765         estimate D2E/DX2                !
 ! A38   A(6,10,53)            118.3141         estimate D2E/DX2                !
 ! A39   A(49,10,53)           109.8081         estimate D2E/DX2                !
 ! A40   A(8,11,50)            122.9881         estimate D2E/DX2                !
 ! A41   A(8,11,54)            119.4204         estimate D2E/DX2                !
 ! A42   A(50,11,54)           110.766          estimate D2E/DX2                !
 ! A43   A(7,12,14)            115.7263         estimate D2E/DX2                !
 ! A44   A(7,12,36)            119.826          estimate D2E/DX2                !
 ! A45   A(14,12,36)           119.128          estimate D2E/DX2                !
 ! A46   A(9,13,15)            121.1474         estimate D2E/DX2                !
 ! A47   A(9,13,43)            121.8462         estimate D2E/DX2                !
 ! A48   A(15,13,43)           108.6969         estimate D2E/DX2                !
 ! A49   A(12,14,16)           122.5681         estimate D2E/DX2                !
 ! A50   A(12,14,46)           121.1138         estimate D2E/DX2                !
 ! A51   A(16,14,46)           109.2977         estimate D2E/DX2                !
 ! A52   A(6,15,13)            108.2885         estimate D2E/DX2                !
 ! A53   A(6,15,17)            121.8591         estimate D2E/DX2                !
 ! A54   A(13,15,17)           119.8954         estimate D2E/DX2                !
 ! A55   A(8,16,14)            108.3201         estimate D2E/DX2                !
 ! A56   A(8,16,18)            122.1874         estimate D2E/DX2                !
 ! A57   A(14,16,18)           121.3381         estimate D2E/DX2                !
 ! A58   A(1,17,15)            122.4059         estimate D2E/DX2                !
 ! A59   A(1,17,19)            110.6572         estimate D2E/DX2                !
 ! A60   A(15,17,19)           117.7012         estimate D2E/DX2                !
 ! A61   A(3,18,16)            115.8911         estimate D2E/DX2                !
 ! A62   A(3,18,20)            119.1029         estimate D2E/DX2                !
 ! A63   A(16,18,20)           117.9071         estimate D2E/DX2                !
 ! A64   A(17,19,21)           109.2552         estimate D2E/DX2                !
 ! A65   A(17,19,53)           120.3959         estimate D2E/DX2                !
 ! A66   A(21,19,53)           119.7275         estimate D2E/DX2                !
 ! A67   A(18,20,22)           118.2453         estimate D2E/DX2                !
 ! A68   A(18,20,54)           118.4207         estimate D2E/DX2                !
 ! A69   A(22,20,54)           115.8323         estimate D2E/DX2                !
 ! A70   A(19,21,23)           107.215          estimate D2E/DX2                !
 ! A71   A(19,21,57)           121.6138         estimate D2E/DX2                !
 ! A72   A(23,21,57)           122.8228         estimate D2E/DX2                !
 ! A73   A(20,22,24)           120.8976         estimate D2E/DX2                !
 ! A74   A(20,22,58)           121.7462         estimate D2E/DX2                !
 ! A75   A(24,22,58)           107.2362         estimate D2E/DX2                !
 ! A76   A(1,23,21)            111.2724         estimate D2E/DX2                !
 ! A77   A(1,23,25)            122.0237         estimate D2E/DX2                !
 ! A78   A(21,23,25)           119.9582         estimate D2E/DX2                !
 ! A79   A(22,24,26)           120.86           estimate D2E/DX2                !
 ! A80   A(22,24,62)           108.5219         estimate D2E/DX2                !
 ! A81   A(26,24,62)           119.9256         estimate D2E/DX2                !
 ! A82   A(23,25,27)           122.7363         estimate D2E/DX2                !
 ! A83   A(23,25,61)           118.823          estimate D2E/DX2                !
 ! A84   A(27,25,61)           111.0791         estimate D2E/DX2                !
 ! A85   A(3,26,24)            119.0181         estimate D2E/DX2                !
 ! A86   A(3,26,28)            111.2944         estimate D2E/DX2                !
 ! A87   A(24,26,28)           122.361          estimate D2E/DX2                !
 ! A88   A(25,27,29)           110.2235         estimate D2E/DX2                !
 ! A89   A(25,27,65)           100.9962         estimate D2E/DX2                !
 ! A90   A(25,27,93)           113.162          estimate D2E/DX2                !
 ! A91   A(29,27,65)           109.0494         estimate D2E/DX2                !
 ! A92   A(29,27,93)           110.5308         estimate D2E/DX2                !
 ! A93   A(65,27,93)           112.4798         estimate D2E/DX2                !
 ! A94   A(26,28,30)           100.6387         estimate D2E/DX2                !
 ! A95   A(26,28,66)           112.063          estimate D2E/DX2                !
 ! A96   A(26,28,85)           111.6168         estimate D2E/DX2                !
 ! A97   A(30,28,66)           109.9419         estimate D2E/DX2                !
 ! A98   A(30,28,85)           113.2604         estimate D2E/DX2                !
 ! A99   A(66,28,85)           109.1515         estimate D2E/DX2                !
 ! A100  A(5,29,27)            123.3802         estimate D2E/DX2                !
 ! A101  A(5,29,31)            119.3155         estimate D2E/DX2                !
 ! A102  A(27,29,31)           115.6935         estimate D2E/DX2                !
 ! A103  A(7,30,28)            111.1616         estimate D2E/DX2                !
 ! A104  A(7,30,32)            119.4683         estimate D2E/DX2                !
 ! A105  A(28,30,32)           122.308          estimate D2E/DX2                !
 ! A106  A(29,31,33)           120.756          estimate D2E/DX2                !
 ! A107  A(29,31,69)           124.9006         estimate D2E/DX2                !
 ! A108  A(33,31,69)           110.5686         estimate D2E/DX2                !
 ! A109  A(30,32,34)           120.0121         estimate D2E/DX2                !
 ! A110  A(30,32,70)           121.8812         estimate D2E/DX2                !
 ! A111  A(34,32,70)           111.4535         estimate D2E/DX2                !
 ! A112  A(31,33,35)           121.8045         estimate D2E/DX2                !
 ! A113  A(31,33,73)           108.481          estimate D2E/DX2                !
 ! A114  A(35,33,73)           122.6772         estimate D2E/DX2                !
 ! A115  A(32,34,36)           122.5008         estimate D2E/DX2                !
 ! A116  A(32,34,74)           107.506          estimate D2E/DX2                !
 ! A117  A(36,34,74)           121.6552         estimate D2E/DX2                !
 ! A118  A(9,35,33)            116.5343         estimate D2E/DX2                !
 ! A119  A(9,35,37)            121.1455         estimate D2E/DX2                !
 ! A120  A(33,35,37)           118.2398         estimate D2E/DX2                !
 ! A121  A(12,36,34)           116.4598         estimate D2E/DX2                !
 ! A122  A(12,36,38)           119.3825         estimate D2E/DX2                !
 ! A123  A(34,36,38)           119.237          estimate D2E/DX2                !
 ! A124  A(35,37,39)           118.7777         estimate D2E/DX2                !
 ! A125  A(35,37,77)           118.4273         estimate D2E/DX2                !
 ! A126  A(39,37,77)           116.8376         estimate D2E/DX2                !
 ! A127  A(36,38,42)           119.1064         estimate D2E/DX2                !
 ! A128  A(36,38,78)           118.0289         estimate D2E/DX2                !
 ! A129  A(42,38,78)           118.6385         estimate D2E/DX2                !
 ! A130  A(37,39,43)           118.8284         estimate D2E/DX2                !
 ! A131  A(37,39,79)           119.2722         estimate D2E/DX2                !
 ! A132  A(43,39,79)           116.4391         estimate D2E/DX2                !
 ! A133  A(41,40,44)           121.5944         estimate D2E/DX2                !
 ! A134  A(41,40,79)           108.7371         estimate D2E/DX2                !
 ! A135  A(44,40,79)           123.7899         estimate D2E/DX2                !
 ! A136  A(40,41,45)           120.33           estimate D2E/DX2                !
 ! A137  A(40,41,80)           110.258          estimate D2E/DX2                !
 ! A138  A(45,41,80)           125.6649         estimate D2E/DX2                !
 ! A139  A(38,42,46)           120.3052         estimate D2E/DX2                !
 ! A140  A(38,42,80)           121.6245         estimate D2E/DX2                !
 ! A141  A(46,42,80)           116.1278         estimate D2E/DX2                !
 ! A142  A(2,43,13)            110.9617         estimate D2E/DX2                !
 ! A143  A(2,43,39)            123.3713         estimate D2E/DX2                !
 ! A144  A(13,43,39)           121.3549         estimate D2E/DX2                !
 ! A145  A(2,44,40)            115.4496         estimate D2E/DX2                !
 ! A146  A(2,44,47)            124.677          estimate D2E/DX2                !
 ! A147  A(40,44,47)           118.5837         estimate D2E/DX2                !
 ! A148  A(4,45,41)            115.6654         estimate D2E/DX2                !
 ! A149  A(4,45,48)            123.8482         estimate D2E/DX2                !
 ! A150  A(41,45,48)           118.9681         estimate D2E/DX2                !
 ! A151  A(4,46,14)            109.3216         estimate D2E/DX2                !
 ! A152  A(4,46,42)            125.6725         estimate D2E/DX2                !
 ! A153  A(14,46,42)           120.8054         estimate D2E/DX2                !
 ! A154  A(44,47,48)           119.9015         estimate D2E/DX2                !
 ! A155  A(44,47,49)           118.6859         estimate D2E/DX2                !
 ! A156  A(48,47,49)           120.697          estimate D2E/DX2                !
 ! A157  A(45,48,47)           120.4935         estimate D2E/DX2                !
 ! A158  A(45,48,50)           118.4684         estimate D2E/DX2                !
 ! A159  A(47,48,50)           120.3091         estimate D2E/DX2                !
 ! A160  A(10,49,47)           110.7345         estimate D2E/DX2                !
 ! A161  A(10,49,51)           101.2831         estimate D2E/DX2                !
 ! A162  A(10,49,90)           113.1618         estimate D2E/DX2                !
 ! A163  A(47,49,51)           109.0306         estimate D2E/DX2                !
 ! A164  A(47,49,90)           108.7577         estimate D2E/DX2                !
 ! A165  A(51,49,90)           113.679          estimate D2E/DX2                !
 ! A166  A(11,50,48)           110.3482         estimate D2E/DX2                !
 ! A167  A(11,50,52)           100.8933         estimate D2E/DX2                !
 ! A168  A(11,50,89)           112.9963         estimate D2E/DX2                !
 ! A169  A(48,50,52)           109.5019         estimate D2E/DX2                !
 ! A170  A(48,50,89)           109.1607         estimate D2E/DX2                !
 ! A171  A(52,50,89)           113.697          estimate D2E/DX2                !
 ! A172  A(49,51,52)           121.7234         estimate D2E/DX2                !
 ! A173  A(49,51,55)           111.4448         estimate D2E/DX2                !
 ! A174  A(52,51,55)           119.9986         estimate D2E/DX2                !
 ! A175  A(50,52,51)           122.5423         estimate D2E/DX2                !
 ! A176  A(50,52,56)           111.3488         estimate D2E/DX2                !
 ! A177  A(51,52,56)           119.3333         estimate D2E/DX2                !
 ! A178  A(10,53,19)           121.0156         estimate D2E/DX2                !
 ! A179  A(10,53,55)           109.7338         estimate D2E/DX2                !
 ! A180  A(19,53,55)           119.3375         estimate D2E/DX2                !
 ! A181  A(11,54,20)           122.0762         estimate D2E/DX2                !
 ! A182  A(11,54,56)           108.3624         estimate D2E/DX2                !
 ! A183  A(20,54,56)           121.6621         estimate D2E/DX2                !
 ! A184  A(51,55,53)           107.1292         estimate D2E/DX2                !
 ! A185  A(51,55,83)           122.8397         estimate D2E/DX2                !
 ! A186  A(53,55,83)           122.128          estimate D2E/DX2                !
 ! A187  A(52,56,54)           108.3072         estimate D2E/DX2                !
 ! A188  A(52,56,84)           121.6429         estimate D2E/DX2                !
 ! A189  A(54,56,84)           121.8577         estimate D2E/DX2                !
 ! A190  A(21,57,59)           116.3652         estimate D2E/DX2                !
 ! A191  A(21,57,83)           118.6564         estimate D2E/DX2                !
 ! A192  A(59,57,83)           119.5611         estimate D2E/DX2                !
 ! A193  A(22,58,60)           108.1908         estimate D2E/DX2                !
 ! A194  A(22,58,84)           122.3497         estimate D2E/DX2                !
 ! A195  A(60,58,84)           120.6477         estimate D2E/DX2                !
 ! A196  A(57,59,60)           119.8673         estimate D2E/DX2                !
 ! A197  A(57,59,61)           119.3064         estimate D2E/DX2                !
 ! A198  A(60,59,61)           115.2226         estimate D2E/DX2                !
 ! A199  A(58,60,59)           120.271          estimate D2E/DX2                !
 ! A200  A(58,60,62)           108.8514         estimate D2E/DX2                !
 ! A201  A(59,60,62)           123.0181         estimate D2E/DX2                !
 ! A202  A(25,61,59)           122.3863         estimate D2E/DX2                !
 ! A203  A(25,61,63)           107.6317         estimate D2E/DX2                !
 ! A204  A(59,61,63)           120.7406         estimate D2E/DX2                !
 ! A205  A(24,62,60)           107.0953         estimate D2E/DX2                !
 ! A206  A(24,62,64)           119.4229         estimate D2E/DX2                !
 ! A207  A(60,62,64)           120.9026         estimate D2E/DX2                !
 ! A208  A(61,63,64)           122.8094         estimate D2E/DX2                !
 ! A209  A(61,63,65)           109.4302         estimate D2E/DX2                !
 ! A210  A(64,63,65)           121.3261         estimate D2E/DX2                !
 ! A211  A(62,64,63)           115.0031         estimate D2E/DX2                !
 ! A212  A(62,64,66)           122.1193         estimate D2E/DX2                !
 ! A213  A(63,64,66)           118.0732         estimate D2E/DX2                !
 ! A214  A(27,65,63)           109.7911         estimate D2E/DX2                !
 ! A215  A(27,65,67)           125.621          estimate D2E/DX2                !
 ! A216  A(63,65,67)           120.4625         estimate D2E/DX2                !
 ! A217  A(28,66,64)           117.3084         estimate D2E/DX2                !
 ! A218  A(28,66,68)           121.2078         estimate D2E/DX2                !
 ! A219  A(64,66,68)           120.1904         estimate D2E/DX2                !
 ! A220  A(65,67,68)           119.3704         estimate D2E/DX2                !
 ! A221  A(65,67,69)           115.3865         estimate D2E/DX2                !
 ! A222  A(68,67,69)           123.6443         estimate D2E/DX2                !
 ! A223  A(66,68,67)           120.4768         estimate D2E/DX2                !
 ! A224  A(66,68,70)           120.1899         estimate D2E/DX2                !
 ! A225  A(67,68,70)           118.7037         estimate D2E/DX2                !
 ! A226  A(31,69,67)           108.9206         estimate D2E/DX2                !
 ! A227  A(31,69,71)           101.4542         estimate D2E/DX2                !
 ! A228  A(31,69,92)           112.0023         estimate D2E/DX2                !
 ! A229  A(67,69,71)           111.2769         estimate D2E/DX2                !
 ! A230  A(67,69,92)           110.2334         estimate D2E/DX2                !
 ! A231  A(71,69,92)           112.638          estimate D2E/DX2                !
 ! A232  A(32,70,68)           109.4852         estimate D2E/DX2                !
 ! A233  A(32,70,72)           101.0947         estimate D2E/DX2                !
 ! A234  A(32,70,86)           113.3188         estimate D2E/DX2                !
 ! A235  A(68,70,72)           111.2908         estimate D2E/DX2                !
 ! A236  A(68,70,86)           108.6504         estimate D2E/DX2                !
 ! A237  A(72,70,86)           112.8531         estimate D2E/DX2                !
 ! A238  A(69,71,72)           122.7356         estimate D2E/DX2                !
 ! A239  A(69,71,73)           109.4937         estimate D2E/DX2                !
 ! A240  A(72,71,73)           119.4162         estimate D2E/DX2                !
 ! A241  A(70,72,71)           123.2034         estimate D2E/DX2                !
 ! A242  A(70,72,74)           109.9016         estimate D2E/DX2                !
 ! A243  A(71,72,74)           119.0792         estimate D2E/DX2                !
 ! A244  A(33,73,71)           108.7636         estimate D2E/DX2                !
 ! A245  A(33,73,75)           118.7184         estimate D2E/DX2                !
 ! A246  A(71,73,75)           121.9729         estimate D2E/DX2                !
 ! A247  A(34,74,72)           109.3248         estimate D2E/DX2                !
 ! A248  A(34,74,76)           118.7295         estimate D2E/DX2                !
 ! A249  A(72,74,76)           121.8583         estimate D2E/DX2                !
 ! A250  A(73,75,76)           118.9153         estimate D2E/DX2                !
 ! A251  A(73,75,77)           120.0355         estimate D2E/DX2                !
 ! A252  A(76,75,77)           108.6459         estimate D2E/DX2                !
 ! A253  A(74,76,75)           118.4634         estimate D2E/DX2                !
 ! A254  A(74,76,78)           120.6688         estimate D2E/DX2                !
 ! A255  A(75,76,78)           108.4471         estimate D2E/DX2                !
 ! A256  A(37,77,75)           121.8576         estimate D2E/DX2                !
 ! A257  A(37,77,81)           121.558          estimate D2E/DX2                !
 ! A258  A(75,77,81)           106.6441         estimate D2E/DX2                !
 ! A259  A(38,78,76)           121.3331         estimate D2E/DX2                !
 ! A260  A(38,78,81)           120.2219         estimate D2E/DX2                !
 ! A261  A(76,78,81)           106.4698         estimate D2E/DX2                !
 ! A262  A(39,79,40)           118.8313         estimate D2E/DX2                !
 ! A263  A(39,79,82)           122.2626         estimate D2E/DX2                !
 ! A264  A(40,79,82)           107.3879         estimate D2E/DX2                !
 ! A265  A(41,80,42)           110.222          estimate D2E/DX2                !
 ! A266  A(41,80,82)           100.5646         estimate D2E/DX2                !
 ! A267  A(41,80,87)           111.5143         estimate D2E/DX2                !
 ! A268  A(42,80,82)           112.1837         estimate D2E/DX2                !
 ! A269  A(42,80,87)           109.7591         estimate D2E/DX2                !
 ! A270  A(82,80,87)           112.3296         estimate D2E/DX2                !
 ! A271  A(77,81,78)           108.8472         estimate D2E/DX2                !
 ! A272  A(77,81,82)           119.9105         estimate D2E/DX2                !
 ! A273  A(78,81,82)           120.8161         estimate D2E/DX2                !
 ! A274  A(79,82,80)           111.7255         estimate D2E/DX2                !
 ! A275  A(79,82,81)           119.1691         estimate D2E/DX2                !
 ! A276  A(80,82,81)           121.6685         estimate D2E/DX2                !
 ! A277  A(55,83,57)           118.4352         estimate D2E/DX2                !
 ! A278  A(55,83,84)           116.5649         estimate D2E/DX2                !
 ! A279  A(57,83,84)           119.7246         estimate D2E/DX2                !
 ! A280  A(56,84,58)           115.4617         estimate D2E/DX2                !
 ! A281  A(56,84,83)           119.3012         estimate D2E/DX2                !
 ! A282  A(58,84,83)           119.7166         estimate D2E/DX2                !
 ! D1    D(17,1,5,9)            22.1804         estimate D2E/DX2                !
 ! D2    D(17,1,5,29)         -146.1206         estimate D2E/DX2                !
 ! D3    D(23,1,5,9)           134.1879         estimate D2E/DX2                !
 ! D4    D(23,1,5,29)          -34.113          estimate D2E/DX2                !
 ! D5    D(94,1,5,9)          -102.2683         estimate D2E/DX2                !
 ! D6    D(94,1,5,29)           89.4307         estimate D2E/DX2                !
 ! D7    D(5,1,17,15)          -21.8986         estimate D2E/DX2                !
 ! D8    D(5,1,17,19)          123.9698         estimate D2E/DX2                !
 ! D9    D(23,1,17,15)        -139.485          estimate D2E/DX2                !
 ! D10   D(23,1,17,19)           6.3834         estimate D2E/DX2                !
 ! D11   D(94,1,17,15)         100.1279         estimate D2E/DX2                !
 ! D12   D(94,1,17,19)        -114.0037         estimate D2E/DX2                !
 ! D13   D(5,1,23,21)         -121.7183         estimate D2E/DX2                !
 ! D14   D(5,1,23,25)           29.3935         estimate D2E/DX2                !
 ! D15   D(17,1,23,21)          -2.2835         estimate D2E/DX2                !
 ! D16   D(17,1,23,25)         148.8283         estimate D2E/DX2                !
 ! D17   D(94,1,23,21)         117.6713         estimate D2E/DX2                !
 ! D18   D(94,1,23,25)         -91.217          estimate D2E/DX2                !
 ! D19   D(43,2,6,10)         -138.2928         estimate D2E/DX2                !
 ! D20   D(43,2,6,15)            9.9549         estimate D2E/DX2                !
 ! D21   D(44,2,6,10)          -21.4994         estimate D2E/DX2                !
 ! D22   D(44,2,6,15)          126.7483         estimate D2E/DX2                !
 ! D23   D(91,2,6,10)          101.362          estimate D2E/DX2                !
 ! D24   D(91,2,6,15)         -110.3903         estimate D2E/DX2                !
 ! D25   D(6,2,43,13)           -7.298          estimate D2E/DX2                !
 ! D26   D(6,2,43,39)          149.5629         estimate D2E/DX2                !
 ! D27   D(44,2,43,13)        -124.5579         estimate D2E/DX2                !
 ! D28   D(44,2,43,39)          32.303          estimate D2E/DX2                !
 ! D29   D(91,2,43,13)         113.6274         estimate D2E/DX2                !
 ! D30   D(91,2,43,39)         -89.5117         estimate D2E/DX2                !
 ! D31   D(6,2,44,40)         -147.9254         estimate D2E/DX2                !
 ! D32   D(6,2,44,47)           18.8672         estimate D2E/DX2                !
 ! D33   D(43,2,44,40)         -36.5052         estimate D2E/DX2                !
 ! D34   D(43,2,44,47)         130.2873         estimate D2E/DX2                !
 ! D35   D(91,2,44,40)          87.0468         estimate D2E/DX2                !
 ! D36   D(91,2,44,47)        -106.1606         estimate D2E/DX2                !
 ! D37   D(18,3,7,12)            3.2679         estimate D2E/DX2                !
 ! D38   D(18,3,7,30)          151.8582         estimate D2E/DX2                !
 ! D39   D(26,3,7,12)         -145.0797         estimate D2E/DX2                !
 ! D40   D(26,3,7,30)            3.5106         estimate D2E/DX2                !
 ! D41   D(7,3,18,16)            5.9487         estimate D2E/DX2                !
 ! D42   D(7,3,18,20)         -144.0058         estimate D2E/DX2                !
 ! D43   D(26,3,18,16)         149.9708         estimate D2E/DX2                !
 ! D44   D(26,3,18,20)           0.0163         estimate D2E/DX2                !
 ! D45   D(7,3,26,24)          145.2104         estimate D2E/DX2                !
 ! D46   D(7,3,26,28)           -5.617          estimate D2E/DX2                !
 ! D47   D(18,3,26,24)          -3.2063         estimate D2E/DX2                !
 ! D48   D(18,3,26,28)        -154.0337         estimate D2E/DX2                !
 ! D49   D(45,4,8,11)           23.6975         estimate D2E/DX2                !
 ! D50   D(45,4,8,16)         -126.0691         estimate D2E/DX2                !
 ! D51   D(46,4,8,11)          140.1617         estimate D2E/DX2                !
 ! D52   D(46,4,8,16)           -9.6049         estimate D2E/DX2                !
 ! D53   D(88,4,8,11)         -100.2313         estimate D2E/DX2                !
 ! D54   D(88,4,8,16)          110.0021         estimate D2E/DX2                !
 ! D55   D(8,4,45,41)          144.5322         estimate D2E/DX2                !
 ! D56   D(8,4,45,48)          -21.2245         estimate D2E/DX2                !
 ! D57   D(46,4,45,41)          33.6055         estimate D2E/DX2                !
 ! D58   D(46,4,45,48)        -132.1512         estimate D2E/DX2                !
 ! D59   D(88,4,45,41)         -89.754          estimate D2E/DX2                !
 ! D60   D(88,4,45,48)         104.4893         estimate D2E/DX2                !
 ! D61   D(8,4,46,14)           11.0052         estimate D2E/DX2                !
 ! D62   D(8,4,46,42)         -145.8812         estimate D2E/DX2                !
 ! D63   D(45,4,46,14)         127.6763         estimate D2E/DX2                !
 ! D64   D(45,4,46,42)         -29.2101         estimate D2E/DX2                !
 ! D65   D(88,4,46,14)        -109.8022         estimate D2E/DX2                !
 ! D66   D(88,4,46,42)          93.3114         estimate D2E/DX2                !
 ! D67   D(1,5,9,13)           -11.7322         estimate D2E/DX2                !
 ! D68   D(1,5,9,35)          -169.9199         estimate D2E/DX2                !
 ! D69   D(29,5,9,13)          156.3712         estimate D2E/DX2                !
 ! D70   D(29,5,9,35)           -1.8165         estimate D2E/DX2                !
 ! D71   D(1,5,29,27)           10.4054         estimate D2E/DX2                !
 ! D72   D(1,5,29,31)          175.2995         estimate D2E/DX2                !
 ! D73   D(9,5,29,27)         -157.9455         estimate D2E/DX2                !
 ! D74   D(9,5,29,31)            6.9486         estimate D2E/DX2                !
 ! D75   D(2,6,10,49)           -0.9308         estimate D2E/DX2                !
 ! D76   D(2,6,10,53)          144.4996         estimate D2E/DX2                !
 ! D77   D(15,6,10,49)        -145.9131         estimate D2E/DX2                !
 ! D78   D(15,6,10,53)          -0.4826         estimate D2E/DX2                !
 ! D79   D(2,6,15,13)           -9.3971         estimate D2E/DX2                !
 ! D80   D(2,6,15,17)         -154.8267         estimate D2E/DX2                !
 ! D81   D(10,6,15,13)         139.5175         estimate D2E/DX2                !
 ! D82   D(10,6,15,17)          -5.9121         estimate D2E/DX2                !
 ! D83   D(3,7,12,14)           -8.68           estimate D2E/DX2                !
 ! D84   D(3,7,12,36)          145.3546         estimate D2E/DX2                !
 ! D85   D(30,7,12,14)        -153.4025         estimate D2E/DX2                !
 ! D86   D(30,7,12,36)           0.6321         estimate D2E/DX2                !
 ! D87   D(3,7,30,28)           -0.15           estimate D2E/DX2                !
 ! D88   D(3,7,30,32)         -151.434          estimate D2E/DX2                !
 ! D89   D(12,7,30,28)         148.5288         estimate D2E/DX2                !
 ! D90   D(12,7,30,32)          -2.7551         estimate D2E/DX2                !
 ! D91   D(4,8,11,50)            1.7169         estimate D2E/DX2                !
 ! D92   D(4,8,11,54)         -146.6411         estimate D2E/DX2                !
 ! D93   D(16,8,11,50)         148.7859         estimate D2E/DX2                !
 ! D94   D(16,8,11,54)           0.4279         estimate D2E/DX2                !
 ! D95   D(4,8,16,14)            4.957          estimate D2E/DX2                !
 ! D96   D(4,8,16,18)          153.8001         estimate D2E/DX2                !
 ! D97   D(11,8,16,14)        -145.6431         estimate D2E/DX2                !
 ! D98   D(11,8,16,18)           3.2            estimate D2E/DX2                !
 ! D99   D(5,9,13,15)           -1.2172         estimate D2E/DX2                !
 ! D100  D(5,9,13,43)         -145.9365         estimate D2E/DX2                !
 ! D101  D(35,9,13,15)         157.8626         estimate D2E/DX2                !
 ! D102  D(35,9,13,43)          13.1433         estimate D2E/DX2                !
 ! D103  D(5,9,35,33)           -6.2652         estimate D2E/DX2                !
 ! D104  D(5,9,35,37)          150.6166         estimate D2E/DX2                !
 ! D105  D(13,9,35,33)        -165.042          estimate D2E/DX2                !
 ! D106  D(13,9,35,37)          -8.1602         estimate D2E/DX2                !
 ! D107  D(6,10,49,47)          26.031          estimate D2E/DX2                !
 ! D108  D(6,10,49,51)         141.5654         estimate D2E/DX2                !
 ! D109  D(6,10,49,90)         -96.3761         estimate D2E/DX2                !
 ! D110  D(53,10,49,47)       -121.9003         estimate D2E/DX2                !
 ! D111  D(53,10,49,51)         -6.3659         estimate D2E/DX2                !
 ! D112  D(53,10,49,90)        115.6926         estimate D2E/DX2                !
 ! D113  D(6,10,53,19)           3.7783         estimate D2E/DX2                !
 ! D114  D(6,10,53,55)        -141.611          estimate D2E/DX2                !
 ! D115  D(49,10,53,19)        153.6926         estimate D2E/DX2                !
 ! D116  D(49,10,53,55)          8.3033         estimate D2E/DX2                !
 ! D117  D(8,11,50,48)         -29.4353         estimate D2E/DX2                !
 ! D118  D(8,11,50,52)        -145.1547         estimate D2E/DX2                !
 ! D119  D(8,11,50,89)          93.0907         estimate D2E/DX2                !
 ! D120  D(54,11,50,48)        121.3093         estimate D2E/DX2                !
 ! D121  D(54,11,50,52)          5.5899         estimate D2E/DX2                !
 ! D122  D(54,11,50,89)       -116.1648         estimate D2E/DX2                !
 ! D123  D(8,11,54,20)          -3.0803         estimate D2E/DX2                !
 ! D124  D(8,11,54,56)         146.319          estimate D2E/DX2                !
 ! D125  D(50,11,54,20)       -155.0066         estimate D2E/DX2                !
 ! D126  D(50,11,54,56)         -5.6073         estimate D2E/DX2                !
 ! D127  D(7,12,14,16)           5.1081         estimate D2E/DX2                !
 ! D128  D(7,12,14,46)         152.6253         estimate D2E/DX2                !
 ! D129  D(36,12,14,16)       -149.1177         estimate D2E/DX2                !
 ! D130  D(36,12,14,46)         -1.6005         estimate D2E/DX2                !
 ! D131  D(7,12,36,34)           4.4152         estimate D2E/DX2                !
 ! D132  D(7,12,36,38)        -150.5915         estimate D2E/DX2                !
 ! D133  D(14,12,36,34)        157.5731         estimate D2E/DX2                !
 ! D134  D(14,12,36,38)          2.5664         estimate D2E/DX2                !
 ! D135  D(9,13,15,6)         -144.2702         estimate D2E/DX2                !
 ! D136  D(9,13,15,17)           1.9566         estimate D2E/DX2                !
 ! D137  D(43,13,15,6)           4.5335         estimate D2E/DX2                !
 ! D138  D(43,13,15,17)        150.7603         estimate D2E/DX2                !
 ! D139  D(9,13,43,2)          150.5907         estimate D2E/DX2                !
 ! D140  D(9,13,43,39)          -6.8092         estimate D2E/DX2                !
 ! D141  D(15,13,43,2)           2.0476         estimate D2E/DX2                !
 ! D142  D(15,13,43,39)       -155.3523         estimate D2E/DX2                !
 ! D143  D(12,14,16,8)         153.309          estimate D2E/DX2                !
 ! D144  D(12,14,16,18)          4.15           estimate D2E/DX2                !
 ! D145  D(46,14,16,8)           2.4631         estimate D2E/DX2                !
 ! D146  D(46,14,16,18)       -146.6959         estimate D2E/DX2                !
 ! D147  D(12,14,46,4)        -160.16           estimate D2E/DX2                !
 ! D148  D(12,14,46,42)         -1.9547         estimate D2E/DX2                !
 ! D149  D(16,14,46,4)          -8.8154         estimate D2E/DX2                !
 ! D150  D(16,14,46,42)        149.3899         estimate D2E/DX2                !
 ! D151  D(6,15,17,1)          152.2596         estimate D2E/DX2                !
 ! D152  D(6,15,17,19)           8.6288         estimate D2E/DX2                !
 ! D153  D(13,15,17,1)          10.6816         estimate D2E/DX2                !
 ! D154  D(13,15,17,19)       -132.9491         estimate D2E/DX2                !
 ! D155  D(8,16,18,3)         -154.4176         estimate D2E/DX2                !
 ! D156  D(8,16,18,20)          -4.0902         estimate D2E/DX2                !
 ! D157  D(14,16,18,3)          -9.5209         estimate D2E/DX2                !
 ! D158  D(14,16,18,20)        140.8064         estimate D2E/DX2                !
 ! D159  D(1,17,19,21)          -8.3847         estimate D2E/DX2                !
 ! D160  D(1,17,19,53)        -152.8605         estimate D2E/DX2                !
 ! D161  D(15,17,19,21)        139.2685         estimate D2E/DX2                !
 ! D162  D(15,17,19,53)         -5.2072         estimate D2E/DX2                !
 ! D163  D(3,18,20,22)           2.2232         estimate D2E/DX2                !
 ! D164  D(3,18,20,54)         150.7782         estimate D2E/DX2                !
 ! D165  D(16,18,20,22)       -147.1326         estimate D2E/DX2                !
 ! D166  D(16,18,20,54)          1.4224         estimate D2E/DX2                !
 ! D167  D(17,19,21,23)          6.6115         estimate D2E/DX2                !
 ! D168  D(17,19,21,57)       -142.3773         estimate D2E/DX2                !
 ! D169  D(53,19,21,23)        151.3621         estimate D2E/DX2                !
 ! D170  D(53,19,21,57)          2.3732         estimate D2E/DX2                !
 ! D171  D(17,19,53,10)         -0.9341         estimate D2E/DX2                !
 ! D172  D(17,19,53,55)        141.2378         estimate D2E/DX2                !
 ! D173  D(21,19,53,10)       -141.7602         estimate D2E/DX2                !
 ! D174  D(21,19,53,55)          0.4116         estimate D2E/DX2                !
 ! D175  D(18,20,22,24)         -1.3993         estimate D2E/DX2                !
 ! D176  D(18,20,22,58)        139.5271         estimate D2E/DX2                !
 ! D177  D(54,20,22,24)       -150.7526         estimate D2E/DX2                !
 ! D178  D(54,20,22,58)         -9.8263         estimate D2E/DX2                !
 ! D179  D(18,20,54,11)          2.0977         estimate D2E/DX2                !
 ! D180  D(18,20,54,56)       -143.318          estimate D2E/DX2                !
 ! D181  D(22,20,54,11)        151.395          estimate D2E/DX2                !
 ! D182  D(22,20,54,56)          5.9792         estimate D2E/DX2                !
 ! D183  D(19,21,23,1)          -2.4671         estimate D2E/DX2                !
 ! D184  D(19,21,23,25)       -154.254          estimate D2E/DX2                !
 ! D185  D(57,21,23,1)         146.0596         estimate D2E/DX2                !
 ! D186  D(57,21,23,25)         -5.7273         estimate D2E/DX2                !
 ! D187  D(19,21,57,59)        151.2167         estimate D2E/DX2                !
 ! D188  D(19,21,57,83)         -2.7261         estimate D2E/DX2                !
 ! D189  D(23,21,57,59)          7.0633         estimate D2E/DX2                !
 ! D190  D(23,21,57,83)       -146.8796         estimate D2E/DX2                !
 ! D191  D(20,22,24,26)         -1.8153         estimate D2E/DX2                !
 ! D192  D(20,22,24,62)        142.5835         estimate D2E/DX2                !
 ! D193  D(58,22,24,26)       -147.6752         estimate D2E/DX2                !
 ! D194  D(58,22,24,62)         -3.2764         estimate D2E/DX2                !
 ! D195  D(20,22,58,60)       -143.2854         estimate D2E/DX2                !
 ! D196  D(20,22,58,84)          4.2033         estimate D2E/DX2                !
 ! D197  D(24,22,58,60)          2.222          estimate D2E/DX2                !
 ! D198  D(24,22,58,84)        149.7107         estimate D2E/DX2                !
 ! D199  D(1,23,25,27)           0.7346         estimate D2E/DX2                !
 ! D200  D(1,23,25,61)        -146.5951         estimate D2E/DX2                !
 ! D201  D(21,23,25,27)        149.4284         estimate D2E/DX2                !
 ! D202  D(21,23,25,61)          2.0987         estimate D2E/DX2                !
 ! D203  D(22,24,26,3)           4.0591         estimate D2E/DX2                !
 ! D204  D(22,24,26,28)        151.5342         estimate D2E/DX2                !
 ! D205  D(62,24,26,3)        -136.3797         estimate D2E/DX2                !
 ! D206  D(62,24,26,28)         11.0954         estimate D2E/DX2                !
 ! D207  D(22,24,62,60)          3.0676         estimate D2E/DX2                !
 ! D208  D(22,24,62,64)       -139.1502         estimate D2E/DX2                !
 ! D209  D(26,24,62,60)        147.856          estimate D2E/DX2                !
 ! D210  D(26,24,62,64)          5.6382         estimate D2E/DX2                !
 ! D211  D(23,25,27,29)        -25.46           estimate D2E/DX2                !
 ! D212  D(23,25,27,65)       -140.6686         estimate D2E/DX2                !
 ! D213  D(23,25,27,93)         98.8814         estimate D2E/DX2                !
 ! D214  D(61,25,27,29)        124.0861         estimate D2E/DX2                !
 ! D215  D(61,25,27,65)          8.8775         estimate D2E/DX2                !
 ! D216  D(61,25,27,93)       -111.5725         estimate D2E/DX2                !
 ! D217  D(23,25,61,59)         -0.3532         estimate D2E/DX2                !
 ! D218  D(23,25,61,63)        146.4434         estimate D2E/DX2                !
 ! D219  D(27,25,61,59)       -151.234          estimate D2E/DX2                !
 ! D220  D(27,25,61,63)         -4.4374         estimate D2E/DX2                !
 ! D221  D(3,26,28,30)           5.1922         estimate D2E/DX2                !
 ! D222  D(3,26,28,66)         121.9736         estimate D2E/DX2                !
 ! D223  D(3,26,28,85)        -115.2489         estimate D2E/DX2                !
 ! D224  D(24,26,28,30)       -144.5015         estimate D2E/DX2                !
 ! D225  D(24,26,28,66)        -27.7201         estimate D2E/DX2                !
 ! D226  D(24,26,28,85)         95.0575         estimate D2E/DX2                !
 ! D227  D(25,27,29,5)          19.497          estimate D2E/DX2                !
 ! D228  D(25,27,29,31)       -145.8975         estimate D2E/DX2                !
 ! D229  D(65,27,29,5)         129.5113         estimate D2E/DX2                !
 ! D230  D(65,27,29,31)        -35.8832         estimate D2E/DX2                !
 ! D231  D(93,27,29,5)        -106.346          estimate D2E/DX2                !
 ! D232  D(93,27,29,31)         88.2595         estimate D2E/DX2                !
 ! D233  D(25,27,65,63)        -10.348          estimate D2E/DX2                !
 ! D234  D(25,27,65,67)        146.6726         estimate D2E/DX2                !
 ! D235  D(29,27,65,63)       -126.4292         estimate D2E/DX2                !
 ! D236  D(29,27,65,67)         30.5914         estimate D2E/DX2                !
 ! D237  D(93,27,65,63)        110.5857         estimate D2E/DX2                !
 ! D238  D(93,27,65,67)        -92.3938         estimate D2E/DX2                !
 ! D239  D(26,28,30,7)          -2.9806         estimate D2E/DX2                !
 ! D240  D(26,28,30,32)        147.3541         estimate D2E/DX2                !
 ! D241  D(66,28,30,7)        -121.3222         estimate D2E/DX2                !
 ! D242  D(66,28,30,32)         29.0125         estimate D2E/DX2                !
 ! D243  D(85,28,30,7)         116.2776         estimate D2E/DX2                !
 ! D244  D(85,28,30,32)        -93.3877         estimate D2E/DX2                !
 ! D245  D(26,28,66,64)         28.6431         estimate D2E/DX2                !
 ! D246  D(26,28,66,68)       -138.3888         estimate D2E/DX2                !
 ! D247  D(30,28,66,64)        139.6796         estimate D2E/DX2                !
 ! D248  D(30,28,66,68)        -27.3523         estimate D2E/DX2                !
 ! D249  D(85,28,66,64)        -95.5201         estimate D2E/DX2                !
 ! D250  D(85,28,66,68)         97.448          estimate D2E/DX2                !
 ! D251  D(5,29,31,33)          -3.7636         estimate D2E/DX2                !
 ! D252  D(5,29,31,69)        -159.775          estimate D2E/DX2                !
 ! D253  D(27,29,31,33)        162.2618         estimate D2E/DX2                !
 ! D254  D(27,29,31,69)          6.2504         estimate D2E/DX2                !
 ! D255  D(7,30,32,34)          -0.3923         estimate D2E/DX2                !
 ! D256  D(7,30,32,70)         148.5557         estimate D2E/DX2                !
 ! D257  D(28,30,32,34)       -148.3772         estimate D2E/DX2                !
 ! D258  D(28,30,32,70)          0.5708         estimate D2E/DX2                !
 ! D259  D(29,31,33,35)         -4.7817         estimate D2E/DX2                !
 ! D260  D(29,31,33,73)       -156.0766         estimate D2E/DX2                !
 ! D261  D(69,31,33,35)        154.3551         estimate D2E/DX2                !
 ! D262  D(69,31,33,73)          3.0603         estimate D2E/DX2                !
 ! D263  D(29,31,69,67)         32.0304         estimate D2E/DX2                !
 ! D264  D(29,31,69,71)        149.4724         estimate D2E/DX2                !
 ! D265  D(29,31,69,92)        -90.1662         estimate D2E/DX2                !
 ! D266  D(33,31,69,67)       -126.0588         estimate D2E/DX2                !
 ! D267  D(33,31,69,71)         -8.6168         estimate D2E/DX2                !
 ! D268  D(33,31,69,92)        111.7446         estimate D2E/DX2                !
 ! D269  D(30,32,34,36)          5.8535         estimate D2E/DX2                !
 ! D270  D(30,32,34,74)        154.4402         estimate D2E/DX2                !
 ! D271  D(70,32,34,36)       -146.0727         estimate D2E/DX2                !
 ! D272  D(70,32,34,74)          2.514          estimate D2E/DX2                !
 ! D273  D(30,32,70,68)        -31.1167         estimate D2E/DX2                !
 ! D274  D(30,32,70,72)       -148.6252         estimate D2E/DX2                !
 ! D275  D(30,32,70,86)         90.3441         estimate D2E/DX2                !
 ! D276  D(34,32,70,68)        120.2041         estimate D2E/DX2                !
 ! D277  D(34,32,70,72)          2.6956         estimate D2E/DX2                !
 ! D278  D(34,32,70,86)       -118.3351         estimate D2E/DX2                !
 ! D279  D(31,33,35,9)           9.6017         estimate D2E/DX2                !
 ! D280  D(31,33,35,37)       -147.9757         estimate D2E/DX2                !
 ! D281  D(73,33,35,9)         156.8372         estimate D2E/DX2                !
 ! D282  D(73,33,35,37)         -0.7402         estimate D2E/DX2                !
 ! D283  D(31,33,73,71)          4.3139         estimate D2E/DX2                !
 ! D284  D(31,33,73,75)        149.7821         estimate D2E/DX2                !
 ! D285  D(35,33,73,71)       -146.6776         estimate D2E/DX2                !
 ! D286  D(35,33,73,75)         -1.2094         estimate D2E/DX2                !
 ! D287  D(32,34,36,12)         -7.7145         estimate D2E/DX2                !
 ! D288  D(32,34,36,38)        147.3303         estimate D2E/DX2                !
 ! D289  D(74,34,36,12)       -151.9858         estimate D2E/DX2                !
 ! D290  D(74,34,36,38)          3.0589         estimate D2E/DX2                !
 ! D291  D(32,34,74,72)         -7.0823         estimate D2E/DX2                !
 ! D292  D(32,34,74,76)       -153.1895         estimate D2E/DX2                !
 ! D293  D(36,34,74,72)        141.826          estimate D2E/DX2                !
 ! D294  D(36,34,74,76)         -4.2812         estimate D2E/DX2                !
 ! D295  D(9,35,37,39)          -2.8407         estimate D2E/DX2                !
 ! D296  D(9,35,37,77)        -154.8493         estimate D2E/DX2                !
 ! D297  D(33,35,37,39)        153.6603         estimate D2E/DX2                !
 ! D298  D(33,35,37,77)          1.6517         estimate D2E/DX2                !
 ! D299  D(12,36,38,42)         -0.1775         estimate D2E/DX2                !
 ! D300  D(12,36,38,78)        156.4332         estimate D2E/DX2                !
[...]
 Alpha virt. eigenvalues --    1.33242   1.33669   1.33928   1.34487   1.34863
 Alpha virt. eigenvalues --    1.34988   1.35192   1.35641   1.36215   1.36719
 Alpha virt. eigenvalues --    1.37079   1.37441   1.37946   1.38064   1.38773
 Alpha virt. eigenvalues --    1.38937   1.39280   1.40296   1.40392   1.40956
 Alpha virt. eigenvalues --    1.41646   1.42023   1.42783   1.43080   1.43903
 Alpha virt. eigenvalues --    1.44029   1.44749   1.45187   1.45681   1.45923
 Alpha virt. eigenvalues --    1.46211   1.46729   1.47211   1.48380   1.48628
 Alpha virt. eigenvalues --    1.49024   1.49732   1.50411   1.50850   1.51593
 Alpha virt. eigenvalues --    1.51953   1.52170   1.52283   1.53521   1.53657
 Alpha virt. eigenvalues --    1.54466   1.54686   1.55440   1.55729   1.56414
 Alpha virt. eigenvalues --    1.57342   1.58210   1.58497   1.58701   1.59086
 Alpha virt. eigenvalues --    1.59669   1.59948   1.60314   1.60793   1.61548
 Alpha virt. eigenvalues --    1.61873   1.62204   1.62382   1.62618   1.63158
 Alpha virt. eigenvalues --    1.63723   1.63868   1.64302   1.64472   1.64715
 Alpha virt. eigenvalues --    1.64818   1.65097   1.65394   1.65670   1.66027
 Alpha virt. eigenvalues --    1.66070   1.66269   1.66641   1.66731   1.66963
 Alpha virt. eigenvalues --    1.67221   1.67809   1.67958   1.68210   1.68438
 Alpha virt. eigenvalues --    1.68588   1.68640   1.68919   1.69048   1.69311
 Alpha virt. eigenvalues --    1.69499   1.69921   1.70080   1.70338   1.70509
 Alpha virt. eigenvalues --    1.70877   1.71014   1.71322   1.71500   1.71663
 Alpha virt. eigenvalues --    1.71837   1.72082   1.72429   1.72823   1.73025
 Alpha virt. eigenvalues --    1.73350   1.73661   1.74053   1.74190   1.74403
 Alpha virt. eigenvalues --    1.74438   1.74680   1.75010   1.75140   1.75248
 Alpha virt. eigenvalues --    1.75446   1.75815   1.76034   1.76473   1.76648
 Alpha virt. eigenvalues --    1.76789   1.76902   1.77153   1.77270   1.77648
 Alpha virt. eigenvalues --    1.77756   1.77904   1.77953   1.78198   1.78414
 Alpha virt. eigenvalues --    1.78529   1.78931   1.79388   1.79589   1.79929
 Alpha virt. eigenvalues --    1.80079   1.80309   1.80473   1.80562   1.80919
 Alpha virt. eigenvalues --    1.81518   1.81797   1.82062   1.82449   1.82567
 Alpha virt. eigenvalues --    1.82997   1.83055   1.83782   1.84056   1.84138
 Alpha virt. eigenvalues --    1.85039   1.85424   1.85620   1.85903   1.86275
 Alpha virt. eigenvalues --    1.86824   1.87149   1.87529   1.88056   1.88160
 Alpha virt. eigenvalues --    1.88379   1.88584   1.88776   1.89351   1.89759
 Alpha virt. eigenvalues --    1.89919   1.90026   1.90603   1.91391   1.91844
 Alpha virt. eigenvalues --    1.92182   1.92685   1.93277   1.93596   1.93909
 Alpha virt. eigenvalues --    1.94130   1.94249   1.94762   1.94989   1.95170
 Alpha virt. eigenvalues --    1.95747   1.95878   1.96030   1.96395   1.96707
 Alpha virt. eigenvalues --    1.97390   1.97916   1.98311   1.98490   1.98676
 Alpha virt. eigenvalues --    1.99068   1.99237   1.99708   1.99814   2.00274
 Alpha virt. eigenvalues --    2.00393   2.00480   2.00711   2.01259   2.01594
 Alpha virt. eigenvalues --    2.02052   2.02121   2.02475   2.02569   2.03286
 Alpha virt. eigenvalues --    2.03350   2.03648   2.04303   2.04581   2.04851
 Alpha virt. eigenvalues --    2.05103   2.05579   2.05889   2.06186   2.06280
 Alpha virt. eigenvalues --    2.06957   2.07334   2.07964   2.08193   2.08715
 Alpha virt. eigenvalues --    2.08858   2.09231   2.09390   2.09560   2.10366
 Alpha virt. eigenvalues --    2.10561   2.10884   2.11001   2.11415   2.12046
 Alpha virt. eigenvalues --    2.12183   2.12692   2.13257   2.13352   2.13467
 Alpha virt. eigenvalues --    2.14270   2.14723   2.15173   2.15219   2.15654
 Alpha virt. eigenvalues --    2.16071   2.16527   2.16838   2.17068   2.17740
 Alpha virt. eigenvalues --    2.18484   2.18653   2.18840   2.19544   2.19771
 Alpha virt. eigenvalues --    2.20455   2.20538   2.20860   2.21544   2.21722
 Alpha virt. eigenvalues --    2.21982   2.22612   2.22779   2.23250   2.23808
 Alpha virt. eigenvalues --    2.24043   2.24565   2.24824   2.25323   2.25593
 Alpha virt. eigenvalues --    2.26101   2.26492   2.26778   2.27140   2.27462
 Alpha virt. eigenvalues --    2.27870   2.28090   2.28670   2.29395   2.29880
 Alpha virt. eigenvalues --    2.30381   2.30439   2.30650   2.31499   2.32096
 Alpha virt. eigenvalues --    2.32350   2.33036   2.33441   2.33702   2.34170
 Alpha virt. eigenvalues --    2.34544   2.35141   2.35378   2.36005   2.36613
 Alpha virt. eigenvalues --    2.37228   2.37539   2.38700   2.39005   2.39160
 Alpha virt. eigenvalues --    2.40589   2.40828   2.41527   2.41891   2.42282
 Alpha virt. eigenvalues --    2.42792   2.43275   2.43485   2.44254   2.44874
 Alpha virt. eigenvalues --    2.44940   2.45311   2.45635   2.46776   2.47170
 Alpha virt. eigenvalues --    2.47465   2.47774   2.48795   2.49061   2.50068
 Alpha virt. eigenvalues --    2.50703   2.50915   2.51302   2.51768   2.52009
 Alpha virt. eigenvalues --    2.52217   2.52842   2.53237   2.53552   2.53781
 Alpha virt. eigenvalues --    2.53948   2.54282   2.54639   2.55091   2.55442
 Alpha virt. eigenvalues --    2.56422   2.56515   2.56730   2.56942   2.57567
 Alpha virt. eigenvalues --    2.57680   2.58074   2.58551   2.58602   2.59527
 Alpha virt. eigenvalues --    2.59698   2.60009   2.60291   2.60800   2.60966
 Alpha virt. eigenvalues --    2.61604   2.61679   2.61849   2.62031   2.62272
 Alpha virt. eigenvalues --    2.62328   2.62960   2.63387   2.63776   2.64161
 Alpha virt. eigenvalues --    2.64426   2.64923   2.65036   2.65597   2.66016
 Alpha virt. eigenvalues --    2.66306   2.66741   2.67029   2.67651   2.68134
 Alpha virt. eigenvalues --    2.68319   2.68534   2.69053   2.69557   2.69854
 Alpha virt. eigenvalues --    2.69976   2.70283   2.70595   2.71297   2.71622
 Alpha virt. eigenvalues --    2.71977   2.72212   2.72515   2.72604   2.73034
 Alpha virt. eigenvalues --    2.73154   2.73827   2.73979   2.74708   2.74952
 Alpha virt. eigenvalues --    2.75577   2.75863   2.76019   2.76492   2.77038
 Alpha virt. eigenvalues --    2.77367   2.77697   2.78206   2.78891   2.79570
 Alpha virt. eigenvalues --    2.79942   2.80109   2.80607   2.80715   2.81339
 Alpha virt. eigenvalues --    2.81735   2.82213   2.82404   2.83064   2.83310
 Alpha virt. eigenvalues --    2.83724   2.84535   2.85366   2.85838   2.86806
 Alpha virt. eigenvalues --    2.87004   2.87316   2.87661   2.87994   2.88564
 Alpha virt. eigenvalues --    2.89072   2.89581   2.90185   2.90348   2.90758
 Alpha virt. eigenvalues --    2.90900   2.91511   2.91744   2.92460   2.92557
 Alpha virt. eigenvalues --    2.93195   2.93889   2.95066   2.95848   2.96418
 Alpha virt. eigenvalues --    2.97560   2.98016   2.99365   3.00084   3.00277
 Alpha virt. eigenvalues --    3.01098   3.02235   3.02610   3.04229   3.05213
 Alpha virt. eigenvalues --    3.07373   3.08629   3.10100   3.11606   3.11728
 Alpha virt. eigenvalues --    3.12717   3.13106   3.15833   3.16233   3.16721
 Alpha virt. eigenvalues --    3.17571   3.19030   3.22264   3.23644   3.24071
 Alpha virt. eigenvalues --    3.25722   3.27171   3.28242   3.28882   3.31617
 Alpha virt. eigenvalues --    3.32958   3.34853   3.35867   3.39676   3.41394
 Alpha virt. eigenvalues --    3.42750   3.43193   3.44728   3.46632   3.49436
 Alpha virt. eigenvalues --    3.51432   3.54864   3.56151   3.61245   4.00801
 Alpha virt. eigenvalues --    4.01158   4.01640   4.02701   4.03394   4.03977
 Alpha virt. eigenvalues --    4.04233   4.05117   4.05435   4.06448   4.06821
 Alpha virt. eigenvalues --    4.07164   4.07902   4.08809   4.09278   4.09719
 Alpha virt. eigenvalues --    4.10319   4.10882   4.11236   4.12126   4.13267
 Alpha virt. eigenvalues --    4.13832   4.14997   4.16262   4.16750   4.17228
 Alpha virt. eigenvalues --    4.18407   4.18841   4.19362   4.20567   4.21098
 Alpha virt. eigenvalues --    4.21591   4.22053   4.22875   4.24175   4.25823
 Alpha virt. eigenvalues --    4.26144   4.26231   4.26945   4.27397   4.27705
 Alpha virt. eigenvalues --    4.28133   4.28408   4.28846   4.30024   4.30673
 Alpha virt. eigenvalues --    4.31257   4.33333   4.33693   4.34927   4.35736
 Alpha virt. eigenvalues --    4.37604   4.38659   4.39465   4.40503   4.41422
 Alpha virt. eigenvalues --    4.42107   4.42716   4.43391   4.43762   4.46713
 Alpha virt. eigenvalues --    4.47897   4.48745   4.51197   4.51842   4.52997
 Alpha virt. eigenvalues --    4.54137   4.56382   4.57423   4.58336   4.59589
 Alpha virt. eigenvalues --    4.60234   4.61286   4.63798   4.65035   4.66365
 Alpha virt. eigenvalues --    4.67753   4.72329   4.78005   4.79741   4.80551
 Alpha virt. eigenvalues --    4.81249   4.82667   4.85232   4.87330   4.91784
 Alpha virt. eigenvalues --    4.94654   5.01600   5.02676   5.05954   5.08662
 Alpha virt. eigenvalues --    5.12095   5.14882   5.23928
          Condensed to atoms (all electrons):
 Mulliken charges:
               1
     1  C   -0.356018
     2  C   -0.363310
     3  C    0.010588
     4  C   -0.382578
     5  C    0.092523
     6  C    0.089088
     7  C    0.007748
     8  C    0.086277
     9  C    0.056265
    10  C    0.095329
    11  C    0.090705
    12  C    0.042165
    13  C   -0.006244
    14  C    0.007842
    15  C    0.036475
    16  C    0.012518
    17  C    0.064880
    18  C    0.040144
    19  C    0.017801
    20  C    0.052350
    21  C    0.001143
    22  C   -0.022673
    23  C    0.090594
    24  C   -0.002449
    25  C    0.089761
    26  C    0.080503
    27  C   -0.382055
    28  C   -0.360829
    29  C    0.155365
    30  C    0.090861
    31  C    0.080824
    32  C    0.093039
    33  C    0.007559
    34  C    0.005549
    35  C    0.029896
    36  C    0.033905
    37  C    0.050042
    38  C    0.077300
    39  C    0.059621
    40  C    0.039911
    41  C    0.082072
    42  C    0.119033
    43  C    0.052707
    44  C    0.119359
    45  C    0.150406
    46  C    0.079424
    47  C    0.125648
    48  C    0.121006
    49  C   -0.377626
    50  C   -0.377199
    51  C    0.087155
    52  C    0.089146
    53  C    0.013639
    54  C    0.004727
    55  C    0.003952
    56  C    0.008310
    57  C    0.037499
    58  C   -0.028924
    59  C    0.050808
    60  C   -0.021254
    61  C    0.004275
    62  C   -0.040355
    63  C    0.002663
    64  C    0.081426
    65  C    0.080471
    66  C    0.102284
    67  C    0.143141
    68  C    0.119621
    69  C   -0.378160
    70  C   -0.371490
    71  C    0.089052
    72  C    0.094146
    73  C    0.025971
    74  C    0.024358
    75  C   -0.011557
    76  C   -0.009935
    77  C   -0.019271
    78  C   -0.044458
    79  C   -0.003591
    80  C   -0.371071
    81  C    0.008053
    82  C    0.076906
    83  C    0.040613
    84  C    0.047531
    85  Cl   0.000010
    86  Cl   0.008877
    87  Cl   0.000881
    88  Cl   0.014981
    89  Cl   0.010787
    90  Cl   0.010538
    91  Cl  -0.006085
    92  Cl   0.007656
    93  Cl   0.016539
    94  Cl  -0.007108
 Sum of Mulliken charges =  -0.00000
 Mulliken charges with hydrogens summed into heavy atoms:
               1
     1  C   -0.356018
     2  C   -0.363310
     3  C    0.010588
     4  C   -0.382578
     5  C    0.092523
     6  C    0.089088
     7  C    0.007748
     8  C    0.086277
     9  C    0.056265
    10  C    0.095329
    11  C    0.090705
    12  C    0.042165
    13  C   -0.006244
    14  C    0.007842
    15  C    0.036475
    16  C    0.012518
    17  C    0.064880
    18  C    0.040144
    19  C    0.017801
    20  C    0.052350
    21  C    0.001143
    22  C   -0.022673
    23  C    0.090594
    24  C   -0.002449
    25  C    0.089761
    26  C    0.080503
    27  C   -0.382055
    28  C   -0.360829
    29  C    0.155365
    30  C    0.090861
    31  C    0.080824
    32  C    0.093039
    33  C    0.007559
    34  C    0.005549
    35  C    0.029896
    36  C    0.033905
    37  C    0.050042
    38  C    0.077300
    39  C    0.059621
    40  C    0.039911
    41  C    0.082072
    42  C    0.119033
    43  C    0.052707
    44  C    0.119359
    45  C    0.150406
    46  C    0.079424
    47  C    0.125648
    48  C    0.121006
    49  C   -0.377626
    50  C   -0.377199
    51  C    0.087155
    52  C    0.089146
    53  C    0.013639
    54  C    0.004727
    55  C    0.003952
    56  C    0.008310
    57  C    0.037499
    58  C   -0.028924
    59  C    0.050808
    60  C   -0.021254
    61  C    0.004275
    62  C   -0.040355
    63  C    0.002663
    64  C    0.081426
    65  C    0.080471
    66  C    0.102284
    67  C    0.143141
    68  C    0.119621
    69  C   -0.378160
    70  C   -0.371490
    71  C    0.089052
    72  C    0.094146
    73  C    0.025971
    74  C    0.024358
    75  C   -0.011557
    76  C   -0.009935
    77  C   -0.019271
    78  C   -0.044458
    79  C   -0.003591
    80  C   -0.371071
    81  C    0.008053
    82  C    0.076906
    83  C    0.040613
    84  C    0.047531
    85  Cl   0.000010
    86  Cl   0.008877
    87  Cl   0.000881
    88  Cl   0.014981
    89  Cl   0.010787
    90  Cl   0.010538
    91  Cl  -0.006085
    92  Cl   0.007656
    93  Cl   0.016539
    94  Cl  -0.007108
 Electronic spatial extent (au):  <R**2>=          57557.9825
 Charge=              0.0000 electrons
 Dipole moment (field-independent basis, Debye):
    X=             -0.4881    Y=             -1.2986    Z=             -0.9097  Tot=              1.6590
 Quadrupole moment (field-independent basis, Debye-Ang):
   XX=           -643.6819   YY=           -601.2978   ZZ=           -580.0771
   XY=              2.9392   XZ=             -7.0904   YZ=             -2.4785
 Traceless Quadrupole moment (field-independent basis, Debye-Ang):
   XX=            -35.3296   YY=              7.0545   ZZ=             28.2752
   XY=              2.9392   XZ=             -7.0904   YZ=             -2.4785
 Octapole moment (field-independent basis, Debye-Ang**2):
  XXX=              5.0981  YYY=            -64.8675  ZZZ=              6.6408  XYY=             22.7855
  XXY=             17.1462  XXZ=             -0.9849  XZZ=            -21.5122  YZZ=             25.7897
  YYZ=             -6.7140  XYZ=             17.6694
 Hexadecapole moment (field-independent basis, Debye-Ang**3):
 XXXX=         -36455.5958 YYYY=         -26653.8837 ZZZZ=         -19533.7675 XXXY=           -165.2227
 XXXZ=            176.2840 YYYX=             28.8491 YYYZ=             -2.4819 ZZZX=            -70.1922
 ZZZY=             29.1358 XXYY=         -10688.6001 XXZZ=          -9272.0896 YYZZ=          -7655.5502
 XXYZ=            -42.0676 YYXZ=           -126.5471 ZZXY=            -41.4976
 N-N= 2.219395692212D+04 E-N=-6.272152557462D+04  KE= 7.759010020133D+03
 No NMR shielding tensors so no spin-rotation constants.
 Leave Link  601 at Mon Jun 27 00:53:09 2022, MaxMem=  1342177280 cpu:              66.5 elap:               3.2
 (Enter /home/mkliu/g16/l9999.exe)
 1\1\GINC-NODE02\FOpt\RB3LYP\6-31G(d,p)\C84Cl10\MKLIU\27-Jun-2022\0\\#P
  opt b3lyp/6-31G(d, p) empiricaldispersion=GD3\\force\\0,1\C,8.4285997
 09,18.6165122199,10.816126942\C,12.5916541402,19.9812160605,8.90890791
 08\C,8.2595560794,26.8676848788,10.5303138245\C,12.512319991,25.755080
 9597,8.9167052007\C,8.0184796745,19.1512416938,9.4381140001\C,12.09027
 64428,19.4756204205,10.2390852407\C,7.9449772655,26.8313898111,9.13881
 60954\C,11.8986070032,26.1862250442,10.2270791438\C,8.9812083366,19.24
 31766279,8.3834428251\C,12.358811567,20.1262346838,11.4106153862\C,12.
 1528875414,25.5402395867,11.394640979\C,8.9583420913,26.6378293373,8.1
 550973038\C,10.3810546632,19.0695041569,8.6932893855\C,10.2924823331,2
 6.672373769,8.6236882535\C,10.8299797909,18.8201862131,10.0560397631\C
 ,10.6148705663,26.7841420879,10.0062881247\C,9.9158223732,18.719407417
 7,11.0726786062\C,9.600965914,26.7806503116,11.0010916759\C,10.1641345
 565,19.4441145114,12.2705372023\C,9.8622044332,26.0703604031,12.236881
 0034\C,8.933459798,20.0096607347,12.7472699652\C,8.7714890938,25.45341
 09268,12.9063641271\C,7.8762835248,19.5042947967,11.9223146716\C,7.426
 8217895,25.5460663552,12.3760621676\C,6.7346739527,20.2217288482,11.76
 34873847\C,7.1771677882,26.2665750351,11.2434232936\C,5.9068215235,20.
 1711079848,10.5016967811\C,6.0232499033,25.9356278081,10.3043281269\C,
 6.7602301371,19.7836382516,9.3042148281\C,6.6313175841,26.2956700942,8
 .9685845335\C,6.4191797357,20.3719021979,8.0918367588\C,6.3236983778,2
 5.6279051493,7.8325335508\C,7.3330804963,20.4171007803,7.027352906\C,7
 .3049877306,25.4665828416,6.7975819681\C,8.6663084411,19.9481208551,7.
 1682683327\C,8.6559792403,25.8895683096,6.959408547\C,9.7127764641,20.
 6058904761,6.3929570964\C,9.7167759855,25.1414767053,6.2939771949\C,11
 .0645270541,20.5811833962,6.8941755535\C,12.7439679297,22.1816149554,7
 .7971305152\C,12.7769619714,23.5817816572,7.7805154621\C,11.0643073312
 ,25.1732121457,6.8593440372\C,11.3655446927,19.7590327049,8.0128220507
 \C,12.9468931414,21.4589143079,8.9714228986\C,12.9336817337,24.2943536
 741,8.958768814\C,11.3305707682,25.9507849967,7.9534339301\C,13.172910
 9094,22.1670909054,10.1718123769\C,13.1470306364,23.5863049463,10.1693
 846371\C,13.1994831663,21.3912228313,11.496010874\C,13.0991058152,24.3
 561426405,11.4923404831\C,12.4601338191,22.1731082589,12.567975238\C,1
 2.4178838266,23.5267995716,12.5606028155\C,11.3587888261,20.1427338981
 ,12.4332933249\C,11.1294923881,25.4492500851,12.3970132723\C,11.348851
 088,21.4207381073,13.0788531168\C,11.2687587987,24.200764023,13.076317
 5289\C,8.8898340017,21.2995712771,13.3335230443\C,8.8975318137,24.1752
 696807,13.5113293387\C,7.6511539069,22.0363680779,13.1885984575\C,7.64
 98720687,23.4571416194,13.3083521326\C,6.6181646661,21.489422971,12.39
 28549457\C,6.7518831767,24.2850633735,12.5993636345\C,5.8065571567,22.
 3343806369,11.5527494791\C,5.9104705273,23.7398235346,11.5725834875\C,
 5.4690958411,21.6358884073,10.3751165902\C,5.6524855203,24.449144628,1
 0.3517263093\C,5.2735708867,22.3088279157,9.1850041008\C,5.3512668235,
 23.7428177742,9.1741877921\C,5.3489458493,21.4668833267,7.9226728378\C
 ,5.3310619315,24.4757325987,7.8228097277\C,5.9017777493,22.2486588053,
 6.7562023269\C,5.8954499327,23.6115447465,6.7088227676\C,6.9911956001,
 21.5250018531,6.1659767794\C,6.9789050459,24.2987940289,6.0552837747\C
 ,7.9883236401,22.1614737952,5.4568545853\C,7.9955515708,23.6024825097,
 5.3997887251\C,9.3494735388,21.6983914573,5.5549455554\C,9.3505328262,
 24.046834899,5.4754601474\C,11.8907983243,21.713747818,6.6986439858\C,
 12.0908428487,24.105583734,6.5175527095\C,10.1907120449,22.8470031444,
 5.4340015511\C,11.4504280302,22.8381865521,5.9960071888\C,10.147841808
 6,22.0314901855,13.5131761721\C,10.1312046056,23.4829720696,13.5563797
 577\Cl,4.5461110701,26.9721902548,10.7121051086\Cl,3.6115499928,25.029
 5762218,7.4466785357\Cl,13.3170928004,24.7722179671,5.2985319838\Cl,13
 .9347447176,26.828434162,8.4407402035\Cl,14.7958490098,24.8866245185,1
 1.9826153211\Cl,14.9443540387,21.0175800381,11.9573683811\Cl,14.053431
 0974,19.0164198173,8.3015880332\Cl,3.6968243506,20.7494356293,7.507074
 1792\Cl,4.4694856268,19.0342806303,10.6840904309\Cl,7.8467058646,16.86
 03029376,10.9730322862\\Version=ES64L-G16RevA.03\State=1-A\HF=-7803.04
 00741\RMSD=6.121e-09\RMSF=6.170e-05\Dipole=-0.2483358,0.5756832,0.1814
 587\Quadrupole=-26.6844265,5.2356488,21.4487777,-2.9346284,0.6464614,2
 .61805\PG=C01 [X(C84Cl10)]\\@


 IN THE FIGHT BETWEEN YOU AND THE WORLD, BACK THE WORLD

                                        -- FRANZ KAFKA
 Job cpu time:       1 days 11 hours 49 minutes 38.7 seconds.
 Elapsed time:       0 days  1 hours 29 minutes 54.7 seconds.
 File lengths (MBytes):  RWF=   1291 Int=      0 D2E=      0 Chk=    162 Scr=      1
 Normal termination of Gaussian 16 at Mon Jun 27 00:53:11 2022.
