 Entering Gaussian System, Link 0=g16
 Input=12_addons_C84_11_Cl22_rank_1.gjf
 Output=12_addons_C84_11_Cl22_rank_1.log
 Initial command:
 /home/mkliu/g16/l1.exe "/data/scratch/Gau-165144.inp" -scrdir="/data/scratch/"
 Entering Link 1 = /home/mkliu/g16/l1.exe PID=    165145.
  
 Copyright (c) 1988,1990,1992,1993,1995,1998,2003,2009,2016,
            Gaussian, Inc.  All Rights Reserved.
  
 This is part of the Gaussian(R) 16 program.  It is based on
 the Gaussian(R) 09 system (copyright 2009, Gaussian, Inc.),
 the Gaussian(R) 03 system (copyright 2003, Gaussian, Inc.),
 the Gaussian(R) 98 system (copyright 1998, Gaussian, Inc.),
 the Gaussian(R) 94 system (copyright 1995, Gaussian, Inc.),
 the Gaussian 92(TM) system (copyright 1992, Gaussian, Inc.),
 the Gaussian 90(TM) system (copyright 1990, Gaussian, Inc.),
 the Gaussian 88(TM) system (copyright 1988, Gaussian, Inc.),
 the Gaussian 86(TM) system (copyright 1986, Carnegie Mellon
 University), and the Gaussian 82(TM) system (copyright 1983,
 Carnegie Mellon University). Gaussian is a federally registered
 trademark of Gaussian, Inc.
  
 This software contains proprietary and confidential information,
 including trade secrets, belonging to Gaussian, Inc.
  
 This software is provided under written license and may be
 used, copied, transmitted, or stored only in accord with that
 written license.
  
 The following legend is applicable only to US Government
 contracts under FAR:
  
                    RESTRICTED RIGHTS LEGEND
  
 Use, reproduction and disclosure by the US Government is
 subject to restrictions as set forth in subparagraphs (a)
 and (c) of the Commercial Computer Software - Restricted
 Rights clause in FAR 52.227-19.
  
 Gaussian, Inc.
 340 Quinnipiac St., Bldg. 40, Wallingford CT 06492
  
  
 ---------------------------------------------------------------
 Warning -- This program may not be used in any manner that
 competes with the business of Gaussian, Inc. or will provide
 assistance to any competitor of Gaussian, Inc.  The licensee
 of this program is prohibited from giving any competitor of
 Gaussian, Inc. access to this program.  By using this program,
 the user acknowledges that Gaussian, Inc. is engaged in the
 business of creating and licensing software in the field of
 computational chemistry and represents and warrants to the
 licensee that it is not a competitor of Gaussian, Inc. and that
 it will not use this program in any manner prohibited above.
 ---------------------------------------------------------------
  

 Cite this work as:
 Gaussian 16, Revision A.03,
 M. J. Frisch, G. W. Trucks, H. B. Schlegel, G. E. Scuseria, 
 M. A. Robb, J. R. Cheeseman, G. Scalmani, V. Barone, 
 G. A. Petersson, H. Nakatsuji, X. Li, M. Caricato, A. V. Marenich, 
 J. Bloino, B. G. Janesko, R. Gomperts, B. Mennucci, H. P. Hratchian, 
 J. V. Ortiz, A. F. Izmaylov, J. L. Sonnenberg, D. Williams-Young, 
 F. Ding, F. Lipparini, F. Egidi, J. Goings, B. Peng, A. Petrone, 
 T. Henderson, D. Ranasinghe, V. G. Zakrzewski, J. Gao, N. Rega, 
 G. Zheng, W. Liang, M. Hada, M. Ehara, K. Toyota, R. Fukuda, 
 J. Hasegawa, M. Ishida, T. Nakajima, Y. Honda, O. Kitao, H. Nakai, 
 T. Vreven, K. Throssell, J. A. Montgomery, Jr., J. E. Peralta, 
 F. Ogliaro, M. J. Bearpark, J. J. Heyd, E. N. Brothers, K. N. Kudin, 
 V. N. Staroverov, T. A. Keith, R. Kobayashi, J. Normand, 
 K. Raghavachari, A. P. Rendell, J. C. Burant, S. S. Iyengar, 
 J. Tomasi, M. Cossi, J. M. Millam, M. Klene, C. Adamo, R. Cammi, 
 J. W. Ochterski, R. L. Martin, K. Morokuma, O. Farkas, 
 J. B. Foresman, and D. J. Fox, Gaussian, Inc., Wallingford CT, 2016.
 
 ******************************************
 Gaussian 16:  ES64L-G16RevA.03 25-Dec-2016
                27-Jun-2022 
 ******************************************
 %mem=10GB
 %chk=12_addons_C84_11_Cl22_rank_1.chk
 %nprocshared=24
 Will use up to   24 processors via shared memory.
 ------------------------------------------------
 #P opt b3lyp/6-31G(d, p) empiricaldispersion=GD3
 ------------------------------------------------
 1/18=20,19=15,26=3,38=1/1,3;
 2/9=110,12=2,17=6,18=5,40=1/2;
 3/5=1,6=6,7=101,11=2,25=1,30=1,71=1,74=-5,124=31/1,2,3;
 4//1;
 5/5=2,38=5/2;
 6/7=2,8=2,9=2,10=2,28=1/1;
 7//1,2,3,16;
 1/18=20,19=15,26=3/3(2);
 2/9=110/2;
 99//99;
 2/9=110/2;
 3/5=1,6=6,7=101,11=2,25=1,30=1,71=1,74=-5,124=31/1,2,3;
 4/5=5,16=3,69=1/1;
 5/5=2,38=5/2;
 7//1,2,3,16;
 1/18=20,19=15,26=3/3(-5);
 2/9=110/2;
 6/7=2,8=2,9=2,10=2,19=2,28=1/1;
 99/9=1/99;
 Leave Link    1 at Mon Jun 27 12:01:09 2022, MaxMem=  1342177280 cpu:               0.6 elap:               0.1
 (Enter /home/mkliu/g16/l101.exe)
 -----
 force
 -----
 Symbolic Z-matrix:
 Charge =  0 Multiplicity = 1
 C                     8.48498   18.85511   10.77177 
 C                     12.57169   19.98662   8.89366 
 C                     8.26985   26.88514   10.56083 
 C                     12.45761   25.73372   8.93458 
 C                     8.0125    19.12181   9.47441 
 C                     12.06386   19.49304   10.21593 
 C                     7.87394   27.10184   9.11332 
 C                     11.88743   26.1965   10.24099 
 C                     8.98036   19.23546   8.40788 
 C                     12.3251   20.13577   11.38511 
 C                     12.10164   25.51276   11.36901 
 C                     8.93821   26.55027   8.19849 
 C                     10.34744   19.0798   8.70986 
 C                     10.23926   26.5923   8.66699 
 C                     10.80459   18.84285   10.02875 
 C                     10.66229   27.04409   10.03954 
 C                     9.86898   18.75944   11.05344 
 C                     9.55693   26.78159   11.02351 
 C                     10.14256   19.44594   12.28219 
 C                     9.82754   26.03501   12.22275 
 C                     8.92763   20.00506   12.77122 
 C                     8.76003   25.411    12.89948 
 C                     7.87796   19.5218   11.9132 
 C                     7.441     25.48994   12.37341 
 C                     6.7214    20.22438   11.77571 
 C                     7.2101    26.19487   11.21804 
 C                     5.89983   20.16704   10.52434 
 C                     6.27737   25.70277   10.24399 
 C                     6.73605   19.77224   9.33267 
 C                     6.6509    26.23661   9.00108 
 C                     6.40953   20.34422   8.14145 
 C                     6.34049   25.55302   7.85845 
 C                     7.33897   20.38936   7.0627 
 C                     7.20092   25.6239   6.62468 
 C                     8.66669   19.95479   7.21394 
 C                     8.65243   25.79897   7.04678 
 C                     9.70017   20.62579   6.46327 
 C                     9.67588   25.07888   6.41215 
 C                     11.05499   20.57449   6.92926 
 C                     12.68098   22.17974   7.7958 
 C                     12.66417   23.5666   7.79589 
 C                     10.97996   25.10079   6.92647 
 C                     11.35863   19.78961   8.00056 
 C                     12.88016   21.46173   8.96265 
 C                     12.83296   24.27426   8.97469 
 C                     11.24915   25.87407   8.0419 
 C                     13.09275   22.16073   10.15834 
 C                     13.06019   23.56588   10.16029 
 C                     13.1506   21.39158   11.4691 
 C                     13.04001   24.33661   11.46473 
 C                     12.41105   22.16486   12.52823 
 C                     12.36915   23.51452   12.52206 
 C                     11.33002   20.14364   12.4159 
 C                     11.08526   25.42287   12.39189 
 C                     11.31749   21.41207   13.05758 
 C                     11.22588   24.18357   13.04709 
 C                     8.88099   21.28581   13.35307 
 C                     8.88846   24.13138   13.51125 
 C                     7.64685   22.0149   13.21319 
 C                     7.65521   23.41644   13.32601 
 C                     6.60193   21.48242   12.41686 
 C                     6.76852   24.24162   12.59132 
 C                     5.79874   22.31407   11.58777 
 C                     5.90774   23.71418   11.60283 
 C                     5.46012   21.61154   10.39721 
 C                     5.6762    24.42826   10.37737 
 C                     5.27213   22.26676   9.21476 
 C                     5.36394   23.70675   9.1798 
 C                     5.361     21.42949   7.96311 
 C                     5.64218   24.33605   7.94754 
 C                     5.92233   22.19325   6.801 
 C                     5.96787   23.56115   6.77072 
 C                     6.99653   21.47787   6.22134 
 C                     6.9794    24.25946   6.03866 
 C                     8.00679   22.15141   5.53394 
 C                     7.97483   23.5701   5.41937 
 C                     9.33954   21.69766   5.63157 
 C                     9.37171   24.10311   5.29139 
 C                     12.05931   21.62594   6.54185 
 C                     12.04529   24.1103   6.53194 
 C                     10.19846   22.8513   5.47981 
 C                     11.44072   22.86346   5.96703 
 C                     10.12499   22.01364   13.50429 
 C                     10.11027   23.45228   13.54627 
 Cl                    13.85198   26.7243   8.36536 
 Cl                    13.25771   24.8861   5.44848 
 Cl                    9.69373   24.90885   3.7141 
 Cl                    6.75742   26.96396   5.50677 
 Cl                    14.71793   24.83393   11.88729 
 Cl                    14.87749   21.08027   11.87807 
 Cl                    14.01594   19.08251   8.31054 
 Cl                    4.48635   19.04837   10.68803 
 Cl                    3.73449   20.72624   7.58115 
 Cl                    13.30501   20.92679   5.42533 
 Cl                    7.57066   28.83576   8.73405 
 Cl                    11.08015   28.81046   10.03827 
 
 ITRead=  0  0  0  0  0  0  0  0  0  0  0  0  0  0  0  0  0  0  0  0
 ITRead=  0  0  0  0  0  0  0  0  0  0  0  0  0  0  0  0  0  0  0  0
 ITRead=  0  0  0  0  0  0  0  0  0  0  0  0  0  0  0  0  0  0  0  0
 ITRead=  0  0  0  0  0  0  0  0  0  0  0  0  0  0  0  0  0  0  0  0
 ITRead=  0  0  0  0  0  0  0  0  0  0  0  0  0  0  0  0
 MicOpt= -1 -1 -1 -1 -1 -1 -1 -1 -1 -1 -1 -1 -1 -1 -1 -1 -1 -1 -1 -1
 MicOpt= -1 -1 -1 -1 -1 -1 -1 -1 -1 -1 -1 -1 -1 -1 -1 -1 -1 -1 -1 -1
 MicOpt= -1 -1 -1 -1 -1 -1 -1 -1 -1 -1 -1 -1 -1 -1 -1 -1 -1 -1 -1 -1
 MicOpt= -1 -1 -1 -1 -1 -1 -1 -1 -1 -1 -1 -1 -1 -1 -1 -1 -1 -1 -1 -1
 MicOpt= -1 -1 -1 -1 -1 -1 -1 -1 -1 -1 -1 -1 -1 -1 -1 -1
 NAtoms=     96 NQM=       96 NQMF=       0 NMMI=      0 NMMIF=      0
                NMic=       0 NMicF=      0.
                    Isotopes and Nuclear Properties:
 (Nuclear quadrupole moments (NQMom) in fm**2, nuclear magnetic moments (NMagM)
  in nuclear magnetons)

  Atom         1           2           3           4           5           6           7           8           9          10
 IAtWgt=          12          12          12          12          12          12          12          12          12          12
 AtmWgt=  12.0000000  12.0000000  12.0000000  12.0000000  12.0000000  12.0000000  12.0000000  12.0000000  12.0000000  12.0000000
 NucSpn=           0           0           0           0           0           0           0           0           0           0
 AtZEff=  -0.0000000  -0.0000000  -0.0000000  -0.0000000  -0.0000000  -0.0000000  -0.0000000  -0.0000000  -0.0000000  -0.0000000
 NQMom=    0.0000000   0.0000000   0.0000000   0.0000000   0.0000000   0.0000000   0.0000000   0.0000000   0.0000000   0.0000000
 NMagM=    0.0000000   0.0000000   0.0000000   0.0000000   0.0000000   0.0000000   0.0000000   0.0000000   0.0000000   0.0000000
 AtZNuc=   6.0000000   6.0000000   6.0000000   6.0000000   6.0000000   6.0000000   6.0000000   6.0000000   6.0000000   6.0000000

  Atom        11          12          13          14          15          16          17          18          19          20
 IAtWgt=          12          12          12          12          12          12          12          12          12          12
 AtmWgt=  12.0000000  12.0000000  12.0000000  12.0000000  12.0000000  12.0000000  12.0000000  12.0000000  12.0000000  12.0000000
 NucSpn=           0           0           0           0           0           0           0           0           0           0
 AtZEff=  -0.0000000  -0.0000000  -0.0000000  -0.0000000  -0.0000000  -0.0000000  -0.0000000  -0.0000000  -0.0000000  -0.0000000
 NQMom=    0.0000000   0.0000000   0.0000000   0.0000000   0.0000000   0.0000000   0.0000000   0.0000000   0.0000000   0.0000000
 NMagM=    0.0000000   0.0000000   0.0000000   0.0000000   0.0000000   0.0000000   0.0000000   0.0000000   0.0000000   0.0000000
 AtZNuc=   6.0000000   6.0000000   6.0000000   6.0000000   6.0000000   6.0000000   6.0000000   6.0000000   6.0000000   6.0000000

  Atom        21          22          23          24          25          26          27          28          29          30
 IAtWgt=          12          12          12          12          12          12          12          12          12          12
 AtmWgt=  12.0000000  12.0000000  12.0000000  12.0000000  12.0000000  12.0000000  12.0000000  12.0000000  12.0000000  12.0000000
 NucSpn=           0           0           0           0           0           0           0           0           0           0
 AtZEff=  -0.0000000  -0.0000000  -0.0000000  -0.0000000  -0.0000000  -0.0000000  -0.0000000  -0.0000000  -0.0000000  -0.0000000
 NQMom=    0.0000000   0.0000000   0.0000000   0.0000000   0.0000000   0.0000000   0.0000000   0.0000000   0.0000000   0.0000000
 NMagM=    0.0000000   0.0000000   0.0000000   0.0000000   0.0000000   0.0000000   0.0000000   0.0000000   0.0000000   0.0000000
 AtZNuc=   6.0000000   6.0000000   6.0000000   6.0000000   6.0000000   6.0000000   6.0000000   6.0000000   6.0000000   6.0000000

  Atom        31          32          33          34          35          36          37          38          39          40
 IAtWgt=          12          12          12          12          12          12          12          12          12          12
 AtmWgt=  12.0000000  12.0000000  12.0000000  12.0000000  12.0000000  12.0000000  12.0000000  12.0000000  12.0000000  12.0000000
 NucSpn=           0           0           0           0           0           0           0           0           0           0
 AtZEff=  -0.0000000  -0.0000000  -0.0000000  -0.0000000  -0.0000000  -0.0000000  -0.0000000  -0.0000000  -0.0000000  -0.0000000
 NQMom=    0.0000000   0.0000000   0.0000000   0.0000000   0.0000000   0.0000000   0.0000000   0.0000000   0.0000000   0.0000000
 NMagM=    0.0000000   0.0000000   0.0000000   0.0000000   0.0000000   0.0000000   0.0000000   0.0000000   0.0000000   0.0000000
 AtZNuc=   6.0000000   6.0000000   6.0000000   6.0000000   6.0000000   6.0000000   6.0000000   6.0000000   6.0000000   6.0000000

  Atom        41          42          43          44          45          46          47          48          49          50
 IAtWgt=          12          12          12          12          12          12          12          12          12          12
 AtmWgt=  12.0000000  12.0000000  12.0000000  12.0000000  12.0000000  12.0000000  12.0000000  12.0000000  12.0000000  12.0000000
 NucSpn=           0           0           0           0           0           0           0           0           0           0
 AtZEff=  -0.0000000  -0.0000000  -0.0000000  -0.0000000  -0.0000000  -0.0000000  -0.0000000  -0.0000000  -0.0000000  -0.0000000
 NQMom=    0.0000000   0.0000000   0.0000000   0.0000000   0.0000000   0.0000000   0.0000000   0.0000000   0.0000000   0.0000000
 NMagM=    0.0000000   0.0000000   0.0000000   0.0000000   0.0000000   0.0000000   0.0000000   0.0000000   0.0000000   0.0000000
 AtZNuc=   6.0000000   6.0000000   6.0000000   6.0000000   6.0000000   6.0000000   6.0000000   6.0000000   6.0000000   6.0000000

  Atom        51          52          53          54          55          56          57          58          59          60
 IAtWgt=          12          12          12          12          12          12          12          12          12          12
 AtmWgt=  12.0000000  12.0000000  12.0000000  12.0000000  12.0000000  12.0000000  12.0000000  12.0000000  12.0000000  12.0000000
 NucSpn=           0           0           0           0           0           0           0           0           0           0
 AtZEff=  -0.0000000  -0.0000000  -0.0000000  -0.0000000  -0.0000000  -0.0000000  -0.0000000  -0.0000000  -0.0000000  -0.0000000
 NQMom=    0.0000000   0.0000000   0.0000000   0.0000000   0.0000000   0.0000000   0.0000000   0.0000000   0.0000000   0.0000000
 NMagM=    0.0000000   0.0000000   0.0000000   0.0000000   0.0000000   0.0000000   0.0000000   0.0000000   0.0000000   0.0000000
 AtZNuc=   6.0000000   6.0000000   6.0000000   6.0000000   6.0000000   6.0000000   6.0000000   6.0000000   6.0000000   6.0000000

  Atom        61          62          63          64          65          66          67          68          69          70
 IAtWgt=          12          12          12          12          12          12          12          12          12          12
 AtmWgt=  12.0000000  12.0000000  12.0000000  12.0000000  12.0000000  12.0000000  12.0000000  12.0000000  12.0000000  12.0000000
 NucSpn=           0           0           0           0           0           0           0           0           0           0
 AtZEff=  -0.0000000  -0.0000000  -0.0000000  -0.0000000  -0.0000000  -0.0000000  -0.0000000  -0.0000000  -0.0000000  -0.0000000
 NQMom=    0.0000000   0.0000000   0.0000000   0.0000000   0.0000000   0.0000000   0.0000000   0.0000000   0.0000000   0.0000000
 NMagM=    0.0000000   0.0000000   0.0000000   0.0000000   0.0000000   0.0000000   0.0000000   0.0000000   0.0000000   0.0000000
 AtZNuc=   6.0000000   6.0000000   6.0000000   6.0000000   6.0000000   6.0000000   6.0000000   6.0000000   6.0000000   6.0000000

  Atom        71          72          73          74          75          76          77          78          79          80
 IAtWgt=          12          12          12          12          12          12          12          12          12          12
 AtmWgt=  12.0000000  12.0000000  12.0000000  12.0000000  12.0000000  12.0000000  12.0000000  12.0000000  12.0000000  12.0000000
 NucSpn=           0           0           0           0           0           0           0           0           0           0
 AtZEff=  -0.0000000  -0.0000000  -0.0000000  -0.0000000  -0.0000000  -0.0000000  -0.0000000  -0.0000000  -0.0000000  -0.0000000
 NQMom=    0.0000000   0.0000000   0.0000000   0.0000000   0.0000000   0.0000000   0.0000000   0.0000000   0.0000000   0.0000000
 NMagM=    0.0000000   0.0000000   0.0000000   0.0000000   0.0000000   0.0000000   0.0000000   0.0000000   0.0000000   0.0000000
 AtZNuc=   6.0000000   6.0000000   6.0000000   6.0000000   6.0000000   6.0000000   6.0000000   6.0000000   6.0000000   6.0000000

  Atom        81          82          83          84          85          86          87          88          89          90
 IAtWgt=          12          12          12          12          35          35          35          35          35          35
 AtmWgt=  12.0000000  12.0000000  12.0000000  12.0000000  34.9688527  34.9688527  34.9688527  34.9688527  34.9688527  34.9688527
 NucSpn=           0           0           0           0           3           3           3           3           3           3
 AtZEff=  -0.0000000  -0.0000000  -0.0000000  -0.0000000  -0.0000000  -0.0000000  -0.0000000  -0.0000000  -0.0000000  -0.0000000
 NQMom=    0.0000000   0.0000000   0.0000000   0.0000000  -8.1650000  -8.1650000  -8.1650000  -8.1650000  -8.1650000  -8.1650000
 NMagM=    0.0000000   0.0000000   0.0000000   0.0000000   0.8218740   0.8218740   0.8218740   0.8218740   0.8218740   0.8218740
 AtZNuc=   6.0000000   6.0000000   6.0000000   6.0000000  17.0000000  17.0000000  17.0000000  17.0000000  17.0000000  17.0000000

  Atom        91          92          93          94          95          96
 IAtWgt=          35          35          35          35          35          35
 AtmWgt=  34.9688527  34.9688527  34.9688527  34.9688527  34.9688527  34.9688527
 NucSpn=           3           3           3           3           3           3
 AtZEff=  -0.0000000  -0.0000000  -0.0000000  -0.0000000  -0.0000000  -0.0000000
 NQMom=   -8.1650000  -8.1650000  -8.1650000  -8.1650000  -8.1650000  -8.1650000
 NMagM=    0.8218740   0.8218740   0.8218740   0.8218740   0.8218740   0.8218740
 AtZNuc=  17.0000000  17.0000000  17.0000000  17.0000000  17.0000000  17.0000000
 Leave Link  101 at Mon Jun 27 12:01:10 2022, MaxMem=  1342177280 cpu:               6.6 elap:               0.3
 (Enter /home/mkliu/g16/l103.exe)

 GradGradGradGradGradGradGradGradGradGradGradGradGradGradGradGradGradGrad
 Berny optimization.
 Initialization pass.
                           ----------------------------
                           !    Initial Parameters    !
                           ! (Angstroms and Degrees)  !
 --------------------------                            --------------------------
 ! Name  Definition              Value          Derivative Info.                !
 --------------------------------------------------------------------------------
 ! R1    R(1,5)                  1.4062         estimate D2E/DX2                !
 ! R2    R(1,17)                 1.4156         estimate D2E/DX2                !
 ! R3    R(1,23)                 1.4546         estimate D2E/DX2                !
 ! R4    R(2,6)                  1.5            estimate D2E/DX2                !
 ! R5    R(2,43)                 1.5192         estimate D2E/DX2                !
 ! R6    R(2,44)                 1.5086         estimate D2E/DX2                !
 ! R7    R(2,91)                 1.8009         estimate D2E/DX2                !
 ! R8    R(3,7)                  1.5162         estimate D2E/DX2                !
 ! R9    R(3,18)                 1.3716         estimate D2E/DX2                !
 ! R10   R(3,26)                 1.4253         estimate D2E/DX2                !
 ! R11   R(4,8)                  1.4987         estimate D2E/DX2                !
 ! R12   R(4,45)                 1.5075         estimate D2E/DX2                !
 ! R13   R(4,46)                 1.509          estimate D2E/DX2                !
 ! R14   R(4,85)                 1.8026         estimate D2E/DX2                !
 ! R15   R(5,9)                  1.4447         estimate D2E/DX2                !
 ! R16   R(5,29)                 1.4396         estimate D2E/DX2                !
 ! R17   R(6,10)                 1.3595         estimate D2E/DX2                !
 ! R18   R(6,15)                 1.4295         estimate D2E/DX2                !
 ! R19   R(7,12)                 1.5079         estimate D2E/DX2                !
 ! R20   R(7,30)                 1.5023         estimate D2E/DX2                !
 ! R21   R(7,95)                 1.8006         estimate D2E/DX2                !
 ! R22   R(8,11)                 1.3363         estimate D2E/DX2                !
 ! R23   R(8,16)                 1.5033         estimate D2E/DX2                !
 ! R24   R(9,13)                 1.4087         estimate D2E/DX2                !
 ! R25   R(9,35)                 1.4287         estimate D2E/DX2                !
 ! R26   R(10,49)                1.5052         estimate D2E/DX2                !
 ! R27   R(10,53)                1.4327         estimate D2E/DX2                !
 ! R28   R(11,50)                1.5077         estimate D2E/DX2                !
 ! R29   R(11,54)                1.4448         estimate D2E/DX2                !
 ! R30   R(12,14)                1.3835         estimate D2E/DX2                !
 ! R31   R(12,36)                1.4045         estimate D2E/DX2                !
 ! R32   R(13,15)                1.4158         estimate D2E/DX2                !
 ! R33   R(13,43)                1.4246         estimate D2E/DX2                !
 ! R34   R(14,16)                1.5056         estimate D2E/DX2                !
 ! R35   R(14,46)                1.388          estimate D2E/DX2                !
 ! R36   R(15,17)                1.3901         estimate D2E/DX2                !
 ! R37   R(16,18)                1.503          estimate D2E/DX2                !
 ! R38   R(16,96)                1.8151         estimate D2E/DX2                !
 ! R39   R(17,19)                1.4339         estimate D2E/DX2                !
 ! R40   R(18,20)                1.4383         estimate D2E/DX2                !
 ! R41   R(19,21)                1.424          estimate D2E/DX2                !
 ! R42   R(19,53)                1.3837         estimate D2E/DX2                !
 ! R43   R(20,22)                1.4096         estimate D2E/DX2                !
 ! R44   R(20,54)                1.409          estimate D2E/DX2                !
 ! R45   R(21,23)                1.4393         estimate D2E/DX2                !
 ! R46   R(21,57)                1.4075         estimate D2E/DX2                !
 ! R47   R(22,24)                1.4223         estimate D2E/DX2                !
 ! R48   R(22,58)                1.4241         estimate D2E/DX2                !
 ! R49   R(23,25)                1.3602         estimate D2E/DX2                !
 ! R50   R(24,26)                1.373          estimate D2E/DX2                !
 ! R51   R(24,62)                1.4346         estimate D2E/DX2                !
 ! R52   R(25,27)                1.4981         estimate D2E/DX2                !
 ! R53   R(25,61)                1.417          estimate D2E/DX2                !
 ! R54   R(26,28)                1.4356         estimate D2E/DX2                !
 ! R55   R(27,29)                1.5084         estimate D2E/DX2                !
 ! R56   R(27,65)                1.5153         estimate D2E/DX2                !
 ! R57   R(27,92)                1.81           estimate D2E/DX2                !
 ! R58   R(28,30)                1.4033         estimate D2E/DX2                !
 ! R59   R(28,66)                1.4155         estimate D2E/DX2                !
 ! R60   R(29,31)                1.3612         estimate D2E/DX2                !
 ! R61   R(30,32)                1.3672         estimate D2E/DX2                !
 ! R62   R(31,33)                1.4246         estimate D2E/DX2                !
 ! R63   R(31,69)                1.5195         estimate D2E/DX2                !
 ! R64   R(32,34)                1.5058         estimate D2E/DX2                !
 ! R65   R(32,70)                1.4059         estimate D2E/DX2                !
 ! R66   R(33,35)                1.4052         estimate D2E/DX2                !
 ! R67   R(33,73)                1.4178         estimate D2E/DX2                !
 ! R68   R(34,36)                1.5217         estimate D2E/DX2                !
 ! R69   R(34,74)                1.5014         estimate D2E/DX2                !
 ! R70   R(34,88)                1.8006         estimate D2E/DX2                !
 ! R71   R(35,37)                1.4429         estimate D2E/DX2                !
 ! R72   R(36,38)                1.4031         estimate D2E/DX2                !
 ! R73   R(37,39)                1.4336         estimate D2E/DX2                !
 ! R74   R(37,77)                1.4038         estimate D2E/DX2                !
 ! R75   R(38,42)                1.402          estimate D2E/DX2                !
 ! R76   R(38,78)                1.5168         estimate D2E/DX2                !
 ! R77   R(39,43)                1.3623         estimate D2E/DX2                !
 ! R78   R(39,79)                1.5048         estimate D2E/DX2                !
 ! R79   R(40,41)                1.387          estimate D2E/DX2                !
 ! R80   R(40,44)                1.3845         estimate D2E/DX2                !
 ! R81   R(40,79)                1.5052         estimate D2E/DX2                !
 ! R82   R(41,45)                1.3852         estimate D2E/DX2                !
 ! R83   R(41,80)                1.5087         estimate D2E/DX2                !
 ! R84   R(42,46)                1.3837         estimate D2E/DX2                !
 ! R85   R(42,80)                1.5072         estimate D2E/DX2                !
 ! R86   R(44,47)                1.4012         estimate D2E/DX2                !
 ! R87   R(45,48)                1.3997         estimate D2E/DX2                !
 ! R88   R(47,48)                1.4055         estimate D2E/DX2                !
 ! R89   R(47,49)                1.5209         estimate D2E/DX2                !
 ! R90   R(48,50)                1.5153         estimate D2E/DX2                !
 ! R91   R(49,51)                1.5055         estimate D2E/DX2                !
 ! R92   R(49,90)                1.8018         estimate D2E/DX2                !
 ! R93   R(50,52)                1.4979         estimate D2E/DX2                !
 ! R94   R(50,89)                1.8004         estimate D2E/DX2                !
 ! R95   R(51,52)                1.3503         estimate D2E/DX2                !
 ! R96   R(51,55)                1.4293         estimate D2E/DX2                !
 ! R97   R(52,56)                1.4249         estimate D2E/DX2                !
 ! R98   R(53,55)                1.4216         estimate D2E/DX2                !
 ! R99   R(54,56)                1.4089         estimate D2E/DX2                !
 ! R100  R(55,83)                1.4084         estimate D2E/DX2                !
 ! R101  R(56,84)                1.4243         estimate D2E/DX2                !
 ! R102  R(57,59)                1.4402         estimate D2E/DX2                !
 ! R103  R(57,83)                1.4492         estimate D2E/DX2                !
 ! R104  R(58,60)                1.4375         estimate D2E/DX2                !
 ! R105  R(58,84)                1.3983         estimate D2E/DX2                !
 ! R106  R(59,60)                1.4061         estimate D2E/DX2                !
 ! R107  R(59,61)                1.4176         estimate D2E/DX2                !
 ! R108  R(60,62)                1.4167         estimate D2E/DX2                !
 ! R109  R(61,63)                1.4227         estimate D2E/DX2                !
 ! R110  R(62,64)                1.4129         estimate D2E/DX2                !
 ! R111  R(63,64)                1.4044         estimate D2E/DX2                !
 ! R112  R(63,65)                1.4233         estimate D2E/DX2                !
 ! R113  R(64,66)                1.4371         estimate D2E/DX2                !
 ! R114  R(65,67)                1.3649         estimate D2E/DX2                !
 ! R115  R(66,68)                1.4326         estimate D2E/DX2                !
 ! R116  R(67,68)                1.4433         estimate D2E/DX2                !
 ! R117  R(67,69)                1.5085         estimate D2E/DX2                !
 ! R118  R(68,70)                1.4114         estimate D2E/DX2                !
 ! R119  R(69,71)                1.4996         estimate D2E/DX2                !
 ! R120  R(69,93)                1.8127         estimate D2E/DX2                !
 ! R121  R(70,72)                1.4462         estimate D2E/DX2                !
 ! R122  R(71,72)                1.369          estimate D2E/DX2                !
 ! R123  R(71,73)                1.4148         estimate D2E/DX2                !
 ! R124  R(72,74)                1.4306         estimate D2E/DX2                !
 ! R125  R(73,75)                1.3953         estimate D2E/DX2                !
 ! R126  R(74,76)                1.36           estimate D2E/DX2                !
 ! R127  R(75,76)                1.4237         estimate D2E/DX2                !
 ! R128  R(75,77)                1.4113         estimate D2E/DX2                !
 ! R129  R(76,78)                1.5006         estimate D2E/DX2                !
 ! R130  R(77,81)                1.4463         estimate D2E/DX2                !
 ! R131  R(78,81)                1.512          estimate D2E/DX2                !
 ! R132  R(78,87)                1.8002         estimate D2E/DX2                !
 ! R133  R(79,82)                1.4982         estimate D2E/DX2                !
 ! R134  R(79,94)                1.8131         estimate D2E/DX2                !
 ! R135  R(80,82)                1.4964         estimate D2E/DX2                !
 ! R136  R(80,86)                1.8016         estimate D2E/DX2                !
 ! R137  R(81,82)                1.3344         estimate D2E/DX2                !
 ! R138  R(83,84)                1.4393         estimate D2E/DX2                !
 ! A1    A(5,1,17)             121.6592         estimate D2E/DX2                !
 ! A2    A(5,1,23)             119.7897         estimate D2E/DX2                !
 ! A3    A(17,1,23)            106.4297         estimate D2E/DX2                !
 ! A4    A(6,2,43)             101.8425         estimate D2E/DX2                !
 ! A5    A(6,2,44)             110.5287         estimate D2E/DX2                !
 ! A6    A(6,2,91)             113.0628         estimate D2E/DX2                !
 ! A7    A(43,2,44)            108.4788         estimate D2E/DX2                !
 ! A8    A(43,2,91)            112.6373         estimate D2E/DX2                !
 ! A9    A(44,2,91)            109.9813         estimate D2E/DX2                !
 ! A10   A(7,3,18)             125.2985         estimate D2E/DX2                !
 ! A11   A(7,3,26)             108.3769         estimate D2E/DX2                !
 ! A12   A(18,3,26)            120.371          estimate D2E/DX2                !
 ! A13   A(8,4,45)             111.746          estimate D2E/DX2                !
 ! A14   A(8,4,46)             100.5025         estimate D2E/DX2                !
 ! A15   A(8,4,85)             113.5696         estimate D2E/DX2                !
 ! A16   A(45,4,46)            107.7701         estimate D2E/DX2                !
 ! A17   A(45,4,85)            110.3538         estimate D2E/DX2                !
 ! A18   A(46,4,85)            112.4303         estimate D2E/DX2                !
 ! A19   A(1,5,9)              118.0935         estimate D2E/DX2                !
 ! A20   A(1,5,29)             118.3219         estimate D2E/DX2                !
 ! A21   A(9,5,29)             119.0637         estimate D2E/DX2                !
 ! A22   A(2,6,10)             122.5121         estimate D2E/DX2                !
 ! A23   A(2,6,15)             109.4193         estimate D2E/DX2                !
 ! A24   A(10,6,15)            119.7949         estimate D2E/DX2                !
 ! A25   A(3,7,12)             110.0365         estimate D2E/DX2                !
 ! A26   A(3,7,30)             101.6296         estimate D2E/DX2                !
 ! A27   A(3,7,95)             112.5001         estimate D2E/DX2                !
 ! A28   A(12,7,30)            108.5772         estimate D2E/DX2                !
 ! A29   A(12,7,95)            110.0791         estimate D2E/DX2                !
 ! A30   A(30,7,95)            113.6862         estimate D2E/DX2                !
 ! A31   A(4,8,11)             121.1208         estimate D2E/DX2                !
 ! A32   A(4,8,16)             111.5521         estimate D2E/DX2                !
 ! A33   A(11,8,16)            122.1559         estimate D2E/DX2                !
 ! A34   A(5,9,13)             118.8951         estimate D2E/DX2                !
 ! A35   A(5,9,35)             120.6266         estimate D2E/DX2                !
 ! A36   A(13,9,35)            116.6053         estimate D2E/DX2                !
 ! A37   A(6,10,49)            123.2171         estimate D2E/DX2                !
 ! A38   A(6,10,53)            119.2            estimate D2E/DX2                !
 ! A39   A(49,10,53)           109.6441         estimate D2E/DX2                !
 ! A40   A(8,11,50)            123.5392         estimate D2E/DX2                !
 ! A41   A(8,11,54)            121.1097         estimate D2E/DX2                !
 ! A42   A(50,11,54)           110.1434         estimate D2E/DX2                !
 ! A43   A(7,12,14)            116.5629         estimate D2E/DX2                !
 ! A44   A(7,12,36)            123.3369         estimate D2E/DX2                !
 ! A45   A(14,12,36)           119.0318         estimate D2E/DX2                !
 ! A46   A(9,13,15)            122.1094         estimate D2E/DX2                !
 ! A47   A(9,13,43)            121.8074         estimate D2E/DX2                !
 ! A48   A(15,13,43)           108.5422         estimate D2E/DX2                !
 ! A49   A(12,14,16)           125.5944         estimate D2E/DX2                !
 ! A50   A(12,14,46)           121.066          estimate D2E/DX2                !
 ! A51   A(16,14,46)           111.1861         estimate D2E/DX2                !
 ! A52   A(6,15,13)            109.2858         estimate D2E/DX2                !
 ! A53   A(6,15,17)            121.5789         estimate D2E/DX2                !
 ! A54   A(13,15,17)           118.6458         estimate D2E/DX2                !
 ! A55   A(8,16,14)            100.4834         estimate D2E/DX2                !
 ! A56   A(8,16,18)            114.4033         estimate D2E/DX2                !
 ! A57   A(8,16,96)            111.1708         estimate D2E/DX2                !
 ! A58   A(14,16,18)           109.7411         estimate D2E/DX2                !
 ! A59   A(14,16,96)           110.8579         estimate D2E/DX2                !
 ! A60   A(18,16,96)           109.8605         estimate D2E/DX2                !
 ! A61   A(1,17,15)            120.4849         estimate D2E/DX2                !
 ! A62   A(1,17,19)            108.9468         estimate D2E/DX2                !
 ! A63   A(15,17,19)           118.3305         estimate D2E/DX2                !
 ! A64   A(3,18,16)            117.1351         estimate D2E/DX2                !
 ! A65   A(3,18,20)            119.8003         estimate D2E/DX2                !
 ! A66   A(16,18,20)           119.8776         estimate D2E/DX2                !
 ! A67   A(17,19,21)           108.6324         estimate D2E/DX2                !
 ! A68   A(17,19,53)           119.2054         estimate D2E/DX2                !
 ! A69   A(21,19,53)           120.066          estimate D2E/DX2                !
 ! A70   A(18,20,22)           119.1823         estimate D2E/DX2                !
 ! A71   A(18,20,54)           119.5735         estimate D2E/DX2                !
 ! A72   A(22,20,54)           115.2181         estimate D2E/DX2                !
 ! A73   A(19,21,23)           106.5982         estimate D2E/DX2                !
 ! A74   A(19,21,57)           121.8378         estimate D2E/DX2                !
 ! A75   A(23,21,57)           121.8573         estimate D2E/DX2                !
 ! A76   A(20,22,24)           120.0138         estimate D2E/DX2                !
 ! A77   A(20,22,58)           122.3918         estimate D2E/DX2                !
 ! A78   A(24,22,58)           107.0015         estimate D2E/DX2                !
 ! A79   A(1,23,21)            108.5025         estimate D2E/DX2                !
 ! A80   A(1,23,25)            120.8144         estimate D2E/DX2                !
 ! A81   A(21,23,25)           120.4604         estimate D2E/DX2                !
 ! A82   A(22,24,26)           119.7168         estimate D2E/DX2                !
 ! A83   A(22,24,62)           109.2845         estimate D2E/DX2                !
 ! A84   A(26,24,62)           119.7194         estimate D2E/DX2                !
 ! A85   A(23,25,27)           122.0721         estimate D2E/DX2                !
 ! A86   A(23,25,61)           118.9809         estimate D2E/DX2                !
 ! A87   A(27,25,61)           111.45           estimate D2E/DX2                !
 ! A88   A(3,26,24)            120.7721         estimate D2E/DX2                !
 ! A89   A(3,26,28)            109.6479         estimate D2E/DX2                !
 ! A90   A(24,26,28)           120.2799         estimate D2E/DX2                !
 ! A91   A(25,27,29)           111.4639         estimate D2E/DX2                !
 ! A92   A(25,27,65)           101.1129         estimate D2E/DX2                !
 ! A93   A(25,27,92)           112.1099         estimate D2E/DX2                !
 ! A94   A(29,27,65)           110.1272         estimate D2E/DX2                !
 ! A95   A(29,27,92)           110.036          estimate D2E/DX2                !
 ! A96   A(65,27,92)           111.725          estimate D2E/DX2                !
 ! A97   A(26,28,30)           107.3137         estimate D2E/DX2                !
 ! A98   A(26,28,66)           121.3767         estimate D2E/DX2                !
 ! A99   A(30,28,66)           122.6174         estimate D2E/DX2                !
 ! A100  A(5,29,27)            122.1426         estimate D2E/DX2                !
 ! A101  A(5,29,31)            119.2562         estimate D2E/DX2                !
 ! A102  A(27,29,31)           116.642          estimate D2E/DX2                !
 ! A103  A(7,30,28)            111.6912         estimate D2E/DX2                !
 ! A104  A(7,30,32)            122.3591         estimate D2E/DX2                !
 ! A105  A(28,30,32)           119.3124         estimate D2E/DX2                !
 ! A106  A(29,31,33)           121.297          estimate D2E/DX2                !
 ! A107  A(29,31,69)           124.6356         estimate D2E/DX2                !
 ! A108  A(33,31,69)           109.7967         estimate D2E/DX2                !
 ! A109  A(30,32,34)           122.1052         estimate D2E/DX2                !
 ! A110  A(30,32,70)           119.5121         estimate D2E/DX2                !
 ! A111  A(34,32,70)           112.1152         estimate D2E/DX2                !
 ! A112  A(31,33,35)           121.6779         estimate D2E/DX2                !
 ! A113  A(31,33,73)           108.4277         estimate D2E/DX2                !
 ! A114  A(35,33,73)           121.9741         estimate D2E/DX2                !
 ! A115  A(32,34,36)           108.8553         estimate D2E/DX2                !
 ! A116  A(32,34,74)           101.1111         estimate D2E/DX2                !
 ! A117  A(32,34,88)           113.7639         estimate D2E/DX2                !
 ! A118  A(36,34,74)           110.7047         estimate D2E/DX2                !
 ! A119  A(36,34,88)           108.7556         estimate D2E/DX2                !
 ! A120  A(74,34,88)           113.4326         estimate D2E/DX2                !
 ! A121  A(9,35,33)            116.9416         estimate D2E/DX2                !
 ! A122  A(9,35,37)            120.7736         estimate D2E/DX2                !
 ! A123  A(33,35,37)           118.4877         estimate D2E/DX2                !
 ! A124  A(12,36,34)           118.8868         estimate D2E/DX2                !
 ! A125  A(12,36,38)           119.8026         estimate D2E/DX2                !
 ! A126  A(34,36,38)           120.7471         estimate D2E/DX2                !
 ! A127  A(35,37,39)           119.4163         estimate D2E/DX2                !
 ! A128  A(35,37,77)           118.6408         estimate D2E/DX2                !
 ! A129  A(39,37,77)           117.5589         estimate D2E/DX2                !
 ! A130  A(36,38,42)           120.2996         estimate D2E/DX2                !
 ! A131  A(36,38,78)           121.2031         estimate D2E/DX2                !
 ! A132  A(42,38,78)           117.8807         estimate D2E/DX2                !
 ! A133  A(37,39,43)           119.1341         estimate D2E/DX2                !
 ! A134  A(37,39,79)           121.4699         estimate D2E/DX2                !
 ! A135  A(43,39,79)           117.1467         estimate D2E/DX2                !
 ! A136  A(41,40,44)           121.3506         estimate D2E/DX2                !
 ! A137  A(41,40,79)           111.2818         estimate D2E/DX2                !
 ! A138  A(44,40,79)           124.8019         estimate D2E/DX2                !
 ! A139  A(40,41,45)           120.6239         estimate D2E/DX2                !
 ! A140  A(40,41,80)           111.4236         estimate D2E/DX2                !
 ! A141  A(45,41,80)           125.3672         estimate D2E/DX2                !
 ! A142  A(38,42,46)           119.0393         estimate D2E/DX2                !
 ! A143  A(38,42,80)           123.4469         estimate D2E/DX2                !
 ! A144  A(46,42,80)           116.1527         estimate D2E/DX2                !
 ! A145  A(2,43,13)            109.7973         estimate D2E/DX2                !
 ! A146  A(2,43,39)            124.4408         estimate D2E/DX2                !
 ! A147  A(13,43,39)           121.3583         estimate D2E/DX2                !
 ! A148  A(2,44,40)            116.05           estimate D2E/DX2                !
 ! A149  A(2,44,47)            123.9048         estimate D2E/DX2                !
 ! A150  A(40,44,47)           118.8353         estimate D2E/DX2                !
 ! A151  A(4,45,41)            116.2061         estimate D2E/DX2                !
 ! A152  A(4,45,48)            123.569          estimate D2E/DX2                !
 ! A153  A(41,45,48)           118.8204         estimate D2E/DX2                !
 ! A154  A(4,46,14)            111.3714         estimate D2E/DX2                !
 ! A155  A(4,46,42)            125.5005         estimate D2E/DX2                !
 ! A156  A(14,46,42)           120.7095         estimate D2E/DX2                !
 ! A157  A(44,47,48)           119.7611         estimate D2E/DX2                !
 ! A158  A(44,47,49)           119.2692         estimate D2E/DX2                !
 ! A159  A(48,47,49)           120.3497         estimate D2E/DX2                !
 ! A160  A(45,48,47)           120.5671         estimate D2E/DX2                !
 ! A161  A(45,48,50)           118.0094         estimate D2E/DX2                !
 ! A162  A(47,48,50)           120.665          estimate D2E/DX2                !
 ! A163  A(10,49,47)           110.6702         estimate D2E/DX2                !
 ! A164  A(10,49,51)           101.4425         estimate D2E/DX2                !
 ! A165  A(10,49,90)           113.2139         estimate D2E/DX2                !
 ! A166  A(47,49,51)           109.139          estimate D2E/DX2                !
 ! A167  A(47,49,90)           108.6305         estimate D2E/DX2                !
 ! A168  A(51,49,90)           113.5701         estimate D2E/DX2                !
 ! A169  A(11,50,48)           110.514          estimate D2E/DX2                !
 ! A170  A(11,50,52)           101.1982         estimate D2E/DX2                !
 ! A171  A(11,50,89)           112.3016         estimate D2E/DX2                !
 ! A172  A(48,50,52)           109.5396         estimate D2E/DX2                !
 ! A173  A(48,50,89)           109.2778         estimate D2E/DX2                !
 ! A174  A(52,50,89)           113.7866         estimate D2E/DX2                !
 ! A175  A(49,51,52)           121.6955         estimate D2E/DX2                !
 ! A176  A(49,51,55)           111.4611         estimate D2E/DX2                !
 ! A177  A(52,51,55)           120.2903         estimate D2E/DX2                !
 ! A178  A(50,52,51)           122.5386         estimate D2E/DX2                !
 ! A179  A(50,52,56)           111.2063         estimate D2E/DX2                !
 ! A180  A(51,52,56)           119.5071         estimate D2E/DX2                !
 ! A181  A(10,53,19)           121.5822         estimate D2E/DX2                !
 ! A182  A(10,53,55)           109.6195         estimate D2E/DX2                !
 ! A183  A(19,53,55)           119.075          estimate D2E/DX2                !
 ! A184  A(11,54,20)           121.0614         estimate D2E/DX2                !
 ! A185  A(11,54,56)           108.2863         estimate D2E/DX2                !
 ! A186  A(20,54,56)           121.8085         estimate D2E/DX2                !
 ! A187  A(51,55,53)           107.2198         estimate D2E/DX2                !
 ! A188  A(51,55,83)           122.708          estimate D2E/DX2                !
 ! A189  A(53,55,83)           122.1247         estimate D2E/DX2                !
 ! A190  A(52,56,54)           108.7687         estimate D2E/DX2                !
 ! A191  A(52,56,84)           121.0988         estimate D2E/DX2                !
 ! A192  A(54,56,84)           122.4435         estimate D2E/DX2                !
 ! A193  A(21,57,59)           116.6727         estimate D2E/DX2                !
 ! A194  A(21,57,83)           118.1447         estimate D2E/DX2                !
 ! A195  A(59,57,83)           119.4369         estimate D2E/DX2                !
 ! A196  A(22,58,60)           108.3099         estimate D2E/DX2                !
 ! A197  A(22,58,84)           121.7313         estimate D2E/DX2                !
 ! A198  A(60,58,84)           120.7521         estimate D2E/DX2                !
 ! A199  A(57,59,60)           119.4533         estimate D2E/DX2                !
 ! A200  A(57,59,61)           119.7385         estimate D2E/DX2                !
 ! A201  A(60,59,61)           115.0786         estimate D2E/DX2                !
 ! A202  A(58,60,59)           120.7422         estimate D2E/DX2                !
 ! A203  A(58,60,62)           108.3067         estimate D2E/DX2                !
 ! A204  A(59,60,62)           122.3624         estimate D2E/DX2                !
 ! A205  A(25,61,59)           121.702          estimate D2E/DX2                !
 ! A206  A(25,61,63)           107.6309         estimate D2E/DX2                !
 ! A207  A(59,61,63)           121.5956         estimate D2E/DX2                !
 ! A208  A(24,62,60)           106.9919         estimate D2E/DX2                !
 ! A209  A(24,62,64)           120.275          estimate D2E/DX2                !
 ! A210  A(60,62,64)           121.7832         estimate D2E/DX2                !
 ! A211  A(61,63,64)           122.1872         estimate D2E/DX2                !
 ! A212  A(61,63,65)           109.4663         estimate D2E/DX2                !
 ! A213  A(64,63,65)           121.3005         estimate D2E/DX2                !
 ! A214  A(62,64,63)           115.2736         estimate D2E/DX2                !
 ! A215  A(62,64,66)           120.6146         estimate D2E/DX2                !
 ! A216  A(63,64,66)           118.2753         estimate D2E/DX2                !
 ! A217  A(27,65,63)           109.3493         estimate D2E/DX2                !
 ! A218  A(27,65,67)           124.7706         estimate D2E/DX2                !
 ! A219  A(63,65,67)           121.3671         estimate D2E/DX2                !
 ! A220  A(28,66,64)           117.3433         estimate D2E/DX2                !
 ! A221  A(28,66,68)           117.8591         estimate D2E/DX2                !
 ! A222  A(64,66,68)           119.8486         estimate D2E/DX2                !
 ! A223  A(65,67,68)           119.4176         estimate D2E/DX2                !
 ! A224  A(65,67,69)           116.3773         estimate D2E/DX2                !
 ! A225  A(68,67,69)           121.999          estimate D2E/DX2                !
 ! A226  A(66,68,67)           119.7422         estimate D2E/DX2                !
 ! A227  A(66,68,70)           117.5382         estimate D2E/DX2                !
 ! A228  A(67,68,70)           118.59           estimate D2E/DX2                !
 ! A229  A(31,69,67)           109.8573         estimate D2E/DX2                !
 ! A230  A(31,69,71)           101.3266         estimate D2E/DX2                !
 ! A231  A(31,69,93)           111.5182         estimate D2E/DX2                !
 ! A232  A(67,69,71)           112.4799         estimate D2E/DX2                !
 ! A233  A(67,69,93)           109.7126         estimate D2E/DX2                !
 ! A234  A(71,69,93)           111.7253         estimate D2E/DX2                !
 ! A235  A(32,70,68)           122.6299         estimate D2E/DX2                !
 ! A236  A(32,70,72)           107.4811         estimate D2E/DX2                !
 ! A237  A(68,70,72)           121.0622         estimate D2E/DX2                !
 ! A238  A(69,71,72)           122.5803         estimate D2E/DX2                !
 ! A239  A(69,71,73)           110.1315         estimate D2E/DX2                !
 ! A240  A(72,71,73)           118.0936         estimate D2E/DX2                !
 ! A241  A(70,72,71)           120.6574         estimate D2E/DX2                !
 ! A242  A(70,72,74)           108.3053         estimate D2E/DX2                !
 ! A243  A(71,72,74)           121.504          estimate D2E/DX2                !
 ! A244  A(33,73,71)           109.1754         estimate D2E/DX2                !
 ! A245  A(33,73,75)           119.2164         estimate D2E/DX2                !
 ! A246  A(71,73,75)           120.498          estimate D2E/DX2                !
 ! A247  A(34,74,72)           110.3761         estimate D2E/DX2                !
 ! A248  A(34,74,76)           122.0312         estimate D2E/DX2                !
 ! A249  A(72,74,76)           120.2056         estimate D2E/DX2                !
 ! A250  A(73,75,76)           120.2937         estimate D2E/DX2                !
 ! A251  A(73,75,77)           119.6358         estimate D2E/DX2                !
 ! A252  A(76,75,77)           110.314          estimate D2E/DX2                !
 ! A253  A(74,76,75)           119.0054         estimate D2E/DX2                !
 ! A254  A(74,76,78)           122.6932         estimate D2E/DX2                !
 ! A255  A(75,76,78)           109.8727         estimate D2E/DX2                !
 ! A256  A(37,77,75)           121.9437         estimate D2E/DX2                !
 ! A257  A(37,77,81)           121.2425         estimate D2E/DX2                !
 ! A258  A(75,77,81)           107.285          estimate D2E/DX2                !
 ! A259  A(38,78,76)           110.6192         estimate D2E/DX2                !
 ! A260  A(38,78,81)           109.3219         estimate D2E/DX2                !
 ! A261  A(38,78,87)           108.8803         estimate D2E/DX2                !
 ! A262  A(76,78,81)           101.7885         estimate D2E/DX2                !
 ! A263  A(76,78,87)           113.5924         estimate D2E/DX2                !
 ! A264  A(81,78,87)           112.4543         estimate D2E/DX2                !
 ! A265  A(39,79,40)           108.5582         estimate D2E/DX2                !
 ! A266  A(39,79,82)           113.6023         estimate D2E/DX2                !
 ! A267  A(39,79,94)           110.3448         estimate D2E/DX2                !
 ! A268  A(40,79,82)           100.7341         estimate D2E/DX2                !
 ! A269  A(40,79,94)           111.786          estimate D2E/DX2                !
 ! A270  A(82,79,94)           111.4654         estimate D2E/DX2                !
 ! A271  A(41,80,42)           107.9072         estimate D2E/DX2                !
 ! A272  A(41,80,82)           100.4704         estimate D2E/DX2                !
 ! A273  A(41,80,86)           112.517          estimate D2E/DX2                !
 ! A274  A(42,80,82)           111.1504         estimate D2E/DX2                !
 ! A275  A(42,80,86)           110.4937         estimate D2E/DX2                !
 ! A276  A(82,80,86)           113.8072         estimate D2E/DX2                !
 ! A277  A(77,81,78)           110.4111         estimate D2E/DX2                !
 ! A278  A(77,81,82)           121.4543         estimate D2E/DX2                !
 ! A279  A(78,81,82)           123.1609         estimate D2E/DX2                !
 ! A280  A(79,82,80)           112.1232         estimate D2E/DX2                !
 ! A281  A(79,82,81)           121.1267         estimate D2E/DX2                !
 ! A282  A(80,82,81)           121.4348         estimate D2E/DX2                !
 ! A283  A(55,83,57)           118.6347         estimate D2E/DX2                !
 ! A284  A(55,83,84)           116.4135         estimate D2E/DX2                !
 ! A285  A(57,83,84)           119.7525         estimate D2E/DX2                !
 ! A286  A(56,84,58)           115.2318         estimate D2E/DX2                !
 ! A287  A(56,84,83)           119.6679         estimate D2E/DX2                !
 ! A288  A(58,84,83)           119.5802         estimate D2E/DX2                !
 ! D1    D(17,1,5,9)             2.8957         estimate D2E/DX2                !
 ! D2    D(17,1,5,29)         -153.0597         estimate D2E/DX2                !
 ! D3    D(23,1,5,9)           140.2777         estimate D2E/DX2                !
 ! D4    D(23,1,5,29)          -15.6777         estimate D2E/DX2                !
 ! D5    D(5,1,17,15)           -4.1647         estimate D2E/DX2                !
 ! D6    D(5,1,17,19)          137.4929         estimate D2E/DX2                !
 ! D7    D(23,1,17,15)        -146.3836         estimate D2E/DX2                !
 ! D8    D(23,1,17,19)          -4.726          estimate D2E/DX2                !
 ! D9    D(5,1,23,21)         -134.1918         estimate D2E/DX2                !
 ! D10   D(5,1,23,25)           11.0983         estimate D2E/DX2                !
 ! D11   D(17,1,23,21)           8.8754         estimate D2E/DX2                !
 ! D12   D(17,1,23,25)         154.1654         estimate D2E/DX2                !
 ! D13   D(43,2,6,10)         -137.6549         estimate D2E/DX2                !
 ! D14   D(43,2,6,15)           10.5004         estimate D2E/DX2                !
 ! D15   D(44,2,6,10)          -22.547          estimate D2E/DX2                !
 ! D16   D(44,2,6,15)          125.6084         estimate D2E/DX2                !
 ! D17   D(91,2,6,10)          101.2336         estimate D2E/DX2                !
 ! D18   D(91,2,6,15)         -110.6111         estimate D2E/DX2                !
 ! D19   D(6,2,43,13)           -7.6426         estimate D2E/DX2                !
 ! D20   D(6,2,43,39)          148.9184         estimate D2E/DX2                !
 ! D21   D(44,2,43,13)        -124.2487         estimate D2E/DX2                !
 ! D22   D(44,2,43,39)          32.3123         estimate D2E/DX2                !
 ! D23   D(91,2,43,13)         113.7643         estimate D2E/DX2                !
 ! D24   D(91,2,43,39)         -89.6747         estimate D2E/DX2                !
 ! D25   D(6,2,44,40)         -147.6677         estimate D2E/DX2                !
 ! D26   D(6,2,44,47)           19.5808         estimate D2E/DX2                !
 ! D27   D(43,2,44,40)         -36.8014         estimate D2E/DX2                !
 ! D28   D(43,2,44,47)         130.447          estimate D2E/DX2                !
 ! D29   D(91,2,44,40)          86.7939         estimate D2E/DX2                !
 ! D30   D(91,2,44,47)        -105.9577         estimate D2E/DX2                !
 ! D31   D(18,3,7,12)           26.9928         estimate D2E/DX2                !
 ! D32   D(18,3,7,30)          141.9077         estimate D2E/DX2                !
 ! D33   D(18,3,7,95)          -96.1417         estimate D2E/DX2                !
 ! D34   D(26,3,7,12)         -125.6279         estimate D2E/DX2                !
 ! D35   D(26,3,7,30)          -10.7131         estimate D2E/DX2                !
 ! D36   D(26,3,7,95)          111.2376         estimate D2E/DX2                !
 ! D37   D(7,3,18,16)            6.6205         estimate D2E/DX2                !
 ! D38   D(7,3,18,20)         -153.1934         estimate D2E/DX2                !
 ! D39   D(26,3,18,16)         156.2331         estimate D2E/DX2                !
 ! D40   D(26,3,18,20)          -3.5807         estimate D2E/DX2                !
 ! D41   D(7,3,26,24)          158.6318         estimate D2E/DX2                !
 ! D42   D(7,3,26,28)           11.9406         estimate D2E/DX2                !
 ! D43   D(18,3,26,24)           4.4191         estimate D2E/DX2                !
 ! D44   D(18,3,26,28)        -142.2721         estimate D2E/DX2                !
 ! D45   D(45,4,8,11)           19.5729         estimate D2E/DX2                !
 ! D46   D(45,4,8,16)         -135.5055         estimate D2E/DX2                !
 ! D47   D(46,4,8,11)          133.6601         estimate D2E/DX2                !
 ! D48   D(46,4,8,16)          -21.4183         estimate D2E/DX2                !
 ! D49   D(85,4,8,11)         -106.058          estimate D2E/DX2                !
 ! D50   D(85,4,8,16)           98.8637         estimate D2E/DX2                !
 ! D51   D(8,4,45,41)          145.8425         estimate D2E/DX2                !
 ! D52   D(8,4,45,48)          -20.438          estimate D2E/DX2                !
 ! D53   D(46,4,45,41)          36.3361         estimate D2E/DX2                !
 ! D54   D(46,4,45,48)        -129.9444         estimate D2E/DX2                !
 ! D55   D(85,4,45,41)         -86.7742         estimate D2E/DX2                !
 ! D56   D(85,4,45,48)         106.9452         estimate D2E/DX2                !
 ! D57   D(8,4,46,14)           11.9999         estimate D2E/DX2                !
 ! D58   D(8,4,46,42)         -150.3153         estimate D2E/DX2                !
 ! D59   D(45,4,46,14)         129.0711         estimate D2E/DX2                !
 ! D60   D(45,4,46,42)         -33.2441         estimate D2E/DX2                !
 ! D61   D(85,4,46,14)        -109.0969         estimate D2E/DX2                !
 ! D62   D(85,4,46,42)          88.5879         estimate D2E/DX2                !
 ! D63   D(1,5,9,13)            -0.1954         estimate D2E/DX2                !
 ! D64   D(1,5,9,35)          -157.2967         estimate D2E/DX2                !
 ! D65   D(29,5,9,13)          155.578          estimate D2E/DX2                !
 ! D66   D(29,5,9,35)           -1.5232         estimate D2E/DX2                !
 ! D67   D(1,5,29,27)           -0.1813         estimate D2E/DX2                !
 ! D68   D(1,5,29,31)          163.353          estimate D2E/DX2                !
 ! D69   D(9,5,29,27)         -155.8996         estimate D2E/DX2                !
 ! D70   D(9,5,29,31)            7.6347         estimate D2E/DX2                !
 ! D71   D(2,6,10,49)           -0.4005         estimate D2E/DX2                !
 ! D72   D(2,6,10,53)          145.3192         estimate D2E/DX2                !
 ! D73   D(15,6,10,49)        -145.4128         estimate D2E/DX2                !
 ! D74   D(15,6,10,53)           0.3069         estimate D2E/DX2                !
 ! D75   D(2,6,15,13)           -9.9729         estimate D2E/DX2                !
 ! D76   D(2,6,15,17)         -154.1929         estimate D2E/DX2                !
 ! D77   D(10,6,15,13)         139.1831         estimate D2E/DX2                !
 ! D78   D(10,6,15,17)          -5.037          estimate D2E/DX2                !
 ! D79   D(3,7,12,14)          -31.3379         estimate D2E/DX2                !
 ! D80   D(3,7,12,36)          136.7025         estimate D2E/DX2                !
 ! D81   D(30,7,12,14)        -141.7602         estimate D2E/DX2                !
 ! D82   D(30,7,12,36)          26.2802         estimate D2E/DX2                !
 ! D83   D(95,7,12,14)          93.2038         estimate D2E/DX2                !
 ! D84   D(95,7,12,36)         -98.7558         estimate D2E/DX2                !
 ! D85   D(3,7,30,28)            6.1308         estimate D2E/DX2                !
 ! D86   D(3,7,30,32)         -145.0061         estimate D2E/DX2                !
 ! D87   D(12,7,30,28)         122.1199         estimate D2E/DX2                !
 ! D88   D(12,7,30,32)         -29.017          estimate D2E/DX2                !
 ! D89   D(95,7,30,28)        -114.9958         estimate D2E/DX2                !
 ! D90   D(95,7,30,32)          93.8674         estimate D2E/DX2                !
 ! D91   D(4,8,11,50)            7.2066         estimate D2E/DX2                !
 ! D92   D(4,8,11,54)         -144.7488         estimate D2E/DX2                !
 ! D93   D(16,8,11,50)         159.6302         estimate D2E/DX2                !
 ! D94   D(16,8,11,54)           7.6749         estimate D2E/DX2                !
 ! D95   D(4,8,16,14)           22.1163         estimate D2E/DX2                !
 ! D96   D(4,8,16,18)          139.5779         estimate D2E/DX2                !
 ! D97   D(4,8,16,96)          -95.2687         estimate D2E/DX2                !
 ! D98   D(11,8,16,14)        -132.6637         estimate D2E/DX2                !
 ! D99   D(11,8,16,18)         -15.2021         estimate D2E/DX2                !
 ! D100  D(11,8,16,96)         109.9514         estimate D2E/DX2                !
 ! D101  D(5,9,13,15)           -1.3167         estimate D2E/DX2                !
 ! D102  D(5,9,13,43)         -147.5152         estimate D2E/DX2                !
 ! D103  D(35,9,13,15)         156.6912         estimate D2E/DX2                !
 ! D104  D(35,9,13,43)          10.4927         estimate D2E/DX2                !
 ! D105  D(5,9,35,33)           -7.7898         estimate D2E/DX2                !
 ! D106  D(5,9,35,37)          149.9353         estimate D2E/DX2                !
 ! D107  D(13,9,35,33)        -165.3937         estimate D2E/DX2                !
 ! D108  D(13,9,35,37)          -7.6687         estimate D2E/DX2                !
 ! D109  D(6,10,49,47)          26.1267         estimate D2E/DX2                !
 ! D110  D(6,10,49,51)         141.8413         estimate D2E/DX2                !
 ! D111  D(6,10,49,90)         -96.104          estimate D2E/DX2                !
 ! D112  D(53,10,49,47)       -122.4034         estimate D2E/DX2                !
 ! D113  D(53,10,49,51)         -6.6889         estimate D2E/DX2                !
 ! D114  D(53,10,49,90)        115.3659         estimate D2E/DX2                !
 ! D115  D(6,10,53,19)           3.9478         estimate D2E/DX2                !
 ! D116  D(6,10,53,55)        -141.6153         estimate D2E/DX2                !
 ! D117  D(49,10,53,19)        153.9261         estimate D2E/DX2                !
 ! D118  D(49,10,53,55)          8.363          estimate D2E/DX2                !
 ! D119  D(8,11,50,48)         -32.5672         estimate D2E/DX2                !
 ! D120  D(8,11,50,52)        -148.5505         estimate D2E/DX2                !
 ! D121  D(8,11,50,89)          89.7408         estimate D2E/DX2                !
 ! D122  D(54,11,50,48)        122.0435         estimate D2E/DX2                !
 ! D123  D(54,11,50,52)          6.0602         estimate D2E/DX2                !
 ! D124  D(54,11,50,89)       -115.6485         estimate D2E/DX2                !
 ! D125  D(8,11,54,20)           1.0616         estimate D2E/DX2                !
 ! D126  D(8,11,54,56)         148.9561         estimate D2E/DX2                !
 ! D127  D(50,11,54,20)       -154.2671         estimate D2E/DX2                !
 ! D128  D(50,11,54,56)         -6.3725         estimate D2E/DX2                !
 ! D129  D(7,12,14,16)           4.778          estimate D2E/DX2                !
 ! D130  D(7,12,14,46)         166.595          estimate D2E/DX2                !
 ! D131  D(36,12,14,16)       -163.8018         estimate D2E/DX2                !
 ! D132  D(36,12,14,46)         -1.9848         estimate D2E/DX2                !
 ! D133  D(7,12,36,34)           5.3366         estimate D2E/DX2                !
 ! D134  D(7,12,36,38)        -166.1223         estimate D2E/DX2                !
 ! D135  D(14,12,36,34)        173.098          estimate D2E/DX2                !
 ! D136  D(14,12,36,38)          1.639          estimate D2E/DX2                !
 ! D137  D(9,13,15,6)         -145.2804         estimate D2E/DX2                !
 ! D138  D(9,13,15,17)           0.139          estimate D2E/DX2                !
 ! D139  D(43,13,15,6)           4.8084         estimate D2E/DX2                !
 ! D140  D(43,13,15,17)        150.2278         estimate D2E/DX2                !
 ! D141  D(9,13,43,2)          152.3216         estimate D2E/DX2                !
 ! D142  D(9,13,43,39)          -5.0867         estimate D2E/DX2                !
 ! D143  D(15,13,43,2)           2.1247         estimate D2E/DX2                !
 ! D144  D(15,13,43,39)       -155.2836         estimate D2E/DX2                !
 ! D145  D(12,14,16,8)         149.4737         estimate D2E/DX2                !
 ! D146  D(12,14,16,18)         28.6226         estimate D2E/DX2                !
 ! D147  D(12,14,16,96)        -92.9105         estimate D2E/DX2                !
 ! D148  D(46,14,16,8)         -13.8675         estimate D2E/DX2                !
 ! D149  D(46,14,16,18)       -134.7186         estimate D2E/DX2                !
 ! D150  D(46,14,16,96)        103.7483         estimate D2E/DX2                !
 ! D151  D(12,14,46,4)        -162.9493         estimate D2E/DX2                !
 ! D152  D(12,14,46,42)          0.3335         estimate D2E/DX2                !
 ! D153  D(16,14,46,4)           1.259          estimate D2E/DX2                !
 ! D154  D(16,14,46,42)        164.5417         estimate D2E/DX2                !
 ! D155  D(6,15,17,1)          143.5959         estimate D2E/DX2                !
 ! D156  D(6,15,17,19)           5.4003         estimate D2E/DX2                !
 ! D157  D(13,15,17,1)           2.56           estimate D2E/DX2                !
 ! D158  D(13,15,17,19)       -135.6356         estimate D2E/DX2                !
 ! D159  D(8,16,18,3)         -145.0239         estimate D2E/DX2                !
 ! D160  D(8,16,18,20)          14.7736         estimate D2E/DX2                !
 ! D161  D(14,16,18,3)         -32.9941         estimate D2E/DX2                !
 ! D162  D(14,16,18,20)        126.8034         estimate D2E/DX2                !
 ! D163  D(96,16,18,3)          89.1351         estimate D2E/DX2                !
 ! D164  D(96,16,18,20)       -111.0673         estimate D2E/DX2                !
 ! D165  D(1,17,19,21)          -1.1633         estimate D2E/DX2                !
 ! D166  D(1,17,19,53)        -143.7418         estimate D2E/DX2                !
 ! D167  D(15,17,19,21)        141.4386         estimate D2E/DX2                !
 ! D168  D(15,17,19,53)         -1.1398         estimate D2E/DX2                !
 ! D169  D(3,18,20,22)           0.4781         estimate D2E/DX2                !
 ! D170  D(3,18,20,54)         151.8828         estimate D2E/DX2                !
 ! D171  D(16,18,20,22)       -158.7798         estimate D2E/DX2                !
 ! D172  D(16,18,20,54)         -7.3751         estimate D2E/DX2                !
 ! D173  D(17,19,21,23)          6.6269         estimate D2E/DX2                !
 ! D174  D(17,19,21,57)       -139.8209         estimate D2E/DX2                !
 ! D175  D(53,19,21,23)        148.8281         estimate D2E/DX2                !
 ! D176  D(53,19,21,57)          2.3804         estimate D2E/DX2                !
 ! D177  D(17,19,53,10)         -3.5094         estimate D2E/DX2                !
 ! D178  D(17,19,53,55)        138.9394         estimate D2E/DX2                !
 ! D179  D(21,19,53,10)       -141.8003         estimate D2E/DX2                !
 ! D180  D(21,19,53,55)          0.6485         estimate D2E/DX2                !
 ! D181  D(18,20,22,24)          1.8899         estimate D2E/DX2                !
 ! D182  D(18,20,22,58)        141.9202         estimate D2E/DX2                !
 ! D183  D(54,20,22,24)       -150.7153         estimate D2E/DX2                !
 ! D184  D(54,20,22,58)        -10.685          estimate D2E/DX2                !
 ! D185  D(18,20,54,11)         -1.0975         estimate D2E/DX2                !
 ! D186  D(18,20,54,56)       -144.6687         estimate D2E/DX2                !
 ! D187  D(22,20,54,11)        151.3933         estimate D2E/DX2                !
 ! D188  D(22,20,54,56)          7.8221         estimate D2E/DX2                !
 ! D189  D(19,21,23,1)          -9.5737         estimate D2E/DX2                !
 ! D190  D(19,21,23,25)       -155.0086         estimate D2E/DX2                !
 ! D191  D(57,21,23,1)         136.866          estimate D2E/DX2                !
 ! D192  D(57,21,23,25)         -8.5689         estimate D2E/DX2                !
 ! D193  D(19,21,57,59)        150.3442         estimate D2E/DX2                !
 ! D194  D(19,21,57,83)         -2.8421         estimate D2E/DX2                !
 ! D195  D(23,21,57,59)          8.924          estimate D2E/DX2                !
 ! D196  D(23,21,57,83)       -144.2623         estimate D2E/DX2                !
 ! D197  D(20,22,24,26)         -1.1134         estimate D2E/DX2                !
 ! D198  D(20,22,24,62)        142.4454         estimate D2E/DX2                !
 ! D199  D(58,22,24,26)       -146.5569         estimate D2E/DX2                !
 ! D200  D(58,22,24,62)         -2.998          estimate D2E/DX2                !
 ! D201  D(20,22,58,60)       -142.9417         estimate D2E/DX2                !
 ! D202  D(20,22,58,84)          3.9744         estimate D2E/DX2                !
 ! D203  D(24,22,58,60)          1.4907         estimate D2E/DX2                !
 ! D204  D(24,22,58,84)        148.4068         estimate D2E/DX2                !
 ! D205  D(1,23,25,27)          10.2392         estimate D2E/DX2                !
 ! D206  D(1,23,25,61)        -136.9426         estimate D2E/DX2                !
 ! D207  D(21,23,25,27)        151.4504         estimate D2E/DX2                !
 ! D208  D(21,23,25,61)          4.2686         estimate D2E/DX2                !
 ! D209  D(22,24,26,3)          -2.005          estimate D2E/DX2                !
 ! D210  D(22,24,26,28)        141.2051         estimate D2E/DX2                !
 ! D211  D(62,24,26,3)        -141.7954         estimate D2E/DX2                !
 ! D212  D(62,24,26,28)          1.4148         estimate D2E/DX2                !
 ! D213  D(22,24,62,60)          3.3524         estimate D2E/DX2                !
 ! D214  D(22,24,62,64)       -141.3449         estimate D2E/DX2                !
 ! D215  D(26,24,62,60)        146.9102         estimate D2E/DX2                !
 ! D216  D(26,24,62,64)          2.2129         estimate D2E/DX2                !
 ! D217  D(23,25,27,29)        -23.8962         estimate D2E/DX2                !
 ! D218  D(23,25,27,65)       -140.8996         estimate D2E/DX2                !
 ! D219  D(23,25,27,92)         99.959          estimate D2E/DX2                !
 ! D220  D(61,25,27,29)        125.4805         estimate D2E/DX2                !
 ! D221  D(61,25,27,65)          8.477          estimate D2E/DX2                !
 ! D222  D(61,25,27,92)       -110.6644         estimate D2E/DX2                !
 ! D223  D(23,25,61,59)         -1.036          estimate D2E/DX2                !
 ! D224  D(23,25,61,63)        146.3641         estimate D2E/DX2                !
 ! D225  D(27,25,61,59)       -151.4692         estimate D2E/DX2                !
 ! D226  D(27,25,61,63)         -4.0692         estimate D2E/DX2                !
 ! D227  D(3,26,28,30)          -7.888          estimate D2E/DX2                !
 ! D228  D(3,26,28,66)         140.4787         estimate D2E/DX2                !
 ! D229  D(24,26,28,30)       -154.7692         estimate D2E/DX2                !
 ! D230  D(24,26,28,66)         -6.4025         estimate D2E/DX2                !
 ! D231  D(25,27,29,5)          18.8161         estimate D2E/DX2                !
 ! D232  D(25,27,29,31)       -145.1229         estimate D2E/DX2                !
 ! D233  D(65,27,29,5)         130.2035         estimate D2E/DX2                !
 ! D234  D(65,27,29,31)        -33.7355         estimate D2E/DX2                !
 ! D235  D(92,27,29,5)        -106.2046         estimate D2E/DX2                !
 ! D236  D(92,27,29,31)         89.8564         estimate D2E/DX2                !
 ! D237  D(25,27,65,63)         -9.9179         estimate D2E/DX2                !
 ! D238  D(25,27,65,67)        146.3439         estimate D2E/DX2                !
 ! D239  D(29,27,65,63)       -127.8969         estimate D2E/DX2                !
 ! D240  D(29,27,65,67)         28.3649         estimate D2E/DX2                !
 ! D241  D(92,27,65,63)        109.4997         estimate D2E/DX2                !
 ! D242  D(92,27,65,67)        -94.2385         estimate D2E/DX2                !
 ! D243  D(26,28,30,7)           0.6595         estimate D2E/DX2                !
 ! D244  D(26,28,30,32)        152.7788         estimate D2E/DX2                !
 ! D245  D(66,28,30,7)        -147.2252         estimate D2E/DX2                !
 ! D246  D(66,28,30,32)          4.8941         estimate D2E/DX2                !
 ! D247  D(26,28,66,64)          7.3845         estimate D2E/DX2                !
 ! D248  D(26,28,66,68)       -147.7209         estimate D2E/DX2                !
 ! D249  D(30,28,66,64)        150.9096         estimate D2E/DX2                !
 ! D250  D(30,28,66,68)         -4.1957         estimate D2E/DX2                !
 ! D251  D(5,29,31,33)          -4.2114         estimate D2E/DX2                !
 ! D252  D(5,29,31,69)        -158.5907         estimate D2E/DX2                !
 ! D253  D(27,29,31,33)        160.2132         estimate D2E/DX2                !
 ! D254  D(27,29,31,69)          5.8339         estimate D2E/DX2                !
 ! D255  D(7,30,32,34)          -0.3125         estimate D2E/DX2                !
 ! D256  D(7,30,32,70)         149.6679         estimate D2E/DX2                !
 ! D257  D(28,30,32,34)       -149.3552         estimate D2E/DX2                !
 ! D258  D(28,30,32,70)          0.6253         estimate D2E/DX2                !
 ! D259  D(29,31,33,35)         -5.6844         estimate D2E/DX2                !
 ! D260  D(29,31,33,73)       -155.1673         estimate D2E/DX2                !
 ! D261  D(69,31,33,35)        152.0978         estimate D2E/DX2                !
 ! D262  D(69,31,33,73)          2.6149         estimate D2E/DX2                !
 ! D263  D(29,31,69,67)         29.7552         estimate D2E/DX2                !
 ! D264  D(29,31,69,71)        148.8952         estimate D2E/DX2                !
 ! D265  D(29,31,69,93)        -92.1077         estimate D2E/DX2                !
 ! D266  D(33,31,69,67)       -127.1223         estimate D2E/DX2                !
 ! D267  D(33,31,69,71)         -7.9824         estimate D2E/DX2                !
 ! D268  D(33,31,69,93)        111.0148         estimate D2E/DX2                !
 ! D269  D(30,32,34,36)         32.2884         estimate D2E/DX2                !
 ! D270  D(30,32,34,74)        148.8913         estimate D2E/DX2                !
 ! D271  D(30,32,34,88)        -89.1517         estimate D2E/DX2                !
 ! D272  D(70,32,34,36)       -119.68           estimate D2E/DX2                !
 ! D273  D(70,32,34,74)         -3.0771         estimate D2E/DX2                !
 ! D274  D(70,32,34,88)        118.88           estimate D2E/DX2                !
 ! D275  D(30,32,70,68)         -6.8863         estimate D2E/DX2                !
 ! D276  D(30,32,70,72)       -154.4482         estimate D2E/DX2                !
 ! D277  D(34,32,70,68)        145.8916         estimate D2E/DX2                !
 ! D278  D(34,32,70,72)         -1.6704         estimate D2E/DX2                !
 ! D279  D(31,33,35,9)          11.5023         estimate D2E/DX2                !
 ! D280  D(31,33,35,37)       -146.7485         estimate D2E/DX2                !
 ! D281  D(73,33,35,9)         156.8971         estimate D2E/DX2                !
 ! D282  D(73,33,35,37)         -1.3536         estimate D2E/DX2                !
 ! D283  D(31,33,73,71)          4.4469         estimate D2E/DX2                !
 ! D284  D(31,33,73,75)        148.5549         estimate D2E/DX2                !
 ! D285  D(35,33,73,71)       -144.9274         estimate D2E/DX2                !
 ! D286  D(35,33,73,75)         -0.8194         estimate D2E/DX2                !
 ! D287  D(32,34,36,12)        -34.0478         estimate D2E/DX2                !
 ! D288  D(32,34,36,38)        137.3279         estimate D2E/DX2                !
[...]
 Alpha virt. eigenvalues --    1.45855   1.45948   1.46435   1.47261   1.47696
 Alpha virt. eigenvalues --    1.48175   1.48292   1.49152   1.49328   1.50017
 Alpha virt. eigenvalues --    1.51087   1.51656   1.52603   1.52803   1.53150
 Alpha virt. eigenvalues --    1.53330   1.54154   1.54382   1.55142   1.55500
 Alpha virt. eigenvalues --    1.55776   1.55991   1.57348   1.57617   1.58096
 Alpha virt. eigenvalues --    1.58884   1.59205   1.59580   1.60117   1.60596
 Alpha virt. eigenvalues --    1.60728   1.61771   1.61810   1.62349   1.62655
 Alpha virt. eigenvalues --    1.62807   1.63303   1.63460   1.63615   1.64013
 Alpha virt. eigenvalues --    1.64251   1.64365   1.64500   1.64794   1.64940
 Alpha virt. eigenvalues --    1.65319   1.65818   1.65973   1.66225   1.66276
 Alpha virt. eigenvalues --    1.66429   1.66761   1.67118   1.67221   1.67559
 Alpha virt. eigenvalues --    1.67626   1.67902   1.68133   1.68280   1.68379
 Alpha virt. eigenvalues --    1.68599   1.69054   1.69276   1.69543   1.69825
 Alpha virt. eigenvalues --    1.70117   1.70188   1.70387   1.70836   1.71061
 Alpha virt. eigenvalues --    1.71220   1.71569   1.71624   1.71983   1.72040
 Alpha virt. eigenvalues --    1.72384   1.72453   1.72856   1.73070   1.73547
 Alpha virt. eigenvalues --    1.73593   1.73794   1.74208   1.74421   1.74582
 Alpha virt. eigenvalues --    1.74828   1.75072   1.75471   1.75493   1.75703
 Alpha virt. eigenvalues --    1.75928   1.76127   1.76489   1.76723   1.76789
 Alpha virt. eigenvalues --    1.76951   1.77368   1.77474   1.77645   1.77798
 Alpha virt. eigenvalues --    1.78113   1.78271   1.78517   1.78767   1.79258
 Alpha virt. eigenvalues --    1.79455   1.79501   1.79806   1.80140   1.80351
 Alpha virt. eigenvalues --    1.80552   1.80849   1.81219   1.81420   1.81585
 Alpha virt. eigenvalues --    1.82096   1.82341   1.82763   1.83111   1.83483
 Alpha virt. eigenvalues --    1.83689   1.84336   1.84665   1.84905   1.85133
 Alpha virt. eigenvalues --    1.85474   1.86187   1.86311   1.86678   1.86864
 Alpha virt. eigenvalues --    1.87094   1.87630   1.87725   1.88019   1.88522
 Alpha virt. eigenvalues --    1.88899   1.89141   1.89319   1.89798   1.90192
 Alpha virt. eigenvalues --    1.90429   1.90889   1.91420   1.91654   1.92270
 Alpha virt. eigenvalues --    1.92389   1.92544   1.92973   1.93444   1.93662
 Alpha virt. eigenvalues --    1.93712   1.94182   1.94574   1.94756   1.95015
 Alpha virt. eigenvalues --    1.95360   1.95544   1.96125   1.96591   1.96999
 Alpha virt. eigenvalues --    1.97304   1.97501   1.97945   1.98236   1.98448
 Alpha virt. eigenvalues --    1.99052   1.99086   1.99526   1.99837   2.00253
 Alpha virt. eigenvalues --    2.00288   2.00882   2.00969   2.01105   2.01358
 Alpha virt. eigenvalues --    2.01626   2.01959   2.02456   2.02937   2.03142
 Alpha virt. eigenvalues --    2.03393   2.04245   2.04368   2.04578   2.04729
 Alpha virt. eigenvalues --    2.05010   2.05199   2.05745   2.06141   2.06368
 Alpha virt. eigenvalues --    2.06624   2.07250   2.07643   2.07680   2.08099
 Alpha virt. eigenvalues --    2.08418   2.08890   2.09342   2.09770   2.10227
 Alpha virt. eigenvalues --    2.10405   2.11172   2.11558   2.12078   2.12385
 Alpha virt. eigenvalues --    2.12865   2.13216   2.13484   2.13725   2.14434
 Alpha virt. eigenvalues --    2.14836   2.15374   2.15431   2.15755   2.16339
 Alpha virt. eigenvalues --    2.16550   2.16987   2.17549   2.17723   2.18252
 Alpha virt. eigenvalues --    2.18432   2.18983   2.19082   2.19268   2.19938
 Alpha virt. eigenvalues --    2.20096   2.20968   2.21270   2.21705   2.22365
 Alpha virt. eigenvalues --    2.22489   2.22959   2.23329   2.23811   2.24281
 Alpha virt. eigenvalues --    2.24537   2.24755   2.24972   2.25700   2.26077
 Alpha virt. eigenvalues --    2.26134   2.26603   2.26976   2.27544   2.27653
 Alpha virt. eigenvalues --    2.28153   2.28655   2.29030   2.29152   2.29564
 Alpha virt. eigenvalues --    2.30138   2.30747   2.31346   2.31533   2.32112
 Alpha virt. eigenvalues --    2.32534   2.32954   2.33945   2.34420   2.34554
 Alpha virt. eigenvalues --    2.34949   2.35163   2.35902   2.36554   2.37275
 Alpha virt. eigenvalues --    2.37697   2.38183   2.38662   2.39061   2.39828
 Alpha virt. eigenvalues --    2.40325   2.40903   2.41428   2.41727   2.42422
 Alpha virt. eigenvalues --    2.42621   2.42881   2.43514   2.44264   2.44436
 Alpha virt. eigenvalues --    2.45104   2.45574   2.45972   2.46214   2.46583
 Alpha virt. eigenvalues --    2.47485   2.48007   2.48727   2.49260   2.49738
 Alpha virt. eigenvalues --    2.50046   2.50554   2.51023   2.51376   2.51643
 Alpha virt. eigenvalues --    2.51871   2.52459   2.53110   2.54002   2.54031
 Alpha virt. eigenvalues --    2.54404   2.55095   2.55471   2.55812   2.56159
 Alpha virt. eigenvalues --    2.56298   2.56590   2.56679   2.57313   2.57413
 Alpha virt. eigenvalues --    2.57619   2.57924   2.58236   2.58968   2.59270
 Alpha virt. eigenvalues --    2.59574   2.59875   2.60077   2.60339   2.60546
 Alpha virt. eigenvalues --    2.60969   2.61445   2.61644   2.61766   2.62247
 Alpha virt. eigenvalues --    2.62869   2.62941   2.63455   2.63727   2.63958
 Alpha virt. eigenvalues --    2.64160   2.64417   2.64663   2.65158   2.65288
 Alpha virt. eigenvalues --    2.65590   2.65963   2.66619   2.67102   2.67486
 Alpha virt. eigenvalues --    2.67895   2.68046   2.68174   2.68551   2.69264
 Alpha virt. eigenvalues --    2.69830   2.70356   2.70798   2.70952   2.71155
 Alpha virt. eigenvalues --    2.71559   2.71902   2.72305   2.72723   2.72980
 Alpha virt. eigenvalues --    2.73104   2.73623   2.74376   2.74663   2.74881
 Alpha virt. eigenvalues --    2.75339   2.75561   2.76279   2.76446   2.76635
 Alpha virt. eigenvalues --    2.76958   2.77347   2.77851   2.78536   2.78838
 Alpha virt. eigenvalues --    2.79554   2.79700   2.80462   2.81021   2.81424
 Alpha virt. eigenvalues --    2.81494   2.81997   2.82522   2.82794   2.83514
 Alpha virt. eigenvalues --    2.83915   2.84153   2.85549   2.86017   2.86264
 Alpha virt. eigenvalues --    2.86687   2.87209   2.87397   2.88298   2.88696
 Alpha virt. eigenvalues --    2.88855   2.89325   2.89539   2.90163   2.90560
 Alpha virt. eigenvalues --    2.91344   2.91828   2.92076   2.92738   2.93337
 Alpha virt. eigenvalues --    2.93884   2.94588   2.95048   2.96349   2.96986
 Alpha virt. eigenvalues --    2.97579   2.98140   2.99534   3.00345   3.00509
 Alpha virt. eigenvalues --    3.01069   3.02715   3.03043   3.04890   3.06474
 Alpha virt. eigenvalues --    3.06998   3.08470   3.10350   3.10667   3.12871
 Alpha virt. eigenvalues --    3.13526   3.13551   3.16555   3.16999   3.18282
 Alpha virt. eigenvalues --    3.18536   3.21487   3.21954   3.23464   3.24260
 Alpha virt. eigenvalues --    3.25853   3.26605   3.28757   3.30860   3.32657
 Alpha virt. eigenvalues --    3.33214   3.34368   3.38987   3.40043   3.41252
 Alpha virt. eigenvalues --    3.42818   3.45376   3.45884   3.48748   3.50128
 Alpha virt. eigenvalues --    3.52056   3.54896   3.56307   4.00341   4.01154
 Alpha virt. eigenvalues --    4.01444   4.02657   4.03366   4.03782   4.04519
 Alpha virt. eigenvalues --    4.04753   4.05647   4.06459   4.07289   4.07684
 Alpha virt. eigenvalues --    4.08179   4.08424   4.09637   4.10355   4.10839
 Alpha virt. eigenvalues --    4.11661   4.12656   4.13023   4.13802   4.14278
 Alpha virt. eigenvalues --    4.15184   4.16468   4.17288   4.17865   4.19147
 Alpha virt. eigenvalues --    4.19653   4.20377   4.20758   4.21216   4.21548
 Alpha virt. eigenvalues --    4.22738   4.23350   4.24406   4.25222   4.25895
 Alpha virt. eigenvalues --    4.26745   4.26833   4.27648   4.27897   4.28079
 Alpha virt. eigenvalues --    4.28511   4.28683   4.29033   4.30437   4.31438
 Alpha virt. eigenvalues --    4.32189   4.32743   4.34560   4.35365   4.36702
 Alpha virt. eigenvalues --    4.38367   4.38796   4.38993   4.40153   4.40894
 Alpha virt. eigenvalues --    4.41205   4.41487   4.43662   4.44432   4.45219
 Alpha virt. eigenvalues --    4.47450   4.48728   4.49139   4.49566   4.51203
 Alpha virt. eigenvalues --    4.53213   4.54462   4.55970   4.56883   4.57952
 Alpha virt. eigenvalues --    4.59296   4.61109   4.62013   4.64129   4.65201
 Alpha virt. eigenvalues --    4.66476   4.68907   4.70903   4.76912   4.77819
 Alpha virt. eigenvalues --    4.79309   4.80105   4.83437   4.86604   4.88147
 Alpha virt. eigenvalues --    4.90786   4.92157   4.99070   5.02983   5.05113
 Alpha virt. eigenvalues --    5.06860   5.12685   5.16857   5.20997
          Condensed to atoms (all electrons):
 Mulliken charges:
               1
     1  C   -0.043691
     2  C   -0.383131
     3  C    0.081930
     4  C   -0.372509
     5  C    0.075711
     6  C    0.090778
     7  C   -0.385650
     8  C    0.154403
     9  C    0.027410
    10  C    0.091367
    11  C    0.111488
    12  C    0.146829
    13  C    0.010241
    14  C    0.115423
    15  C    0.022412
    16  C   -0.359752
    17  C   -0.008013
    18  C    0.124804
    19  C   -0.012125
    20  C    0.078345
    21  C   -0.019360
    22  C   -0.023525
    23  C    0.004551
    24  C   -0.027745
    25  C    0.074757
    26  C    0.037457
    27  C   -0.365604
    28  C    0.009267
    29  C    0.120462
    30  C    0.092904
    31  C    0.082490
    32  C    0.091479
    33  C    0.004051
    34  C   -0.377371
    35  C    0.034090
    36  C    0.123574
    37  C    0.067005
    38  C    0.119242
    39  C    0.118615
    40  C    0.118695
    41  C    0.113506
    42  C    0.145979
    43  C    0.080003
    44  C    0.142591
    45  C    0.143701
    46  C    0.116536
    47  C    0.124168
    48  C    0.124192
    49  C   -0.377514
    50  C   -0.384188
    51  C    0.085638
    52  C    0.090896
    53  C    0.023621
    54  C   -0.016848
    55  C    0.004818
    56  C    0.012980
    57  C    0.047785
    58  C   -0.031252
    59  C    0.047726
    60  C   -0.024302
    61  C    0.012810
    62  C   -0.020393
    63  C    0.001344
    64  C    0.052219
    65  C    0.083955
    66  C    0.033646
    67  C    0.118295
    68  C    0.063750
    69  C   -0.363396
    70  C   -0.017652
    71  C    0.067600
    72  C    0.043536
    73  C    0.016516
    74  C    0.085302
    75  C    0.018280
    76  C    0.097849
    77  C   -0.018863
    78  C   -0.382622
    79  C   -0.359169
    80  C   -0.374480
    81  C    0.109852
    82  C    0.160625
    83  C    0.037702
    84  C    0.051411
    85  Cl   0.023506
    86  Cl   0.025260
    87  Cl   0.020606
    88  Cl   0.016988
    89  Cl   0.018946
    90  Cl   0.012950
    91  Cl   0.020437
    92  Cl  -0.001108
    93  Cl  -0.003962
    94  Cl   0.001489
    95  Cl   0.020697
    96  Cl   0.004732
 Sum of Mulliken charges =  -0.00000
 Mulliken charges with hydrogens summed into heavy atoms:
               1
     1  C   -0.043691
     2  C   -0.383131
     3  C    0.081930
     4  C   -0.372509
     5  C    0.075711
     6  C    0.090778
     7  C   -0.385650
     8  C    0.154403
     9  C    0.027410
    10  C    0.091367
    11  C    0.111488
    12  C    0.146829
    13  C    0.010241
    14  C    0.115423
    15  C    0.022412
    16  C   -0.359752
    17  C   -0.008013
    18  C    0.124804
    19  C   -0.012125
    20  C    0.078345
    21  C   -0.019360
    22  C   -0.023525
    23  C    0.004551
    24  C   -0.027745
    25  C    0.074757
    26  C    0.037457
    27  C   -0.365604
    28  C    0.009267
    29  C    0.120462
    30  C    0.092904
    31  C    0.082490
    32  C    0.091479
    33  C    0.004051
    34  C   -0.377371
    35  C    0.034090
    36  C    0.123574
    37  C    0.067005
    38  C    0.119242
    39  C    0.118615
    40  C    0.118695
    41  C    0.113506
    42  C    0.145979
    43  C    0.080003
    44  C    0.142591
    45  C    0.143701
    46  C    0.116536
    47  C    0.124168
    48  C    0.124192
    49  C   -0.377514
    50  C   -0.384188
    51  C    0.085638
    52  C    0.090896
    53  C    0.023621
    54  C   -0.016848
    55  C    0.004818
    56  C    0.012980
    57  C    0.047785
    58  C   -0.031252
    59  C    0.047726
    60  C   -0.024302
    61  C    0.012810
    62  C   -0.020393
    63  C    0.001344
    64  C    0.052219
    65  C    0.083955
    66  C    0.033646
    67  C    0.118295
    68  C    0.063750
    69  C   -0.363396
    70  C   -0.017652
    71  C    0.067600
    72  C    0.043536
    73  C    0.016516
    74  C    0.085302
    75  C    0.018280
    76  C    0.097849
    77  C   -0.018863
    78  C   -0.382622
    79  C   -0.359169
    80  C   -0.374480
    81  C    0.109852
    82  C    0.160625
    83  C    0.037702
    84  C    0.051411
    85  Cl   0.023506
    86  Cl   0.025260
    87  Cl   0.020606
    88  Cl   0.016988
    89  Cl   0.018946
    90  Cl   0.012950
    91  Cl   0.020437
    92  Cl  -0.001108
    93  Cl  -0.003962
    94  Cl   0.001489
    95  Cl   0.020697
    96  Cl   0.004732
 Electronic spatial extent (au):  <R**2>=          61344.6771
 Charge=             -0.0000 electrons
 Dipole moment (field-independent basis, Debye):
    X=              4.3650    Y=             -3.7628    Z=             -3.1976  Tot=              6.5906
 Quadrupole moment (field-independent basis, Debye-Ang):
   XX=           -653.0650   YY=           -634.3409   ZZ=           -615.6023
   XY=              4.9175   XZ=              1.7935   YZ=              2.6137
 Traceless Quadrupole moment (field-independent basis, Debye-Ang):
   XX=            -18.7289   YY=             -0.0048   ZZ=             18.7337
   XY=              4.9175   XZ=              1.7935   YZ=              2.6137
 Octapole moment (field-independent basis, Debye-Ang**2):
  XXX=            -93.3517  YYY=            -32.3843  ZZZ=             -6.6595  XYY=             -7.1098
  XXY=             80.2036  XXZ=             -2.8545  XZZ=             35.4088  YZZ=             -8.0691
  YYZ=             13.0038  XYZ=            -19.8641
 Hexadecapole moment (field-independent basis, Debye-Ang**3):
 XXXX=         -33564.7580 YYYY=         -30315.2767 ZZZZ=         -23529.0347 XXXY=            177.7067
 XXXZ=           -230.5858 YYYX=           -117.8837 YYYZ=             38.5676 ZZZX=            111.5682
 ZZZY=            -26.1700 XXYY=         -10728.4186 XXZZ=          -9414.1697 YYZZ=          -9011.6284
 XXYZ=             -7.9416 YYXZ=            -14.1533 ZZXY=            -10.8528
 N-N= 2.414352873992D+04 E-N=-6.880629965676D+04  KE= 8.676604913870D+03
 No NMR shielding tensors so no spin-rotation constants.
 Leave Link  601 at Mon Jun 27 13:15:42 2022, MaxMem=  1342177280 cpu:              25.8 elap:               1.3
 (Enter /home/mkliu/g16/l9999.exe)
 1\1\GINC-NODE05\FOpt\RB3LYP\6-31G(d,p)\C84Cl12\MKLIU\27-Jun-2022\0\\#P
  opt b3lyp/6-31G(d, p) empiricaldispersion=GD3\\force\\0,1\C,8.4757453
 898,18.8252264173,10.7798965448\C,12.5899984532,19.972934988,8.8933582
 137\C,8.2671753113,26.9039393648,10.5773172054\C,12.4806654858,25.7536
 871733,8.9335374918\C,7.9991698566,19.0828098296,9.4722532912\C,12.067
 4075043,19.4822764889,10.2213844854\C,7.868016049,27.1198060501,9.1150
 552025\C,11.9033997394,26.2147866202,10.2446958913\C,8.9769335666,19.1
 971777414,8.3928161154\C,12.3309175462,20.1217930953,11.3935322286\C,1
 2.1112638191,25.5307655642,11.3746091678\C,8.9486650699,26.5977431506,
 8.1814741126\C,10.3530143322,19.0515999638,8.7014048813\C,10.260265009
 4,26.6421314659,8.6479889419\C,10.8031549927,18.8233136651,10.02903384
 48\C,10.6760589917,27.0722414697,10.0436896993\C,9.8655966818,18.73435
 68581,11.0594988331\C,9.5603484236,26.8039377629,11.0370164914\C,10.14
 15636197,19.4270641533,12.3001505686\C,9.8293615411,26.0542135555,12.2
 530910259\C,8.9202937067,19.982153872,12.7938565641\C,8.7501577171,25.
 4339962397,12.9355721178\C,7.8608720749,19.4975417117,11.9302944614\C,
 7.4257330632,25.511494671,12.403575004\C,6.7098056124,20.2103695136,11
 .790360715\C,7.2030344871,26.2086609127,11.2390249885\C,5.8808691446,2
 0.1494119525,10.5309972158\C,6.2640458311,25.7189660968,10.2536444558\
 C,6.7109467031,19.7382613125,9.3242558127\C,6.6335670733,26.2482966897
 ,9.0059683542\C,6.3881732084,20.3121435883,8.1285810716\C,6.3174744588
 ,25.5647452111,7.8583017772\C,7.3201745338,20.3614444594,7.0397698068\
 C,7.1910505076,25.634851001,6.6159531579\C,8.6567360533,19.9208999986,
 7.1891826993\C,8.6583487164,25.8401929247,7.0244166937\C,9.7030038449,
 20.600860029,6.4344604304\C,9.6919717065,25.1143232543,6.383649781\C,1
 1.0705392197,20.5510204044,6.9072085862\C,12.7370832609,22.178040455,7
 .7686915573\C,12.7147318453,23.5688317761,7.7709989757\C,11.0040871002
 ,25.1385171396,6.90024705\C,11.3695122124,19.7652078084,7.9828663291\C
 ,12.9353602519,21.4544208488,8.9437158605\C,12.8808111353,24.285093557
 6,8.957785983\C,11.2728007489,25.9204040362,8.0212062818\C,13.14344422
 87,22.1559911159,10.1478136237\C,13.1088514255,23.5753609468,10.150625
 4562\C,13.1672677282,21.3848590019,11.475458549\C,13.0561574507,24.343
 7418475,11.4703096154\C,12.4287544982,22.1666302606,12.5484608968\C,12
 .3846017344,23.5164761663,12.5395081075\C,11.3311251055,20.1312203114,
 12.4339722845\C,11.0934087093,25.4401452853,12.4123106975\C,11.3275346
 007,21.4050519075,13.0788194002\C,11.2380769898,24.196017932,13.068000
 8564\C,8.8715310759,21.2731421251,13.3772411766\C,8.880197739,24.14560
 91127,13.5488000641\C,7.6287888801,22.0140868526,13.235972685\C,7.6367
 814357,23.4235516765,13.3596154354\C,6.5815332492,21.4721791927,12.431
 5957884\C,6.7481872857,24.2536182231,12.6215775888\C,5.7666979061,22.3
 099817667,11.6036483874\C,5.8831254543,23.7169070806,11.6252427285\C,5
 .4229053513,21.6059821838,10.4061723895\C,5.6491016812,24.4389686685,1
 0.3889530914\C,5.2311983752,22.2590873432,9.2174906967\C,5.3279776115,
 23.7130308783,9.1815841911\C,5.3372139907,21.4204085311,7.9536127612\C
 ,5.6205088841,24.3424098562,7.9409904612\C,5.9083103699,22.1889866365,
 6.7860886767\C,5.9490449582,23.5585665662,6.7564587732\C,6.9854228926,
 21.4644502219,6.2059679722\C,6.9694284081,24.2603358381,6.0227324449\C
 ,8.0028514552,22.1395619615,5.5155239276\C,7.9677252932,23.5690464037,
 5.4068155883\C,9.3385786989,21.6853030397,5.6090209017\C,9.3734708931,
 24.1089568063,5.2756298786\C,12.0787179555,21.6198375356,6.5187565743\
 C,12.0611933417,24.1157675272,6.5096098023\C,10.2088855272,22.84608265
 86,5.4599517129\C,11.4494783442,22.8622631745,5.9511543216\C,10.128239
 512,22.0113291301,13.5302461782\C,10.1084714517,23.464145443,13.573799
 9069\Cl,13.9084666306,26.7938213728,8.3968652085\Cl,13.2908868404,24.8
 664181107,5.356869926\Cl,9.665697795,24.8815341752,3.6304694772\Cl,6.6
 797629785,26.9785904839,5.4647642116\Cl,14.7483406586,24.8849286452,11
 .9561203227\Cl,14.9135108809,21.0198402298,11.9419209989\Cl,14.0425390
 547,18.9813712478,8.346077197\Cl,4.4432088206,19.0005426394,10.7601068
 117\Cl,3.6794245162,20.7140415684,7.5008354431\Cl,13.3279112259,20.928
 6535742,5.3251174718\Cl,7.5033947362,28.8902553957,8.7632822515\Cl,11.
 1205631981,28.8783652097,10.0823467333\\Version=ES64L-G16RevA.03\State
 =1-A\HF=-8723.4341065\RMSD=7.654e-09\RMSF=7.220e-05\Dipole=-1.6303112,
 -1.1109479,1.6826284\Quadrupole=-12.2792926,-0.5722146,12.8515072,-5.8
 67349,0.201256,4.5011915\PG=C01 [X(C84Cl12)]\\@


 WE SHOULD BE CAREFUL TO GET OUT OF AN EXPERIENCE ONLY THE WISDOM
 THAT IS IN IT -- AND STOP THERE;
 LEST WE BE LIKE THE CAT THAT SITS DOWN ON A HOT STOVE-LID.
 SHE WILL NEVER SIT DOWN ON A HOT STOVE LID AGAIN;
 BUT ALSO SHE WILL NEVER SIT DOWN ON A COLD ONE ANY MORE.

                                                     -- MARK TWAIN
 Job cpu time:       1 days  5 hours 39 minutes 26.4 seconds.
 Elapsed time:       0 days  1 hours 14 minutes 14.8 seconds.
 File lengths (MBytes):  RWF=   1359 Int=      0 D2E=      0 Chk=    170 Scr=      1
 Normal termination of Gaussian 16 at Mon Jun 27 13:15:44 2022.
