 Entering Gaussian System, Link 0=g16
 Input=12_addons_C84_11_Cl22_rank_8.gjf
 Output=12_addons_C84_11_Cl22_rank_8.log
 Initial command:
 /home/mkliu/g16/l1.exe "/data/scratch/Gau-160677.inp" -scrdir="/data/scratch/"
 Entering Link 1 = /home/mkliu/g16/l1.exe PID=    160678.
  
 Copyright (c) 1988,1990,1992,1993,1995,1998,2003,2009,2016,
            Gaussian, Inc.  All Rights Reserved.
  
 This is part of the Gaussian(R) 16 program.  It is based on
 the Gaussian(R) 09 system (copyright 2009, Gaussian, Inc.),
 the Gaussian(R) 03 system (copyright 2003, Gaussian, Inc.),
 the Gaussian(R) 98 system (copyright 1998, Gaussian, Inc.),
 the Gaussian(R) 94 system (copyright 1995, Gaussian, Inc.),
 the Gaussian 92(TM) system (copyright 1992, Gaussian, Inc.),
 the Gaussian 90(TM) system (copyright 1990, Gaussian, Inc.),
 the Gaussian 88(TM) system (copyright 1988, Gaussian, Inc.),
 the Gaussian 86(TM) system (copyright 1986, Carnegie Mellon
 University), and the Gaussian 82(TM) system (copyright 1983,
 Carnegie Mellon University). Gaussian is a federally registered
 trademark of Gaussian, Inc.
  
 This software contains proprietary and confidential information,
 including trade secrets, belonging to Gaussian, Inc.
  
 This software is provided under written license and may be
 used, copied, transmitted, or stored only in accord with that
 written license.
  
 The following legend is applicable only to US Government
 contracts under FAR:
  
                    RESTRICTED RIGHTS LEGEND
  
 Use, reproduction and disclosure by the US Government is
 subject to restrictions as set forth in subparagraphs (a)
 and (c) of the Commercial Computer Software - Restricted
 Rights clause in FAR 52.227-19.
  
 Gaussian, Inc.
 340 Quinnipiac St., Bldg. 40, Wallingford CT 06492
  
  
 ---------------------------------------------------------------
 Warning -- This program may not be used in any manner that
 competes with the business of Gaussian, Inc. or will provide
 assistance to any competitor of Gaussian, Inc.  The licensee
 of this program is prohibited from giving any competitor of
 Gaussian, Inc. access to this program.  By using this program,
 the user acknowledges that Gaussian, Inc. is engaged in the
 business of creating and licensing software in the field of
 computational chemistry and represents and warrants to the
 licensee that it is not a competitor of Gaussian, Inc. and that
 it will not use this program in any manner prohibited above.
 ---------------------------------------------------------------
  

 Cite this work as:
 Gaussian 16, Revision A.03,
 M. J. Frisch, G. W. Trucks, H. B. Schlegel, G. E. Scuseria, 
 M. A. Robb, J. R. Cheeseman, G. Scalmani, V. Barone, 
 G. A. Petersson, H. Nakatsuji, X. Li, M. Caricato, A. V. Marenich, 
 J. Bloino, B. G. Janesko, R. Gomperts, B. Mennucci, H. P. Hratchian, 
 J. V. Ortiz, A. F. Izmaylov, J. L. Sonnenberg, D. Williams-Young, 
 F. Ding, F. Lipparini, F. Egidi, J. Goings, B. Peng, A. Petrone, 
 T. Henderson, D. Ranasinghe, V. G. Zakrzewski, J. Gao, N. Rega, 
 G. Zheng, W. Liang, M. Hada, M. Ehara, K. Toyota, R. Fukuda, 
 J. Hasegawa, M. Ishida, T. Nakajima, Y. Honda, O. Kitao, H. Nakai, 
 T. Vreven, K. Throssell, J. A. Montgomery, Jr., J. E. Peralta, 
 F. Ogliaro, M. J. Bearpark, J. J. Heyd, E. N. Brothers, K. N. Kudin, 
 V. N. Staroverov, T. A. Keith, R. Kobayashi, J. Normand, 
 K. Raghavachari, A. P. Rendell, J. C. Burant, S. S. Iyengar, 
 J. Tomasi, M. Cossi, J. M. Millam, M. Klene, C. Adamo, R. Cammi, 
 J. W. Ochterski, R. L. Martin, K. Morokuma, O. Farkas, 
 J. B. Foresman, and D. J. Fox, Gaussian, Inc., Wallingford CT, 2016.
 
 ******************************************
 Gaussian 16:  ES64L-G16RevA.03 25-Dec-2016
                29-Jun-2022 
 ******************************************
 %mem=10GB
 %chk=12_addons_C84_11_Cl22_rank_8.chk
 %nprocshared=24
 Will use up to   24 processors via shared memory.
 ------------------------------------------------
 #P opt b3lyp/6-31G(d, p) empiricaldispersion=GD3
 ------------------------------------------------
 1/18=20,19=15,26=3,38=1/1,3;
 2/9=110,12=2,17=6,18=5,40=1/2;
 3/5=1,6=6,7=101,11=2,25=1,30=1,71=1,74=-5,124=31/1,2,3;
 4//1;
 5/5=2,38=5/2;
 6/7=2,8=2,9=2,10=2,28=1/1;
 7//1,2,3,16;
 1/18=20,19=15,26=3/3(2);
 2/9=110/2;
 99//99;
 2/9=110/2;
 3/5=1,6=6,7=101,11=2,25=1,30=1,71=1,74=-5,124=31/1,2,3;
 4/5=5,16=3,69=1/1;
 5/5=2,38=5/2;
 7//1,2,3,16;
 1/18=20,19=15,26=3/3(-5);
 2/9=110/2;
 6/7=2,8=2,9=2,10=2,19=2,28=1/1;
 99/9=1/99;
 Leave Link    1 at Wed Jun 29 15:44:57 2022, MaxMem=  1342177280 cpu:               0.7 elap:               0.1
 (Enter /home/mkliu/g16/l101.exe)
 -----
 force
 -----
 Symbolic Z-matrix:
 Charge =  0 Multiplicity = 1
 C                     8.49911   18.92701   10.74063 
 C                     12.59768   19.99903   8.87411 
 C                     8.26855   26.83822   10.51509 
 C                     12.47173   25.74561   8.92631 
 C                     8.03884   19.1753   9.43785 
 C                     12.07812   19.50299   10.19016 
 C                     7.96446   26.80618   9.10908 
 C                     11.8719   26.19044   10.22752 
 C                     9.00219   19.27713   8.36847 
 C                     12.32967   20.13505   11.3687 
 C                     12.13027   25.52661   11.3999 
 C                     8.96213   26.62738   8.13208 
 C                     10.36493   19.11588   8.68006 
 C                     10.30147   26.66313   8.60407 
 C                     10.81526   18.87845   10.00004 
 C                     10.61532   26.77943   10.0072 
 C                     9.87793   18.81421   11.03284 
 C                     9.5987    26.75903   10.98578 
 C                     10.16597   19.42148   12.27856 
 C                     9.85254   26.04464   12.19789 
 C                     8.89572   19.85041   12.95327 
 C                     8.75643   25.42434   12.83735 
 C                     7.871     19.5507   11.88537 
 C                     7.44147   25.55411   12.36642 
 C                     6.71954   20.2157   11.77669 
 C                     7.19279   26.26383   11.2167 
 C                     5.94412   20.20547   10.49397 
 C                     6.06214   25.92113   10.28282 
 C                     6.76137   19.80597   9.29483 
 C                     6.67066   26.26745   8.9552 
 C                     6.43296   20.37733   8.10083 
 C                     6.36308   25.59393   7.81255 
 C                     7.35813   20.4231   7.02167 
 C                     7.32959   25.45044   6.79086 
 C                     8.68982   19.98441   7.16822 
 C                     8.66836   25.89285   6.94136 
 C                     9.72827   20.64503   6.41097 
 C                     9.72286   25.16069   6.28044 
 C                     11.07871   20.6034   6.90296 
 C                     12.74076   22.18289   7.79128 
 C                     12.6757   23.57886   7.808 
 C                     11.0507   25.17547   6.8393 
 C                     11.3807   19.81966   7.97617 
 C                     12.92622   21.46986   8.95659 
 C                     12.84026   24.28712   8.98908 
 C                     11.32297   25.97862   7.962 
 C                     13.11399   22.16932   10.16538 
 C                     13.07316   23.57742   10.17528 
 C                     13.16296   21.3852   11.46866 
 C                     13.06396   24.34369   11.48616 
 C                     12.41958   22.14326   12.53574 
 C                     12.38369   23.51457   12.53545 
 C                     11.33683   20.12251   12.39968 
 C                     11.11371   25.43144   12.36982 
 C                     11.34711   21.40319   13.05367 
 C                     11.25229   24.16742   13.04113 
 C                     8.88882   21.3232   13.29731 
 C                     8.89155   24.11648   13.42628 
 C                     7.68831   22.03116   13.18542 
 C                     7.69142   23.42024   13.29477 
 C                     6.4318    21.43098   12.60228 
 C                     6.62579   24.35098   12.74779 
 C                     5.89812   22.35295   11.53196 
 C                     6.01022   23.7323   11.52264 
 C                     5.60164   21.66421   10.36552 
 C                     5.77855   24.42868   10.32707 
 C                     5.39672   22.32828   9.16865 
 C                     5.46315   23.72853   9.14903 
 C                     5.38845   21.46739   7.92958 
 C                     5.37875   24.45453   7.81428 
 C                     5.92922   22.23123   6.75776 
 C                     5.92388   23.59101   6.70735 
 C                     7.01142   21.50493   6.17413 
 C                     7.00571   24.26783   6.05955 
 C                     8.01745   22.14745   5.46255 
 C                     8.01334   23.57649   5.41925 
 C                     9.36121   21.69644   5.54895 
 C                     9.36858   24.03485   5.50437 
 C                     12.09558   21.65113   6.53183 
 C                     11.87103   24.03444   6.68949 
 C                     10.19684   22.87489   5.43773 
 C                     11.45361   22.89728   5.99698 
 C                     10.12655   22.0168   13.45102 
 C                     10.12456   23.44414   13.4909 
 Cl                    14.02526   19.07494   8.28333 
 Cl                    14.8864   21.05591   11.88186 
 Cl                    14.74847   24.81217   11.91055 
 Cl                    13.31065   20.96648   5.38425 
 Cl                    4.54716   26.8193   10.64803 
 Cl                    3.67489   24.97121   7.54538 
 Cl                    13.92811   26.71241   8.46875 
 Cl                    3.73564   20.8137   7.64415 
 Cl                    4.45957   19.17239   10.62099 
 Cl                    5.35026   24.72011   13.96245 
 Cl                    5.21247   21.14802   13.90353 
 Cl                    8.57158   18.90208   14.46613 
 
 ITRead=  0  0  0  0  0  0  0  0  0  0  0  0  0  0  0  0  0  0  0  0
 ITRead=  0  0  0  0  0  0  0  0  0  0  0  0  0  0  0  0  0  0  0  0
 ITRead=  0  0  0  0  0  0  0  0  0  0  0  0  0  0  0  0  0  0  0  0
 ITRead=  0  0  0  0  0  0  0  0  0  0  0  0  0  0  0  0  0  0  0  0
 ITRead=  0  0  0  0  0  0  0  0  0  0  0  0  0  0  0  0
 MicOpt= -1 -1 -1 -1 -1 -1 -1 -1 -1 -1 -1 -1 -1 -1 -1 -1 -1 -1 -1 -1
 MicOpt= -1 -1 -1 -1 -1 -1 -1 -1 -1 -1 -1 -1 -1 -1 -1 -1 -1 -1 -1 -1
 MicOpt= -1 -1 -1 -1 -1 -1 -1 -1 -1 -1 -1 -1 -1 -1 -1 -1 -1 -1 -1 -1
 MicOpt= -1 -1 -1 -1 -1 -1 -1 -1 -1 -1 -1 -1 -1 -1 -1 -1 -1 -1 -1 -1
 MicOpt= -1 -1 -1 -1 -1 -1 -1 -1 -1 -1 -1 -1 -1 -1 -1 -1
 NAtoms=     96 NQM=       96 NQMF=       0 NMMI=      0 NMMIF=      0
                NMic=       0 NMicF=      0.
                    Isotopes and Nuclear Properties:
 (Nuclear quadrupole moments (NQMom) in fm**2, nuclear magnetic moments (NMagM)
  in nuclear magnetons)

  Atom         1           2           3           4           5           6           7           8           9          10
 IAtWgt=          12          12          12          12          12          12          12          12          12          12
 AtmWgt=  12.0000000  12.0000000  12.0000000  12.0000000  12.0000000  12.0000000  12.0000000  12.0000000  12.0000000  12.0000000
 NucSpn=           0           0           0           0           0           0           0           0           0           0
 AtZEff=  -0.0000000  -0.0000000  -0.0000000  -0.0000000  -0.0000000  -0.0000000  -0.0000000  -0.0000000  -0.0000000  -0.0000000
 NQMom=    0.0000000   0.0000000   0.0000000   0.0000000   0.0000000   0.0000000   0.0000000   0.0000000   0.0000000   0.0000000
 NMagM=    0.0000000   0.0000000   0.0000000   0.0000000   0.0000000   0.0000000   0.0000000   0.0000000   0.0000000   0.0000000
 AtZNuc=   6.0000000   6.0000000   6.0000000   6.0000000   6.0000000   6.0000000   6.0000000   6.0000000   6.0000000   6.0000000

  Atom        11          12          13          14          15          16          17          18          19          20
 IAtWgt=          12          12          12          12          12          12          12          12          12          12
 AtmWgt=  12.0000000  12.0000000  12.0000000  12.0000000  12.0000000  12.0000000  12.0000000  12.0000000  12.0000000  12.0000000
 NucSpn=           0           0           0           0           0           0           0           0           0           0
 AtZEff=  -0.0000000  -0.0000000  -0.0000000  -0.0000000  -0.0000000  -0.0000000  -0.0000000  -0.0000000  -0.0000000  -0.0000000
 NQMom=    0.0000000   0.0000000   0.0000000   0.0000000   0.0000000   0.0000000   0.0000000   0.0000000   0.0000000   0.0000000
 NMagM=    0.0000000   0.0000000   0.0000000   0.0000000   0.0000000   0.0000000   0.0000000   0.0000000   0.0000000   0.0000000
 AtZNuc=   6.0000000   6.0000000   6.0000000   6.0000000   6.0000000   6.0000000   6.0000000   6.0000000   6.0000000   6.0000000

  Atom        21          22          23          24          25          26          27          28          29          30
 IAtWgt=          12          12          12          12          12          12          12          12          12          12
 AtmWgt=  12.0000000  12.0000000  12.0000000  12.0000000  12.0000000  12.0000000  12.0000000  12.0000000  12.0000000  12.0000000
 NucSpn=           0           0           0           0           0           0           0           0           0           0
 AtZEff=  -0.0000000  -0.0000000  -0.0000000  -0.0000000  -0.0000000  -0.0000000  -0.0000000  -0.0000000  -0.0000000  -0.0000000
 NQMom=    0.0000000   0.0000000   0.0000000   0.0000000   0.0000000   0.0000000   0.0000000   0.0000000   0.0000000   0.0000000
 NMagM=    0.0000000   0.0000000   0.0000000   0.0000000   0.0000000   0.0000000   0.0000000   0.0000000   0.0000000   0.0000000
 AtZNuc=   6.0000000   6.0000000   6.0000000   6.0000000   6.0000000   6.0000000   6.0000000   6.0000000   6.0000000   6.0000000

  Atom        31          32          33          34          35          36          37          38          39          40
 IAtWgt=          12          12          12          12          12          12          12          12          12          12
 AtmWgt=  12.0000000  12.0000000  12.0000000  12.0000000  12.0000000  12.0000000  12.0000000  12.0000000  12.0000000  12.0000000
 NucSpn=           0           0           0           0           0           0           0           0           0           0
 AtZEff=  -0.0000000  -0.0000000  -0.0000000  -0.0000000  -0.0000000  -0.0000000  -0.0000000  -0.0000000  -0.0000000  -0.0000000
 NQMom=    0.0000000   0.0000000   0.0000000   0.0000000   0.0000000   0.0000000   0.0000000   0.0000000   0.0000000   0.0000000
 NMagM=    0.0000000   0.0000000   0.0000000   0.0000000   0.0000000   0.0000000   0.0000000   0.0000000   0.0000000   0.0000000
 AtZNuc=   6.0000000   6.0000000   6.0000000   6.0000000   6.0000000   6.0000000   6.0000000   6.0000000   6.0000000   6.0000000

  Atom        41          42          43          44          45          46          47          48          49          50
 IAtWgt=          12          12          12          12          12          12          12          12          12          12
 AtmWgt=  12.0000000  12.0000000  12.0000000  12.0000000  12.0000000  12.0000000  12.0000000  12.0000000  12.0000000  12.0000000
 NucSpn=           0           0           0           0           0           0           0           0           0           0
 AtZEff=  -0.0000000  -0.0000000  -0.0000000  -0.0000000  -0.0000000  -0.0000000  -0.0000000  -0.0000000  -0.0000000  -0.0000000
 NQMom=    0.0000000   0.0000000   0.0000000   0.0000000   0.0000000   0.0000000   0.0000000   0.0000000   0.0000000   0.0000000
 NMagM=    0.0000000   0.0000000   0.0000000   0.0000000   0.0000000   0.0000000   0.0000000   0.0000000   0.0000000   0.0000000
 AtZNuc=   6.0000000   6.0000000   6.0000000   6.0000000   6.0000000   6.0000000   6.0000000   6.0000000   6.0000000   6.0000000

  Atom        51          52          53          54          55          56          57          58          59          60
 IAtWgt=          12          12          12          12          12          12          12          12          12          12
 AtmWgt=  12.0000000  12.0000000  12.0000000  12.0000000  12.0000000  12.0000000  12.0000000  12.0000000  12.0000000  12.0000000
 NucSpn=           0           0           0           0           0           0           0           0           0           0
 AtZEff=  -0.0000000  -0.0000000  -0.0000000  -0.0000000  -0.0000000  -0.0000000  -0.0000000  -0.0000000  -0.0000000  -0.0000000
 NQMom=    0.0000000   0.0000000   0.0000000   0.0000000   0.0000000   0.0000000   0.0000000   0.0000000   0.0000000   0.0000000
 NMagM=    0.0000000   0.0000000   0.0000000   0.0000000   0.0000000   0.0000000   0.0000000   0.0000000   0.0000000   0.0000000
 AtZNuc=   6.0000000   6.0000000   6.0000000   6.0000000   6.0000000   6.0000000   6.0000000   6.0000000   6.0000000   6.0000000

  Atom        61          62          63          64          65          66          67          68          69          70
 IAtWgt=          12          12          12          12          12          12          12          12          12          12
 AtmWgt=  12.0000000  12.0000000  12.0000000  12.0000000  12.0000000  12.0000000  12.0000000  12.0000000  12.0000000  12.0000000
 NucSpn=           0           0           0           0           0           0           0           0           0           0
 AtZEff=  -0.0000000  -0.0000000  -0.0000000  -0.0000000  -0.0000000  -0.0000000  -0.0000000  -0.0000000  -0.0000000  -0.0000000
 NQMom=    0.0000000   0.0000000   0.0000000   0.0000000   0.0000000   0.0000000   0.0000000   0.0000000   0.0000000   0.0000000
 NMagM=    0.0000000   0.0000000   0.0000000   0.0000000   0.0000000   0.0000000   0.0000000   0.0000000   0.0000000   0.0000000
 AtZNuc=   6.0000000   6.0000000   6.0000000   6.0000000   6.0000000   6.0000000   6.0000000   6.0000000   6.0000000   6.0000000

  Atom        71          72          73          74          75          76          77          78          79          80
 IAtWgt=          12          12          12          12          12          12          12          12          12          12
 AtmWgt=  12.0000000  12.0000000  12.0000000  12.0000000  12.0000000  12.0000000  12.0000000  12.0000000  12.0000000  12.0000000
 NucSpn=           0           0           0           0           0           0           0           0           0           0
 AtZEff=  -0.0000000  -0.0000000  -0.0000000  -0.0000000  -0.0000000  -0.0000000  -0.0000000  -0.0000000  -0.0000000  -0.0000000
 NQMom=    0.0000000   0.0000000   0.0000000   0.0000000   0.0000000   0.0000000   0.0000000   0.0000000   0.0000000   0.0000000
 NMagM=    0.0000000   0.0000000   0.0000000   0.0000000   0.0000000   0.0000000   0.0000000   0.0000000   0.0000000   0.0000000
 AtZNuc=   6.0000000   6.0000000   6.0000000   6.0000000   6.0000000   6.0000000   6.0000000   6.0000000   6.0000000   6.0000000

  Atom        81          82          83          84          85          86          87          88          89          90
 IAtWgt=          12          12          12          12          35          35          35          35          35          35
 AtmWgt=  12.0000000  12.0000000  12.0000000  12.0000000  34.9688527  34.9688527  34.9688527  34.9688527  34.9688527  34.9688527
 NucSpn=           0           0           0           0           3           3           3           3           3           3
 AtZEff=  -0.0000000  -0.0000000  -0.0000000  -0.0000000  -0.0000000  -0.0000000  -0.0000000  -0.0000000  -0.0000000  -0.0000000
 NQMom=    0.0000000   0.0000000   0.0000000   0.0000000  -8.1650000  -8.1650000  -8.1650000  -8.1650000  -8.1650000  -8.1650000
 NMagM=    0.0000000   0.0000000   0.0000000   0.0000000   0.8218740   0.8218740   0.8218740   0.8218740   0.8218740   0.8218740
 AtZNuc=   6.0000000   6.0000000   6.0000000   6.0000000  17.0000000  17.0000000  17.0000000  17.0000000  17.0000000  17.0000000

  Atom        91          92          93          94          95          96
 IAtWgt=          35          35          35          35          35          35
 AtmWgt=  34.9688527  34.9688527  34.9688527  34.9688527  34.9688527  34.9688527
 NucSpn=           3           3           3           3           3           3
 AtZEff=  -0.0000000  -0.0000000  -0.0000000  -0.0000000  -0.0000000  -0.0000000
 NQMom=   -8.1650000  -8.1650000  -8.1650000  -8.1650000  -8.1650000  -8.1650000
 NMagM=    0.8218740   0.8218740   0.8218740   0.8218740   0.8218740   0.8218740
 AtZNuc=  17.0000000  17.0000000  17.0000000  17.0000000  17.0000000  17.0000000
 Leave Link  101 at Wed Jun 29 15:44:58 2022, MaxMem=  1342177280 cpu:               6.8 elap:               0.3
 (Enter /home/mkliu/g16/l103.exe)

 GradGradGradGradGradGradGradGradGradGradGradGradGradGradGradGradGradGrad
 Berny optimization.
 Initialization pass.
                           ----------------------------
                           !    Initial Parameters    !
                           ! (Angstroms and Degrees)  !
 --------------------------                            --------------------------
 ! Name  Definition              Value          Derivative Info.                !
 --------------------------------------------------------------------------------
 ! R1    R(1,5)                  1.4038         estimate D2E/DX2                !
 ! R2    R(1,17)                 1.4139         estimate D2E/DX2                !
 ! R3    R(1,23)                 1.447          estimate D2E/DX2                !
 ! R4    R(2,6)                  1.4993         estimate D2E/DX2                !
 ! R5    R(2,43)                 1.523          estimate D2E/DX2                !
 ! R6    R(2,44)                 1.5093         estimate D2E/DX2                !
 ! R7    R(2,85)                 1.8003         estimate D2E/DX2                !
 ! R8    R(3,7)                  1.4389         estimate D2E/DX2                !
 ! R9    R(3,18)                 1.4132         estimate D2E/DX2                !
 ! R10   R(3,26)                 1.4069         estimate D2E/DX2                !
 ! R11   R(4,8)                  1.5003         estimate D2E/DX2                !
 ! R12   R(4,45)                 1.5056         estimate D2E/DX2                !
 ! R13   R(4,46)                 1.5178         estimate D2E/DX2                !
 ! R14   R(4,91)                 1.807          estimate D2E/DX2                !
 ! R15   R(5,9)                  1.4429         estimate D2E/DX2                !
 ! R16   R(5,29)                 1.4318         estimate D2E/DX2                !
 ! R17   R(6,10)                 1.3608         estimate D2E/DX2                !
 ! R18   R(6,15)                 1.4216         estimate D2E/DX2                !
 ! R19   R(7,12)                 1.4078         estimate D2E/DX2                !
 ! R20   R(7,30)                 1.4099         estimate D2E/DX2                !
 ! R21   R(8,11)                 1.3718         estimate D2E/DX2                !
 ! R22   R(8,16)                 1.4052         estimate D2E/DX2                !
 ! R23   R(9,13)                 1.4072         estimate D2E/DX2                !
 ! R24   R(9,35)                 1.4277         estimate D2E/DX2                !
 ! R25   R(10,49)                1.5057         estimate D2E/DX2                !
 ! R26   R(10,53)                1.4314         estimate D2E/DX2                !
 ! R27   R(11,50)                1.5095         estimate D2E/DX2                !
 ! R28   R(11,54)                1.4083         estimate D2E/DX2                !
 ! R29   R(12,14)                1.4205         estimate D2E/DX2                !
 ! R30   R(12,36)                1.4296         estimate D2E/DX2                !
 ! R31   R(13,15)                1.4147         estimate D2E/DX2                !
 ! R32   R(13,43)                1.4222         estimate D2E/DX2                !
 ! R33   R(14,16)                1.4425         estimate D2E/DX2                !
 ! R34   R(14,46)                1.3872         estimate D2E/DX2                !
 ! R35   R(15,17)                1.3962         estimate D2E/DX2                !
 ! R36   R(16,18)                1.4112         estimate D2E/DX2                !
 ! R37   R(17,19)                1.4155         estimate D2E/DX2                !
 ! R38   R(18,20)                1.4297         estimate D2E/DX2                !
 ! R39   R(19,21)                1.5009         estimate D2E/DX2                !
 ! R40   R(19,53)                1.37           estimate D2E/DX2                !
 ! R41   R(20,22)                1.4125         estimate D2E/DX2                !
 ! R42   R(20,54)                1.4128         estimate D2E/DX2                !
 ! R43   R(21,23)                1.5101         estimate D2E/DX2                !
 ! R44   R(21,57)                1.5125         estimate D2E/DX2                !
 ! R45   R(21,96)                1.8147         estimate D2E/DX2                !
 ! R46   R(22,24)                1.4028         estimate D2E/DX2                !
 ! R47   R(22,58)                1.4407         estimate D2E/DX2                !
 ! R48   R(23,25)                1.3341         estimate D2E/DX2                !
 ! R49   R(24,26)                1.3738         estimate D2E/DX2                !
 ! R50   R(24,62)                1.5028         estimate D2E/DX2                !
 ! R51   R(25,27)                1.4989         estimate D2E/DX2                !
 ! R52   R(25,61)                1.4971         estimate D2E/DX2                !
 ! R53   R(26,28)                1.506          estimate D2E/DX2                !
 ! R54   R(27,29)                1.5051         estimate D2E/DX2                !
 ! R55   R(27,65)                1.5039         estimate D2E/DX2                !
 ! R56   R(27,93)                1.8131         estimate D2E/DX2                !
 ! R57   R(28,30)                1.5009         estimate D2E/DX2                !
 ! R58   R(28,66)                1.5198         estimate D2E/DX2                !
 ! R59   R(28,89)                1.7987         estimate D2E/DX2                !
 ! R60   R(29,31)                1.3638         estimate D2E/DX2                !
 ! R61   R(30,32)                1.3616         estimate D2E/DX2                !
 ! R62   R(31,33)                1.4222         estimate D2E/DX2                !
 ! R63   R(31,69)                1.5194         estimate D2E/DX2                !
 ! R64   R(32,34)                1.4137         estimate D2E/DX2                !
 ! R65   R(32,70)                1.5057         estimate D2E/DX2                !
 ! R66   R(33,35)                1.4097         estimate D2E/DX2                !
 ! R67   R(33,73)                1.4174         estimate D2E/DX2                !
 ! R68   R(34,36)                1.418          estimate D2E/DX2                !
 ! R69   R(34,74)                1.4277         estimate D2E/DX2                !
 ! R70   R(35,37)                1.4451         estimate D2E/DX2                !
 ! R71   R(36,38)                1.4439         estimate D2E/DX2                !
 ! R72   R(37,39)                1.4379         estimate D2E/DX2                !
 ! R73   R(37,77)                1.4083         estimate D2E/DX2                !
 ! R74   R(38,42)                1.4407         estimate D2E/DX2                !
 ! R75   R(38,78)                1.4126         estimate D2E/DX2                !
 ! R76   R(39,43)                1.3628         estimate D2E/DX2                !
 ! R77   R(39,79)                1.5065         estimate D2E/DX2                !
 ! R78   R(40,41)                1.3976         estimate D2E/DX2                !
 ! R79   R(40,44)                1.3787         estimate D2E/DX2                !
 ! R80   R(40,79)                1.5117         estimate D2E/DX2                !
 ! R81   R(41,45)                1.387          estimate D2E/DX2                !
 ! R82   R(41,80)                1.4512         estimate D2E/DX2                !
 ! R83   R(42,46)                1.407          estimate D2E/DX2                !
 ! R84   R(42,80)                1.4133         estimate D2E/DX2                !
 ! R85   R(44,47)                1.4091         estimate D2E/DX2                !
 ! R86   R(45,48)                1.4018         estimate D2E/DX2                !
 ! R87   R(47,48)                1.4087         estimate D2E/DX2                !
 ! R88   R(47,49)                1.5218         estimate D2E/DX2                !
 ! R89   R(48,50)                1.5184         estimate D2E/DX2                !
 ! R90   R(49,51)                1.5053         estimate D2E/DX2                !
 ! R91   R(49,86)                1.8026         estimate D2E/DX2                !
 ! R92   R(50,52)                1.5004         estimate D2E/DX2                !
 ! R93   R(50,87)                1.7992         estimate D2E/DX2                !
 ! R94   R(51,52)                1.3718         estimate D2E/DX2                !
 ! R95   R(51,55)                1.4022         estimate D2E/DX2                !
 ! R96   R(52,56)                1.4007         estimate D2E/DX2                !
 ! R97   R(53,55)                1.438          estimate D2E/DX2                !
 ! R98   R(54,56)                1.4379         estimate D2E/DX2                !
 ! R99   R(55,83)                1.4227         estimate D2E/DX2                !
 ! R100  R(56,84)                1.4132         estimate D2E/DX2                !
 ! R101  R(57,59)                1.3982         estimate D2E/DX2                !
 ! R102  R(57,83)                1.4271         estimate D2E/DX2                !
 ! R103  R(58,60)                1.3937         estimate D2E/DX2                !
 ! R104  R(58,84)                1.4059         estimate D2E/DX2                !
 ! R105  R(59,60)                1.3934         estimate D2E/DX2                !
 ! R106  R(59,61)                1.5097         estimate D2E/DX2                !
 ! R107  R(60,62)                1.5169         estimate D2E/DX2                !
 ! R108  R(61,63)                1.5101         estimate D2E/DX2                !
 ! R109  R(61,95)                1.8056         estimate D2E/DX2                !
 ! R110  R(62,64)                1.5042         estimate D2E/DX2                !
 ! R111  R(62,94)                1.7996         estimate D2E/DX2                !
 ! R112  R(63,64)                1.3839         estimate D2E/DX2                !
 ! R113  R(63,65)                1.3867         estimate D2E/DX2                !
 ! R114  R(64,66)                1.4029         estimate D2E/DX2                !
 ! R115  R(65,67)                1.384          estimate D2E/DX2                !
 ! R116  R(66,68)                1.4062         estimate D2E/DX2                !
 ! R117  R(67,68)                1.402          estimate D2E/DX2                !
 ! R118  R(67,69)                1.5088         estimate D2E/DX2                !
 ! R119  R(68,70)                1.5218         estimate D2E/DX2                !
 ! R120  R(69,71)                1.4997         estimate D2E/DX2                !
 ! R121  R(69,92)                1.8002         estimate D2E/DX2                !
 ! R122  R(70,72)                1.506          estimate D2E/DX2                !
 ! R123  R(70,90)                1.8007         estimate D2E/DX2                !
 ! R124  R(71,72)                1.3607         estimate D2E/DX2                !
 ! R125  R(71,73)                1.428          estimate D2E/DX2                !
 ! R126  R(72,74)                1.4311         estimate D2E/DX2                !
 ! R127  R(73,75)                1.3897         estimate D2E/DX2                !
 ! R128  R(74,76)                1.3796         estimate D2E/DX2                !
 ! R129  R(75,76)                1.4297         estimate D2E/DX2                !
 ! R130  R(75,77)                1.4201         estimate D2E/DX2                !
 ! R131  R(76,78)                1.4332         estimate D2E/DX2                !
 ! R132  R(77,81)                1.4489         estimate D2E/DX2                !
 ! R133  R(78,81)                1.4269         estimate D2E/DX2                !
 ! R134  R(79,82)                1.5004         estimate D2E/DX2                !
 ! R135  R(79,88)                1.8061         estimate D2E/DX2                !
 ! R136  R(80,82)                1.3953         estimate D2E/DX2                !
 ! R137  R(81,82)                1.3758         estimate D2E/DX2                !
 ! R138  R(83,84)                1.4279         estimate D2E/DX2                !
 ! A1    A(5,1,17)             121.71           estimate D2E/DX2                !
 ! A2    A(5,1,23)             121.0374         estimate D2E/DX2                !
 ! A3    A(17,1,23)            107.1081         estimate D2E/DX2                !
 ! A4    A(6,2,43)             101.6334         estimate D2E/DX2                !
 ! A5    A(6,2,44)             110.4789         estimate D2E/DX2                !
 ! A6    A(6,2,85)             113.142          estimate D2E/DX2                !
 ! A7    A(43,2,44)            108.7189         estimate D2E/DX2                !
 ! A8    A(43,2,85)            112.3158         estimate D2E/DX2                !
 ! A9    A(44,2,85)            110.2152         estimate D2E/DX2                !
 ! A10   A(7,3,18)             121.5423         estimate D2E/DX2                !
 ! A11   A(7,3,26)             108.458          estimate D2E/DX2                !
 ! A12   A(18,3,26)            122.0541         estimate D2E/DX2                !
 ! A13   A(8,4,45)             110.4207         estimate D2E/DX2                !
 ! A14   A(8,4,46)             101.7072         estimate D2E/DX2                !
 ! A15   A(8,4,91)             112.5338         estimate D2E/DX2                !
 ! A16   A(45,4,46)            111.127          estimate D2E/DX2                !
 ! A17   A(45,4,91)            109.364          estimate D2E/DX2                !
 ! A18   A(46,4,91)            111.5303         estimate D2E/DX2                !
 ! A19   A(1,5,9)              118.7744         estimate D2E/DX2                !
 ! A20   A(1,5,29)             117.5889         estimate D2E/DX2                !
 ! A21   A(9,5,29)             119.3771         estimate D2E/DX2                !
 ! A22   A(2,6,10)             122.8525         estimate D2E/DX2                !
 ! A23   A(2,6,15)             109.6202         estimate D2E/DX2                !
 ! A24   A(10,6,15)            118.9528         estimate D2E/DX2                !
 ! A25   A(3,7,12)             122.087          estimate D2E/DX2                !
 ! A26   A(3,7,30)             108.0045         estimate D2E/DX2                !
 ! A27   A(12,7,30)            121.739          estimate D2E/DX2                !
 ! A28   A(4,8,11)             121.4969         estimate D2E/DX2                !
 ! A29   A(4,8,16)             110.2324         estimate D2E/DX2                !
 ! A30   A(11,8,16)            120.3483         estimate D2E/DX2                !
 ! A31   A(5,9,13)             118.3182         estimate D2E/DX2                !
 ! A32   A(5,9,35)             120.7926         estimate D2E/DX2                !
 ! A33   A(13,9,35)            117.0516         estimate D2E/DX2                !
 ! A34   A(6,10,49)            123.0545         estimate D2E/DX2                !
 ! A35   A(6,10,53)            119.4408         estimate D2E/DX2                !
 ! A36   A(49,10,53)           110.0795         estimate D2E/DX2                !
 ! A37   A(8,11,50)            122.9935         estimate D2E/DX2                !
 ! A38   A(8,11,54)            119.036          estimate D2E/DX2                !
 ! A39   A(50,11,54)           110.7438         estimate D2E/DX2                !
 ! A40   A(7,12,14)            115.7469         estimate D2E/DX2                !
 ! A41   A(7,12,36)            119.8468         estimate D2E/DX2                !
 ! A42   A(14,12,36)           118.9094         estimate D2E/DX2                !
 ! A43   A(9,13,15)            122.2819         estimate D2E/DX2                !
 ! A44   A(9,13,43)            121.694          estimate D2E/DX2                !
 ! A45   A(15,13,43)           108.5114         estimate D2E/DX2                !
 ! A46   A(12,14,16)           122.0299         estimate D2E/DX2                !
 ! A47   A(12,14,46)           121.8769         estimate D2E/DX2                !
 ! A48   A(16,14,46)           109.2561         estimate D2E/DX2                !
 ! A49   A(6,15,13)            109.5002         estimate D2E/DX2                !
 ! A50   A(6,15,17)            121.1749         estimate D2E/DX2                !
 ! A51   A(13,15,17)           118.9599         estimate D2E/DX2                !
 ! A52   A(8,16,14)            108.2577         estimate D2E/DX2                !
 ! A53   A(8,16,18)            121.9671         estimate D2E/DX2                !
 ! A54   A(14,16,18)           121.1045         estimate D2E/DX2                !
 ! A55   A(1,17,15)            119.8754         estimate D2E/DX2                !
 ! A56   A(1,17,19)            110.2485         estimate D2E/DX2                !
 ! A57   A(15,17,19)           119.6469         estimate D2E/DX2                !
 ! A58   A(3,18,16)            116.5057         estimate D2E/DX2                !
 ! A59   A(3,18,20)            118.5215         estimate D2E/DX2                !
 ! A60   A(16,18,20)           117.8538         estimate D2E/DX2                !
 ! A61   A(17,19,21)           110.2431         estimate D2E/DX2                !
 ! A62   A(17,19,53)           118.1148         estimate D2E/DX2                !
 ! A63   A(21,19,53)           122.5001         estimate D2E/DX2                !
 ! A64   A(18,20,22)           117.7413         estimate D2E/DX2                !
 ! A65   A(18,20,54)           118.5895         estimate D2E/DX2                !
 ! A66   A(22,20,54)           116.5521         estimate D2E/DX2                !
 ! A67   A(19,21,23)           101.5181         estimate D2E/DX2                !
 ! A68   A(19,21,57)           112.6067         estimate D2E/DX2                !
 ! A69   A(19,21,96)           112.122          estimate D2E/DX2                !
 ! A70   A(23,21,57)           110.5511         estimate D2E/DX2                !
 ! A71   A(23,21,96)           111.3853         estimate D2E/DX2                !
 ! A72   A(57,21,96)           108.5677         estimate D2E/DX2                !
 ! A73   A(20,22,24)           122.3322         estimate D2E/DX2                !
 ! A74   A(20,22,58)           120.7268         estimate D2E/DX2                !
 ! A75   A(24,22,58)           108.0073         estimate D2E/DX2                !
 ! A76   A(1,23,21)            110.5144         estimate D2E/DX2                !
 ! A77   A(1,23,25)            121.6702         estimate D2E/DX2                !
 ! A78   A(21,23,25)           122.9808         estimate D2E/DX2                !
 ! A79   A(22,24,26)           119.8958         estimate D2E/DX2                !
 ! A80   A(22,24,62)           110.4592         estimate D2E/DX2                !
 ! A81   A(26,24,62)           121.8526         estimate D2E/DX2                !
 ! A82   A(23,25,27)           120.8501         estimate D2E/DX2                !
 ! A83   A(23,25,61)           121.7075         estimate D2E/DX2                !
 ! A84   A(27,25,61)           112.2122         estimate D2E/DX2                !
 ! A85   A(3,26,24)            119.33           estimate D2E/DX2                !
 ! A86   A(3,26,28)            110.9604         estimate D2E/DX2                !
 ! A87   A(24,26,28)           122.4997         estimate D2E/DX2                !
 ! A88   A(25,27,29)           113.7478         estimate D2E/DX2                !
 ! A89   A(25,27,65)           100.619          estimate D2E/DX2                !
 ! A90   A(25,27,93)           111.5625         estimate D2E/DX2                !
 ! A91   A(29,27,65)           108.2434         estimate D2E/DX2                !
 ! A92   A(29,27,93)           110.4363         estimate D2E/DX2                !
 ! A93   A(65,27,93)           111.8513         estimate D2E/DX2                !
 ! A94   A(26,28,30)           101.0473         estimate D2E/DX2                !
 ! A95   A(26,28,66)           110.2131         estimate D2E/DX2                !
 ! A96   A(26,28,89)           113.13           estimate D2E/DX2                !
 ! A97   A(30,28,66)           109.1466         estimate D2E/DX2                !
 ! A98   A(30,28,89)           113.945          estimate D2E/DX2                !
 ! A99   A(66,28,89)           109.1039         estimate D2E/DX2                !
 ! A100  A(5,29,27)            121.4508         estimate D2E/DX2                !
 ! A101  A(5,29,31)            119.1325         estimate D2E/DX2                !
 ! A102  A(27,29,31)           117.1008         estimate D2E/DX2                !
 ! A103  A(7,30,28)            111.3255         estimate D2E/DX2                !
 ! A104  A(7,30,32)            119.2026         estimate D2E/DX2                !
 ! A105  A(28,30,32)           122.4517         estimate D2E/DX2                !
 ! A106  A(29,31,33)           121.4099         estimate D2E/DX2                !
 ! A107  A(29,31,69)           124.3874         estimate D2E/DX2                !
 ! A108  A(33,31,69)           109.7913         estimate D2E/DX2                !
 ! A109  A(30,32,34)           120.1502         estimate D2E/DX2                !
 ! A110  A(30,32,70)           121.4014         estimate D2E/DX2                !
 ! A111  A(34,32,70)           111.7753         estimate D2E/DX2                !
 ! A112  A(31,33,35)           121.7102         estimate D2E/DX2                !
 ! A113  A(31,33,73)           108.613          estimate D2E/DX2                !
 ! A114  A(35,33,73)           122.0567         estimate D2E/DX2                !
 ! A115  A(32,34,36)           122.4865         estimate D2E/DX2                !
 ! A116  A(32,34,74)           107.4076         estimate D2E/DX2                !
 ! A117  A(36,34,74)           121.8028         estimate D2E/DX2                !
 ! A118  A(9,35,33)            116.6298         estimate D2E/DX2                !
 ! A119  A(9,35,37)            120.649          estimate D2E/DX2                !
 ! A120  A(33,35,37)           118.823          estimate D2E/DX2                !
 ! A121  A(12,36,34)           116.2779         estimate D2E/DX2                !
 ! A122  A(12,36,38)           119.4541         estimate D2E/DX2                !
 ! A123  A(34,36,38)           118.8638         estimate D2E/DX2                !
 ! A124  A(35,37,39)           118.8409         estimate D2E/DX2                !
 ! A125  A(35,37,77)           118.3436         estimate D2E/DX2                !
 ! A126  A(39,37,77)           118.415          estimate D2E/DX2                !
 ! A127  A(36,38,42)           119.3628         estimate D2E/DX2                !
 ! A128  A(36,38,78)           118.1941         estimate D2E/DX2                !
 ! A129  A(42,38,78)           116.9004         estimate D2E/DX2                !
 ! A130  A(37,39,43)           119.6187         estimate D2E/DX2                !
 ! A131  A(37,39,79)           121.973          estimate D2E/DX2                !
 ! A132  A(43,39,79)           116.3849         estimate D2E/DX2                !
 ! A133  A(41,40,44)           120.8461         estimate D2E/DX2                !
 ! A134  A(41,40,79)           109.9657         estimate D2E/DX2                !
 ! A135  A(44,40,79)           125.4283         estimate D2E/DX2                !
 ! A136  A(40,41,45)           120.9794         estimate D2E/DX2                !
 ! A137  A(40,41,80)           109.2776         estimate D2E/DX2                !
 ! A138  A(45,41,80)           124.1803         estimate D2E/DX2                !
 ! A139  A(38,42,46)           119.5853         estimate D2E/DX2                !
 ! A140  A(38,42,80)           119.0498         estimate D2E/DX2                !
 ! A141  A(46,42,80)           115.6664         estimate D2E/DX2                !
 ! A142  A(2,43,13)            109.7063         estimate D2E/DX2                !
 ! A143  A(2,43,39)            125.0042         estimate D2E/DX2                !
 ! A144  A(13,43,39)           121.0706         estimate D2E/DX2                !
 ! A145  A(2,44,40)            115.3737         estimate D2E/DX2                !
 ! A146  A(2,44,47)            124.0275         estimate D2E/DX2                !
 ! A147  A(40,44,47)           119.096          estimate D2E/DX2                !
 ! A148  A(4,45,41)            115.4754         estimate D2E/DX2                !
 ! A149  A(4,45,48)            124.4976         estimate D2E/DX2                !
 ! A150  A(41,45,48)           118.8017         estimate D2E/DX2                !
 ! A151  A(4,46,14)            109.8171         estimate D2E/DX2                !
 ! A152  A(4,46,42)            124.4558         estimate D2E/DX2                !
 ! A153  A(14,46,42)           120.5649         estimate D2E/DX2                !
 ! A154  A(44,47,48)           119.8887         estimate D2E/DX2                !
 ! A155  A(44,47,49)           118.8936         estimate D2E/DX2                !
 ! A156  A(48,47,49)           120.6607         estimate D2E/DX2                !
 ! A157  A(45,48,47)           120.3261         estimate D2E/DX2                !
 ! A158  A(45,48,50)           118.2973         estimate D2E/DX2                !
 ! A159  A(47,48,50)           120.7077         estimate D2E/DX2                !
 ! A160  A(10,49,47)           110.6794         estimate D2E/DX2                !
 ! A161  A(10,49,51)           101.0622         estimate D2E/DX2                !
 ! A162  A(10,49,86)           113.12           estimate D2E/DX2                !
 ! A163  A(47,49,51)           109.3733         estimate D2E/DX2                !
 ! A164  A(47,49,86)           108.7362         estimate D2E/DX2                !
 ! A165  A(51,49,86)           113.6815         estimate D2E/DX2                !
 ! A166  A(11,50,48)           110.4803         estimate D2E/DX2                !
 ! A167  A(11,50,52)           101.1023         estimate D2E/DX2                !
 ! A168  A(11,50,87)           112.864          estimate D2E/DX2                !
 ! A169  A(48,50,52)           109.1251         estimate D2E/DX2                !
 ! A170  A(48,50,87)           109.23           estimate D2E/DX2                !
 ! A171  A(52,50,87)           113.7919         estimate D2E/DX2                !
 ! A172  A(49,51,52)           121.0773         estimate D2E/DX2                !
 ! A173  A(49,51,55)           111.9479         estimate D2E/DX2                !
 ! A174  A(52,51,55)           120.5094         estimate D2E/DX2                !
 ! A175  A(50,52,51)           122.7306         estimate D2E/DX2                !
 ! A176  A(50,52,56)           111.1702         estimate D2E/DX2                !
 ! A177  A(51,52,56)           119.1423         estimate D2E/DX2                !
 ! A178  A(10,53,19)           122.2484         estimate D2E/DX2                !
 ! A179  A(10,53,55)           108.3491         estimate D2E/DX2                !
 ! A180  A(19,53,55)           120.1327         estimate D2E/DX2                !
 ! A181  A(11,54,20)           122.0877         estimate D2E/DX2                !
 ! A182  A(11,54,56)           108.1428         estimate D2E/DX2                !
 ! A183  A(20,54,56)           121.6258         estimate D2E/DX2                !
 ! A184  A(51,55,53)           107.91           estimate D2E/DX2                !
 ! A185  A(51,55,83)           122.1202         estimate D2E/DX2                !
 ! A186  A(53,55,83)           120.3299         estimate D2E/DX2                !
 ! A187  A(52,56,54)           108.6032         estimate D2E/DX2                !
 ! A188  A(52,56,84)           121.394          estimate D2E/DX2                !
 ! A189  A(54,56,84)           121.4379         estimate D2E/DX2                !
 ! A190  A(21,57,59)           118.605          estimate D2E/DX2                !
 ! A191  A(21,57,83)           119.5912         estimate D2E/DX2                !
 ! A192  A(59,57,83)           120.4777         estimate D2E/DX2                !
 ! A193  A(22,58,60)           109.5222         estimate D2E/DX2                !
 ! A194  A(22,58,84)           122.3564         estimate D2E/DX2                !
 ! A195  A(60,58,84)           121.3763         estimate D2E/DX2                !
 ! A196  A(57,59,60)           119.7736         estimate D2E/DX2                !
 ! A197  A(57,59,61)           122.973          estimate D2E/DX2                !
 ! A198  A(60,59,61)           115.3731         estimate D2E/DX2                !
 ! A199  A(58,60,59)           120.4881         estimate D2E/DX2                !
 ! A200  A(58,60,62)           109.4167         estimate D2E/DX2                !
 ! A201  A(59,60,62)           125.5782         estimate D2E/DX2                !
 ! A202  A(25,61,59)           112.0719         estimate D2E/DX2                !
 ! A203  A(25,61,63)            99.9433         estimate D2E/DX2                !
 ! A204  A(25,61,95)           113.5789         estimate D2E/DX2                !
 ! A205  A(59,61,63)           108.977          estimate D2E/DX2                !
 ! A206  A(59,61,95)           110.2423         estimate D2E/DX2                !
 ! A207  A(63,61,95)           111.5815         estimate D2E/DX2                !
 ! A208  A(24,62,60)           101.6214         estimate D2E/DX2                !
 ! A209  A(24,62,64)           110.1641         estimate D2E/DX2                !
 ! A210  A(24,62,94)           113.0656         estimate D2E/DX2                !
 ! A211  A(60,62,64)           109.1964         estimate D2E/DX2                !
 ! A212  A(60,62,94)           112.358          estimate D2E/DX2                !
 ! A213  A(64,62,94)           110.1233         estimate D2E/DX2                !
 ! A214  A(61,63,64)           125.7795         estimate D2E/DX2                !
 ! A215  A(61,63,65)           111.6241         estimate D2E/DX2                !
 ! A216  A(64,63,65)           120.444          estimate D2E/DX2                !
 ! A217  A(62,64,63)           115.9504         estimate D2E/DX2                !
 ! A218  A(62,64,66)           123.8857         estimate D2E/DX2                !
 ! A219  A(63,64,66)           119.152          estimate D2E/DX2                !
 ! A220  A(27,65,63)           111.1761         estimate D2E/DX2                !
 ! A221  A(27,65,67)           124.9593         estimate D2E/DX2                !
 ! A222  A(63,65,67)           121.3841         estimate D2E/DX2                !
 ! A223  A(28,66,64)           118.7812         estimate D2E/DX2                !
 ! A224  A(28,66,68)           120.4244         estimate D2E/DX2                !
 ! A225  A(64,66,68)           120.2535         estimate D2E/DX2                !
 ! A226  A(65,67,68)           118.9682         estimate D2E/DX2                !
 ! A227  A(65,67,69)           115.9264         estimate D2E/DX2                !
 ! A228  A(68,67,69)           123.9624         estimate D2E/DX2                !
 ! A229  A(66,68,67)           119.7484         estimate D2E/DX2                !
 ! A230  A(66,68,70)           120.6427         estimate D2E/DX2                !
 ! A231  A(67,68,70)           119.0876         estimate D2E/DX2                !
 ! A232  A(31,69,67)           108.2418         estimate D2E/DX2                !
 ! A233  A(31,69,71)           101.8642         estimate D2E/DX2                !
 ! A234  A(31,69,92)           112.863          estimate D2E/DX2                !
 ! A235  A(67,69,71)           110.432          estimate D2E/DX2                !
 ! A236  A(67,69,92)           110.0256         estimate D2E/DX2                !
 ! A237  A(71,69,92)           113.0874         estimate D2E/DX2                !
 ! A238  A(32,70,68)           109.0121         estimate D2E/DX2                !
 ! A239  A(32,70,72)           101.3269         estimate D2E/DX2                !
 ! A240  A(32,70,90)           113.6589         estimate D2E/DX2                !
 ! A241  A(68,70,72)           110.5516         estimate D2E/DX2                !
 ! A242  A(68,70,90)           108.6847         estimate D2E/DX2                !
 ! A243  A(72,70,90)           113.4072         estimate D2E/DX2                !
 ! A244  A(69,71,72)           122.4467         estimate D2E/DX2                !
 ! A245  A(69,71,73)           109.4852         estimate D2E/DX2                !
 ! A246  A(72,71,73)           119.7411         estimate D2E/DX2                !
 ! A247  A(70,72,71)           123.1728         estimate D2E/DX2                !
 ! A248  A(70,72,74)           109.5818         estimate D2E/DX2                !
 ! A249  A(71,72,74)           119.1047         estimate D2E/DX2                !
 ! A250  A(33,73,71)           109.2195         estimate D2E/DX2                !
 ! A251  A(33,73,75)           118.8158         estimate D2E/DX2                !
 ! A252  A(71,73,75)           121.5151         estimate D2E/DX2                !
 ! A253  A(34,74,72)           109.3527         estimate D2E/DX2                !
 ! A254  A(34,74,76)           119.153          estimate D2E/DX2                !
 ! A255  A(72,74,76)           121.6829         estimate D2E/DX2                !
 ! A256  A(73,75,76)           118.3955         estimate D2E/DX2                !
 ! A257  A(73,75,77)           120.4663         estimate D2E/DX2                !
 ! A258  A(76,75,77)           108.7851         estimate D2E/DX2                !
 ! A259  A(74,76,75)           119.2702         estimate D2E/DX2                !
 ! A260  A(74,76,78)           120.1875         estimate D2E/DX2                !
 ! A261  A(75,76,78)           108.3699         estimate D2E/DX2                !
 ! A262  A(37,77,75)           121.3993         estimate D2E/DX2                !
 ! A263  A(37,77,81)           120.2569         estimate D2E/DX2                !
 ! A264  A(75,77,81)           106.4247         estimate D2E/DX2                !
 ! A265  A(38,78,76)           121.6482         estimate D2E/DX2                !
 ! A266  A(38,78,81)           121.8704         estimate D2E/DX2                !
 ! A267  A(76,78,81)           106.6271         estimate D2E/DX2                !
 ! A268  A(39,79,40)           109.1156         estimate D2E/DX2                !
 ! A269  A(39,79,82)           112.1264         estimate D2E/DX2                !
 ! A270  A(39,79,88)           110.3035         estimate D2E/DX2                !
 ! A271  A(40,79,82)           100.8039         estimate D2E/DX2                !
 ! A272  A(40,79,88)           112.0604         estimate D2E/DX2                !
 ! A273  A(82,79,88)           112.0983         estimate D2E/DX2                !
 ! A274  A(41,80,42)           119.5768         estimate D2E/DX2                !
 ! A275  A(41,80,82)           107.0106         estimate D2E/DX2                !
 ! A276  A(42,80,82)           122.4766         estimate D2E/DX2                !
 ! A277  A(77,81,78)           108.8337         estimate D2E/DX2                !
 ! A278  A(77,81,82)           120.589          estimate D2E/DX2                !
 ! A279  A(78,81,82)           119.8717         estimate D2E/DX2                !
 ! A280  A(79,82,80)           111.8371         estimate D2E/DX2                !
 ! A281  A(79,82,81)           121.4842         estimate D2E/DX2                !
 ! A282  A(80,82,81)           119.2278         estimate D2E/DX2                !
 ! A283  A(55,83,57)           120.2887         estimate D2E/DX2                !
 ! A284  A(55,83,84)           116.1111         estimate D2E/DX2                !
 ! A285  A(57,83,84)           119.1842         estimate D2E/DX2                !
 ! A286  A(56,84,58)           116.1342         estimate D2E/DX2                !
 ! A287  A(56,84,83)           120.1052         estimate D2E/DX2                !
 ! A288  A(58,84,83)           118.5536         estimate D2E/DX2                !
 ! D1    D(17,1,5,9)             1.8693         estimate D2E/DX2                !
 ! D2    D(17,1,5,29)         -154.8279         estimate D2E/DX2                !
 ! D3    D(23,1,5,9)           142.7078         estimate D2E/DX2                !
 ! D4    D(23,1,5,29)          -13.9895         estimate D2E/DX2                !
 ! D5    D(5,1,17,15)           -3.462          estimate D2E/DX2                !
 ! D6    D(5,1,17,19)          141.6177         estimate D2E/DX2                !
 ! D7    D(23,1,17,15)        -148.98           estimate D2E/DX2                !
 ! D8    D(23,1,17,19)          -3.9003         estimate D2E/DX2                !
 ! D9    D(5,1,23,21)         -145.7061         estimate D2E/DX2                !
 ! D10   D(5,1,23,25)           10.3211         estimate D2E/DX2                !
 ! D11   D(17,1,23,21)           0.0921         estimate D2E/DX2                !
 ! D12   D(17,1,23,25)         156.1193         estimate D2E/DX2                !
 ! D13   D(43,2,6,10)         -137.193          estimate D2E/DX2                !
 ! D14   D(43,2,6,15)           10.1555         estimate D2E/DX2                !
 ! D15   D(44,2,6,10)          -21.9379         estimate D2E/DX2                !
 ! D16   D(44,2,6,15)          125.4107         estimate D2E/DX2                !
 ! D17   D(85,2,6,10)          102.1703         estimate D2E/DX2                !
 ! D18   D(85,2,6,15)         -110.4811         estimate D2E/DX2                !
 ! D19   D(6,2,43,13)           -7.7528         estimate D2E/DX2                !
 ! D20   D(6,2,43,39)          149.1879         estimate D2E/DX2                !
 ! D21   D(44,2,43,13)        -124.2985         estimate D2E/DX2                !
 ! D22   D(44,2,43,39)          32.6422         estimate D2E/DX2                !
 ! D23   D(85,2,43,13)         113.4616         estimate D2E/DX2                !
 ! D24   D(85,2,43,39)         -89.5976         estimate D2E/DX2                !
 ! D25   D(6,2,44,40)         -147.8305         estimate D2E/DX2                !
 ! D26   D(6,2,44,47)           18.0106         estimate D2E/DX2                !
 ! D27   D(43,2,44,40)         -37.1092         estimate D2E/DX2                !
 ! D28   D(43,2,44,47)         128.732          estimate D2E/DX2                !
 ! D29   D(85,2,44,40)          86.3958         estimate D2E/DX2                !
 ! D30   D(85,2,44,47)        -107.763          estimate D2E/DX2                !
 ! D31   D(18,3,7,12)            3.2592         estimate D2E/DX2                !
 ! D32   D(18,3,7,30)          152.2006         estimate D2E/DX2                !
 ! D33   D(26,3,7,12)         -146.2124         estimate D2E/DX2                !
 ! D34   D(26,3,7,30)            2.729          estimate D2E/DX2                !
 ! D35   D(7,3,18,16)            6.0062         estimate D2E/DX2                !
 ! D36   D(7,3,18,20)         -143.9024         estimate D2E/DX2                !
 ! D37   D(26,3,18,16)         151.3603         estimate D2E/DX2                !
 ! D38   D(26,3,18,20)           1.4516         estimate D2E/DX2                !
 ! D39   D(7,3,26,24)          146.4785         estimate D2E/DX2                !
 ! D40   D(7,3,26,28)           -4.5904         estimate D2E/DX2                !
 ! D41   D(18,3,26,24)          -2.8053         estimate D2E/DX2                !
 ! D42   D(18,3,26,28)        -153.8742         estimate D2E/DX2                !
 ! D43   D(45,4,8,11)           23.508          estimate D2E/DX2                !
 ! D44   D(45,4,8,16)         -125.5132         estimate D2E/DX2                !
 ! D45   D(46,4,8,11)          141.5376         estimate D2E/DX2                !
 ! D46   D(46,4,8,16)           -7.4836         estimate D2E/DX2                !
 ! D47   D(91,4,8,11)          -99.007          estimate D2E/DX2                !
 ! D48   D(91,4,8,16)          111.9718         estimate D2E/DX2                !
 ! D49   D(8,4,45,41)          144.9337         estimate D2E/DX2                !
 ! D50   D(8,4,45,48)          -22.2182         estimate D2E/DX2                !
 ! D51   D(46,4,45,41)          32.8486         estimate D2E/DX2                !
 ! D52   D(46,4,45,48)        -134.3032         estimate D2E/DX2                !
 ! D53   D(91,4,45,41)         -90.713          estimate D2E/DX2                !
 ! D54   D(91,4,45,48)         102.1351         estimate D2E/DX2                !
 ! D55   D(8,4,46,14)            8.5553         estimate D2E/DX2                !
 ! D56   D(8,4,46,42)         -145.9716         estimate D2E/DX2                !
 ! D57   D(45,4,46,14)         126.0762         estimate D2E/DX2                !
 ! D58   D(45,4,46,42)         -28.4507         estimate D2E/DX2                !
 ! D59   D(91,4,46,14)        -111.6089         estimate D2E/DX2                !
 ! D60   D(91,4,46,42)          93.8642         estimate D2E/DX2                !
 ! D61   D(1,5,9,13)             0.3016         estimate D2E/DX2                !
 ! D62   D(1,5,9,35)          -156.9969         estimate D2E/DX2                !
 ! D63   D(29,5,9,13)          156.5767         estimate D2E/DX2                !
 ! D64   D(29,5,9,35)           -0.7218         estimate D2E/DX2                !
 ! D65   D(1,5,29,27)            0.711          estimate D2E/DX2                !
 ! D66   D(1,5,29,31)          162.929          estimate D2E/DX2                !
 ! D67   D(9,5,29,27)         -155.8414         estimate D2E/DX2                !
 ! D68   D(9,5,29,31)            6.3766         estimate D2E/DX2                !
 ! D69   D(2,6,10,49)           -0.5642         estimate D2E/DX2                !
 ! D70   D(2,6,10,53)          146.3291         estimate D2E/DX2                !
 ! D71   D(15,6,10,49)        -145.0581         estimate D2E/DX2                !
 ! D72   D(15,6,10,53)           1.8352         estimate D2E/DX2                !
 ! D73   D(2,6,15,13)           -9.2874         estimate D2E/DX2                !
 ! D74   D(2,6,15,17)         -153.8362         estimate D2E/DX2                !
 ! D75   D(10,6,15,13)         139.5159         estimate D2E/DX2                !
 ! D76   D(10,6,15,17)          -5.0329         estimate D2E/DX2                !
 ! D77   D(3,7,12,14)           -8.242          estimate D2E/DX2                !
 ! D78   D(3,7,12,36)          145.3323         estimate D2E/DX2                !
 ! D79   D(30,7,12,14)        -153.0072         estimate D2E/DX2                !
 ! D80   D(30,7,12,36)           0.567          estimate D2E/DX2                !
 ! D81   D(3,7,30,28)            0.1402         estimate D2E/DX2                !
 ! D82   D(3,7,30,32)         -151.2751         estimate D2E/DX2                !
 ! D83   D(12,7,30,28)         149.2118         estimate D2E/DX2                !
 ! D84   D(12,7,30,32)          -2.2035         estimate D2E/DX2                !
 ! D85   D(4,8,11,50)            2.2782         estimate D2E/DX2                !
 ! D86   D(4,8,11,54)         -145.2242         estimate D2E/DX2                !
 ! D87   D(16,8,11,50)         148.2465         estimate D2E/DX2                !
 ! D88   D(16,8,11,54)           0.7441         estimate D2E/DX2                !
 ! D89   D(4,8,16,14)            3.9837         estimate D2E/DX2                !
 ! D90   D(4,8,16,18)          151.8822         estimate D2E/DX2                !
 ! D91   D(11,8,16,14)        -145.4472         estimate D2E/DX2                !
 ! D92   D(11,8,16,18)           2.4513         estimate D2E/DX2                !
 ! D93   D(5,9,13,15)           -0.9197         estimate D2E/DX2                !
 ! D94   D(5,9,13,43)         -147.1663         estimate D2E/DX2                !
 ! D95   D(35,9,13,15)         157.226          estimate D2E/DX2                !
 ! D96   D(35,9,13,43)          10.9794         estimate D2E/DX2                !
 ! D97   D(5,9,35,33)           -7.6065         estimate D2E/DX2                !
 ! D98   D(5,9,35,37)          149.9117         estimate D2E/DX2                !
 ! D99   D(13,9,35,33)        -165.1812         estimate D2E/DX2                !
 ! D100  D(13,9,35,37)          -7.663          estimate D2E/DX2                !
 ! D101  D(6,10,49,47)          26.6316         estimate D2E/DX2                !
 ! D102  D(6,10,49,51)         142.4217         estimate D2E/DX2                !
 ! D103  D(6,10,49,86)         -95.6764         estimate D2E/DX2                !
 ! D104  D(53,10,49,47)       -122.9408         estimate D2E/DX2                !
 ! D105  D(53,10,49,51)         -7.1508         estimate D2E/DX2                !
 ! D106  D(53,10,49,86)        114.7512         estimate D2E/DX2                !
 ! D107  D(6,10,53,19)           4.2646         estimate D2E/DX2                !
 ! D108  D(6,10,53,55)        -142.3114         estimate D2E/DX2                !
 ! D109  D(49,10,53,19)        155.0931         estimate D2E/DX2                !
 ! D110  D(49,10,53,55)          8.5171         estimate D2E/DX2                !
 ! D111  D(8,11,50,48)         -29.628          estimate D2E/DX2                !
 ! D112  D(8,11,50,52)        -145.0765         estimate D2E/DX2                !
 ! D113  D(8,11,50,87)          92.9915         estimate D2E/DX2                !
 ! D114  D(54,11,50,48)        120.2197         estimate D2E/DX2                !
 ! D115  D(54,11,50,52)          4.7711         estimate D2E/DX2                !
 ! D116  D(54,11,50,87)       -117.1608         estimate D2E/DX2                !
 ! D117  D(8,11,54,20)          -2.6342         estimate D2E/DX2                !
 ! D118  D(8,11,54,56)         146.3197         estimate D2E/DX2                !
 ! D119  D(50,11,54,20)       -153.8273         estimate D2E/DX2                !
 ! D120  D(50,11,54,56)         -4.8735         estimate D2E/DX2                !
 ! D121  D(7,12,14,16)           4.2588         estimate D2E/DX2                !
 ! D122  D(7,12,14,46)         152.1615         estimate D2E/DX2                !
 ! D123  D(36,12,14,16)       -149.5762         estimate D2E/DX2                !
 ! D124  D(36,12,14,46)         -1.6735         estimate D2E/DX2                !
 ! D125  D(7,12,36,34)           3.6529         estimate D2E/DX2                !
 ! D126  D(7,12,36,38)        -150.1275         estimate D2E/DX2                !
 ! D127  D(14,12,36,34)        156.4            estimate D2E/DX2                !
 ! D128  D(14,12,36,38)          2.6196         estimate D2E/DX2                !
 ! D129  D(9,13,15,6)         -146.073          estimate D2E/DX2                !
 ! D130  D(9,13,15,17)          -0.6262         estimate D2E/DX2                !
 ! D131  D(43,13,15,6)           4.0227         estimate D2E/DX2                !
 ! D132  D(43,13,15,17)        149.4696         estimate D2E/DX2                !
 ! D133  D(9,13,43,2)          153.0011         estimate D2E/DX2                !
 ! D134  D(9,13,43,39)          -5.0012         estimate D2E/DX2                !
 ! D135  D(15,13,43,2)           2.6951         estimate D2E/DX2                !
 ! D136  D(15,13,43,39)       -155.3072         estimate D2E/DX2                !
 ! D137  D(12,14,16,8)         153.1906         estimate D2E/DX2                !
 ! D138  D(12,14,16,18)          4.9621         estimate D2E/DX2                !
 ! D139  D(46,14,16,8)           1.7429         estimate D2E/DX2                !
 ! D140  D(46,14,16,18)       -146.4856         estimate D2E/DX2                !
 ! D141  D(12,14,46,4)        -158.2037         estimate D2E/DX2                !
 ! D142  D(12,14,46,42)         -2.5255         estimate D2E/DX2                !
 ! D143  D(16,14,46,4)          -6.7042         estimate D2E/DX2                !
 ! D144  D(16,14,46,42)        148.974          estimate D2E/DX2                !
 ! D145  D(6,15,17,1)          144.1037         estimate D2E/DX2                !
 ! D146  D(6,15,17,19)           2.2708         estimate D2E/DX2                !
 ! D147  D(13,15,17,1)           2.7768         estimate D2E/DX2                !
 ! D148  D(13,15,17,19)       -139.0562         estimate D2E/DX2                !
 ! D149  D(8,16,18,3)         -153.7946         estimate D2E/DX2                !
 ! D150  D(8,16,18,20)          -3.6794         estimate D2E/DX2                !
 ! D151  D(14,16,18,3)          -9.9096         estimate D2E/DX2                !
 ! D152  D(14,16,18,20)        140.2055         estimate D2E/DX2                !
 ! D153  D(1,17,19,21)           6.2991         estimate D2E/DX2                !
 ! D154  D(1,17,19,53)        -141.5146         estimate D2E/DX2                !
 ! D155  D(15,17,19,21)        151.4699         estimate D2E/DX2                !
 ! D156  D(15,17,19,53)          3.6562         estimate D2E/DX2                !
 ! D157  D(3,18,20,22)           1.7518         estimate D2E/DX2                !
 ! D158  D(3,18,20,54)         151.2733         estimate D2E/DX2                !
 ! D159  D(16,18,20,22)       -147.7524         estimate D2E/DX2                !
 ! D160  D(16,18,20,54)          1.769          estimate D2E/DX2                !
 ! D161  D(17,19,21,23)         -5.7507         estimate D2E/DX2                !
 ! D162  D(17,19,21,57)       -123.9752         estimate D2E/DX2                !
 ! D163  D(17,19,21,96)        113.2319         estimate D2E/DX2                !
 ! D164  D(53,19,21,23)        140.3965         estimate D2E/DX2                !
 ! D165  D(53,19,21,57)         22.1719         estimate D2E/DX2                !
 ! D166  D(53,19,21,96)       -100.621          estimate D2E/DX2                !
 ! D167  D(17,19,53,10)         -6.9701         estimate D2E/DX2                !
 ! D168  D(17,19,53,55)        135.8359         estimate D2E/DX2                !
 ! D169  D(21,19,53,10)       -150.6302         estimate D2E/DX2                !
 ! D170  D(21,19,53,55)         -7.8241         estimate D2E/DX2                !
 ! D171  D(18,20,22,24)         -3.7501         estimate D2E/DX2                !
 ! D172  D(18,20,22,58)        139.5558         estimate D2E/DX2                !
 ! D173  D(54,20,22,24)       -153.89           estimate D2E/DX2                !
 ! D174  D(54,20,22,58)        -10.584          estimate D2E/DX2                !
 ! D175  D(18,20,54,11)          1.3307         estimate D2E/DX2                !
 ! D176  D(18,20,54,56)       -143.5301         estimate D2E/DX2                !
 ! D177  D(22,20,54,11)        151.2085         estimate D2E/DX2                !
 ! D178  D(22,20,54,56)          6.3477         estimate D2E/DX2                !
 ! D179  D(19,21,23,1)           3.3828         estimate D2E/DX2                !
 ! D180  D(19,21,23,25)       -152.2725         estimate D2E/DX2                !
 ! D181  D(57,21,23,1)         123.0765         estimate D2E/DX2                !
 ! D182  D(57,21,23,25)        -32.5787         estimate D2E/DX2                !
 ! D183  D(96,21,23,1)        -116.1248         estimate D2E/DX2                !
 ! D184  D(96,21,23,25)         88.22           estimate D2E/DX2                !
 ! D185  D(19,21,57,59)        143.4798         estimate D2E/DX2                !
 ! D186  D(19,21,57,83)        -23.4396         estimate D2E/DX2                !
 ! D187  D(23,21,57,59)         30.7054         estimate D2E/DX2                !
 ! D188  D(23,21,57,83)       -136.214          estimate D2E/DX2                !
 ! D189  D(96,21,57,59)        -91.7565         estimate D2E/DX2                !
 ! D190  D(96,21,57,83)        101.3241         estimate D2E/DX2                !
 ! D191  D(20,22,24,26)          2.4778         estimate D2E/DX2                !
 ! D192  D(20,22,24,62)        152.2709         estimate D2E/DX2                !
 ! D193  D(58,22,24,26)       -144.831          estimate D2E/DX2                !
 ! D194  D(58,22,24,62)          4.962          estimate D2E/DX2                !
 ! D195  D(20,22,58,60)       -146.315          estimate D2E/DX2                !
 ! D196  D(20,22,58,84)          5.1562         estimate D2E/DX2                !
 ! D197  D(24,22,58,60)          1.6184         estimate D2E/DX2                !
 ! D198  D(24,22,58,84)        153.0896         estimate D2E/DX2                !
 ! D199  D(1,23,25,27)           7.3808         estimate D2E/DX2                !
 ! D200  D(1,23,25,61)        -145.0691         estimate D2E/DX2                !
 ! D201  D(21,23,25,27)        160.4034         estimate D2E/DX2                !
 ! D202  D(21,23,25,61)          7.9535         estimate D2E/DX2                !
 ! D203  D(22,24,26,3)           0.8408         estimate D2E/DX2                !
 ! D204  D(22,24,26,28)        148.4543         estimate D2E/DX2                !
 ! D205  D(62,24,26,3)        -145.4511         estimate D2E/DX2                !
 ! D206  D(62,24,26,28)          2.1623         estimate D2E/DX2                !
 ! D207  D(22,24,62,60)         -8.8617         estimate D2E/DX2                !
 ! D208  D(22,24,62,64)       -124.528          estimate D2E/DX2                !
 ! D209  D(22,24,62,94)        111.7805         estimate D2E/DX2                !
 ! D210  D(26,24,62,60)        140.2407         estimate D2E/DX2                !
 ! D211  D(26,24,62,64)         24.5744         estimate D2E/DX2                !
 ! D212  D(26,24,62,94)        -99.1172         estimate D2E/DX2                !
 ! D213  D(23,25,27,29)        -19.1041         estimate D2E/DX2                !
 ! D214  D(23,25,27,65)       -134.6009         estimate D2E/DX2                !
 ! D215  D(23,25,27,93)        106.6306         estimate D2E/DX2                !
 ! D216  D(61,25,27,29)        135.7434         estimate D2E/DX2                !
 ! D217  D(61,25,27,65)         20.2465         estimate D2E/DX2                !
 ! D218  D(61,25,27,93)        -98.522          estimate D2E/DX2                !
 ! D219  D(23,25,61,59)         18.1541         estimate D2E/DX2                !
 ! D220  D(23,25,61,63)        133.4531         estimate D2E/DX2                !
 ! D221  D(23,25,61,95)       -107.6022         estimate D2E/DX2                !
 ! D222  D(27,25,61,59)       -136.4474         estimate D2E/DX2                !
 ! D223  D(27,25,61,63)        -21.1484         estimate D2E/DX2                !
 ! D224  D(27,25,61,95)         97.7963         estimate D2E/DX2                !
 ! D225  D(3,26,28,30)           4.3844         estimate D2E/DX2                !
 ! D226  D(3,26,28,66)         119.7247         estimate D2E/DX2                !
 ! D227  D(3,26,28,89)        -117.8283         estimate D2E/DX2                !
 ! D228  D(24,26,28,30)       -145.6118         estimate D2E/DX2                !
 ! D229  D(24,26,28,66)        -30.2715         estimate D2E/DX2                !
 ! D230  D(24,26,28,89)         92.1755         estimate D2E/DX2                !
 ! D231  D(25,27,29,5)          15.0295         estimate D2E/DX2                !
 ! D232  D(25,27,29,31)       -147.5331         estimate D2E/DX2                !
 ! D233  D(65,27,29,5)         125.9457         estimate D2E/DX2                !
 ! D234  D(65,27,29,31)        -36.6169         estimate D2E/DX2                !
 ! D235  D(93,27,29,5)        -111.2995         estimate D2E/DX2                !
 ! D236  D(93,27,29,31)         86.1379         estimate D2E/DX2                !
 ! D237  D(25,27,65,63)        -10.7498         estimate D2E/DX2                !
 ! D238  D(25,27,65,67)        151.4807         estimate D2E/DX2                !
 ! D239  D(29,27,65,63)       -130.3018         estimate D2E/DX2                !
 ! D240  D(29,27,65,67)         31.9286         estimate D2E/DX2                !
 ! D241  D(93,27,65,63)        107.8083         estimate D2E/DX2                !
 ! D242  D(93,27,65,67)        -89.9612         estimate D2E/DX2                !
 ! D243  D(26,28,30,7)          -2.6731         estimate D2E/DX2                !
 ! D244  D(26,28,30,32)        147.6617         estimate D2E/DX2                !
 ! D245  D(66,28,30,7)        -118.8047         estimate D2E/DX2                !
 ! D246  D(66,28,30,32)         31.5301         estimate D2E/DX2                !
 ! D247  D(89,28,30,7)         118.9699         estimate D2E/DX2                !
 ! D248  D(89,28,30,32)        -90.6953         estimate D2E/DX2                !
 ! D249  D(26,28,66,64)         30.8845         estimate D2E/DX2                !
 ! D250  D(26,28,66,68)       -140.7033         estimate D2E/DX2                !
 ! D251  D(30,28,66,64)        141.0042         estimate D2E/DX2                !
 ! D252  D(30,28,66,68)        -30.5836         estimate D2E/DX2                !
 ! D253  D(89,28,66,64)        -93.9019         estimate D2E/DX2                !
 ! D254  D(89,28,66,68)         94.5103         estimate D2E/DX2                !
 ! D255  D(5,29,31,33)          -3.4493         estimate D2E/DX2                !
 ! D256  D(5,29,31,69)        -157.4326         estimate D2E/DX2                !
 ! D257  D(27,29,31,33)        159.5332         estimate D2E/DX2                !
 ! D258  D(27,29,31,69)          5.55           estimate D2E/DX2                !
 ! D259  D(7,30,32,34)          -0.5841         estimate D2E/DX2                !
 ! D260  D(7,30,32,70)         148.4192         estimate D2E/DX2                !
 ! D261  D(28,30,32,34)       -148.7019         estimate D2E/DX2                !
 ! D262  D(28,30,32,70)          0.3014         estimate D2E/DX2                !
 ! D263  D(29,31,33,35)         -5.4323         estimate D2E/DX2                !
 ! D264  D(29,31,33,73)       -155.4773         estimate D2E/DX2                !
 ! D265  D(69,31,33,35)        151.9425         estimate D2E/DX2                !
 ! D266  D(69,31,33,73)          1.8976         estimate D2E/DX2                !
 ! D267  D(29,31,69,67)         32.9023         estimate D2E/DX2                !
 ! D268  D(29,31,69,71)        149.3149         estimate D2E/DX2                !
 ! D269  D(29,31,69,92)        -89.1218         estimate D2E/DX2                !
 ! D270  D(33,31,69,67)       -123.6534         estimate D2E/DX2                !
 ! D271  D(33,31,69,71)         -7.2408         estimate D2E/DX2                !
 ! D272  D(33,31,69,92)        114.3225         estimate D2E/DX2                !
 ! D273  D(30,32,34,36)          5.1513         estimate D2E/DX2                !
 ! D274  D(30,32,34,74)        153.8429         estimate D2E/DX2                !
 ! D275  D(70,32,34,36)       -146.5976         estimate D2E/DX2                !
 ! D276  D(70,32,34,74)          2.094          estimate D2E/DX2                !
 ! D277  D(30,32,70,68)        -32.2677         estimate D2E/DX2                !
 ! D278  D(30,32,70,72)       -148.8639         estimate D2E/DX2                !
 ! D279  D(30,32,70,90)         89.1246         estimate D2E/DX2                !
 ! D280  D(34,32,70,68)        119.0774         estimate D2E/DX2                !
 ! D281  D(34,32,70,72)          2.4812         estimate D2E/DX2                !
 ! D282  D(34,32,70,90)       -119.5303         estimate D2E/DX2                !
 ! D283  D(31,33,35,9)          10.7563         estimate D2E/DX2                !
 ! D284  D(31,33,35,37)       -147.1891         estimate D2E/DX2                !
 ! D285  D(73,33,35,9)         156.8154         estimate D2E/DX2                !
 ! D286  D(73,33,35,37)         -1.13           estimate D2E/DX2                !
 ! D287  D(31,33,73,71)          4.7478         estimate D2E/DX2                !
 ! D288  D(31,33,73,75)        150.1938         estimate D2E/DX2                !
[...]
 Alpha virt. eigenvalues --    1.43244   1.43690   1.44223   1.44626   1.44918
 Alpha virt. eigenvalues --    1.45462   1.45650   1.46047   1.46372   1.47294
 Alpha virt. eigenvalues --    1.48021   1.48181   1.49220   1.49540   1.50068
 Alpha virt. eigenvalues --    1.50807   1.51033   1.51473   1.52293   1.52867
 Alpha virt. eigenvalues --    1.54064   1.54484   1.54672   1.55291   1.55421
 Alpha virt. eigenvalues --    1.56433   1.56792   1.57006   1.57698   1.58117
 Alpha virt. eigenvalues --    1.58877   1.59431   1.60119   1.60290   1.60522
 Alpha virt. eigenvalues --    1.61079   1.61587   1.61720   1.62102   1.62399
 Alpha virt. eigenvalues --    1.62945   1.63179   1.63352   1.63593   1.63711
 Alpha virt. eigenvalues --    1.64297   1.64614   1.64867   1.65135   1.65148
 Alpha virt. eigenvalues --    1.65420   1.65699   1.65796   1.66159   1.66447
 Alpha virt. eigenvalues --    1.66750   1.66865   1.67096   1.67131   1.67501
 Alpha virt. eigenvalues --    1.67698   1.68029   1.68209   1.68479   1.68667
 Alpha virt. eigenvalues --    1.68781   1.69153   1.69384   1.69649   1.69790
 Alpha virt. eigenvalues --    1.69914   1.70301   1.70740   1.70848   1.71281
 Alpha virt. eigenvalues --    1.71440   1.71581   1.71737   1.72083   1.72362
 Alpha virt. eigenvalues --    1.72490   1.72761   1.73015   1.73291   1.73475
 Alpha virt. eigenvalues --    1.73889   1.74013   1.74220   1.74600   1.74889
 Alpha virt. eigenvalues --    1.74954   1.75220   1.75406   1.75764   1.75870
 Alpha virt. eigenvalues --    1.75948   1.76226   1.76628   1.76746   1.76945
 Alpha virt. eigenvalues --    1.77083   1.77443   1.77593   1.77636   1.78069
 Alpha virt. eigenvalues --    1.78260   1.78360   1.78690   1.78927   1.79133
 Alpha virt. eigenvalues --    1.79432   1.79774   1.79938   1.80194   1.80372
 Alpha virt. eigenvalues --    1.80748   1.80804   1.81165   1.81323   1.81613
 Alpha virt. eigenvalues --    1.82021   1.82247   1.82613   1.82871   1.83336
 Alpha virt. eigenvalues --    1.83620   1.83913   1.83953   1.84489   1.84960
 Alpha virt. eigenvalues --    1.85344   1.85505   1.85644   1.86316   1.86823
 Alpha virt. eigenvalues --    1.87048   1.87325   1.87480   1.87616   1.88051
 Alpha virt. eigenvalues --    1.88563   1.88887   1.89254   1.89610   1.89829
 Alpha virt. eigenvalues --    1.89916   1.90489   1.90820   1.90988   1.91690
 Alpha virt. eigenvalues --    1.92100   1.92369   1.92487   1.92815   1.93519
 Alpha virt. eigenvalues --    1.93737   1.93971   1.94325   1.94694   1.94826
 Alpha virt. eigenvalues --    1.95125   1.95437   1.96110   1.96851   1.97103
 Alpha virt. eigenvalues --    1.97740   1.97853   1.98017   1.98518   1.98773
 Alpha virt. eigenvalues --    1.99081   1.99322   1.99665   2.00080   2.00421
 Alpha virt. eigenvalues --    2.00657   2.00841   2.01306   2.01411   2.01814
 Alpha virt. eigenvalues --    2.02143   2.02417   2.02691   2.02878   2.03135
 Alpha virt. eigenvalues --    2.03439   2.03728   2.04371   2.04683   2.04700
 Alpha virt. eigenvalues --    2.04955   2.05659   2.05964   2.06450   2.06726
 Alpha virt. eigenvalues --    2.07180   2.07499   2.07703   2.08064   2.08527
 Alpha virt. eigenvalues --    2.08816   2.09289   2.09731   2.09845   2.10630
 Alpha virt. eigenvalues --    2.10681   2.11077   2.11575   2.12067   2.12174
 Alpha virt. eigenvalues --    2.12723   2.12816   2.13026   2.13469   2.13988
 Alpha virt. eigenvalues --    2.14139   2.14821   2.15140   2.15464   2.15989
 Alpha virt. eigenvalues --    2.16133   2.16863   2.17387   2.17788   2.18135
 Alpha virt. eigenvalues --    2.18507   2.18680   2.18820   2.19364   2.19790
 Alpha virt. eigenvalues --    2.20212   2.20240   2.20963   2.21408   2.21591
 Alpha virt. eigenvalues --    2.21877   2.22439   2.22900   2.23580   2.23951
 Alpha virt. eigenvalues --    2.24436   2.24913   2.24960   2.25241   2.25344
 Alpha virt. eigenvalues --    2.25776   2.26785   2.27021   2.27194   2.27703
 Alpha virt. eigenvalues --    2.28069   2.28836   2.29430   2.29848   2.29997
 Alpha virt. eigenvalues --    2.30493   2.30628   2.30972   2.31506   2.32289
 Alpha virt. eigenvalues --    2.32684   2.33282   2.34047   2.34241   2.34648
 Alpha virt. eigenvalues --    2.34919   2.35115   2.35813   2.36176   2.36907
 Alpha virt. eigenvalues --    2.36982   2.37604   2.39000   2.39305   2.39959
 Alpha virt. eigenvalues --    2.40188   2.40945   2.41223   2.41436   2.41997
 Alpha virt. eigenvalues --    2.43096   2.43136   2.43927   2.44304   2.44615
 Alpha virt. eigenvalues --    2.44914   2.45319   2.45762   2.46659   2.47112
 Alpha virt. eigenvalues --    2.47555   2.48041   2.48469   2.49192   2.49453
 Alpha virt. eigenvalues --    2.49749   2.50384   2.51010   2.51435   2.51497
 Alpha virt. eigenvalues --    2.51719   2.52504   2.52771   2.53164   2.53396
 Alpha virt. eigenvalues --    2.54254   2.55127   2.55174   2.55418   2.55695
 Alpha virt. eigenvalues --    2.56209   2.56463   2.56978   2.57276   2.57484
 Alpha virt. eigenvalues --    2.57872   2.58128   2.58390   2.58942   2.59233
 Alpha virt. eigenvalues --    2.59369   2.59479   2.59937   2.60442   2.61068
 Alpha virt. eigenvalues --    2.61218   2.61417   2.61473   2.62312   2.62490
 Alpha virt. eigenvalues --    2.62739   2.63199   2.63636   2.64022   2.64135
 Alpha virt. eigenvalues --    2.64705   2.65099   2.65188   2.65709   2.66016
 Alpha virt. eigenvalues --    2.66191   2.66687   2.66736   2.67044   2.67198
 Alpha virt. eigenvalues --    2.67831   2.67984   2.68619   2.69122   2.69828
 Alpha virt. eigenvalues --    2.70025   2.70460   2.70743   2.71199   2.71375
 Alpha virt. eigenvalues --    2.71570   2.71783   2.72136   2.72587   2.72881
 Alpha virt. eigenvalues --    2.73121   2.74004   2.74100   2.74532   2.74817
 Alpha virt. eigenvalues --    2.75258   2.75506   2.76040   2.76388   2.76877
 Alpha virt. eigenvalues --    2.77351   2.77795   2.77934   2.78440   2.79199
 Alpha virt. eigenvalues --    2.79637   2.80204   2.80454   2.80934   2.81379
 Alpha virt. eigenvalues --    2.81432   2.81864   2.82742   2.82834   2.83303
 Alpha virt. eigenvalues --    2.84229   2.84436   2.84962   2.85688   2.86326
 Alpha virt. eigenvalues --    2.86660   2.86846   2.87917   2.88455   2.88815
 Alpha virt. eigenvalues --    2.88980   2.89291   2.89532   2.90347   2.90493
 Alpha virt. eigenvalues --    2.91037   2.91603   2.91684   2.92225   2.93136
 Alpha virt. eigenvalues --    2.93579   2.94433   2.94695   2.95386   2.96612
 Alpha virt. eigenvalues --    2.97775   2.98645   2.99203   3.00342   3.00781
 Alpha virt. eigenvalues --    3.01506   3.02483   3.03208   3.04639   3.06244
 Alpha virt. eigenvalues --    3.07506   3.08918   3.09704   3.11347   3.11682
 Alpha virt. eigenvalues --    3.13403   3.14505   3.15498   3.17600   3.18346
 Alpha virt. eigenvalues --    3.20166   3.20340   3.21314   3.23153   3.24645
 Alpha virt. eigenvalues --    3.25278   3.26731   3.28147   3.29647   3.30428
 Alpha virt. eigenvalues --    3.32956   3.35681   3.39113   3.41474   3.42148
 Alpha virt. eigenvalues --    3.43490   3.44153   3.45268   3.48917   3.49724
 Alpha virt. eigenvalues --    3.53653   3.55181   3.62025   4.00692   4.01332
 Alpha virt. eigenvalues --    4.01748   4.02919   4.03033   4.03557   4.03842
 Alpha virt. eigenvalues --    4.04593   4.06004   4.06480   4.07163   4.08173
 Alpha virt. eigenvalues --    4.08343   4.09296   4.09480   4.10046   4.10153
 Alpha virt. eigenvalues --    4.11556   4.12309   4.13127   4.13834   4.14952
 Alpha virt. eigenvalues --    4.15363   4.16406   4.16562   4.17069   4.18808
 Alpha virt. eigenvalues --    4.19299   4.19677   4.20869   4.21686   4.21753
 Alpha virt. eigenvalues --    4.22564   4.23453   4.24136   4.25883   4.26005
 Alpha virt. eigenvalues --    4.26149   4.26431   4.27141   4.27890   4.27964
 Alpha virt. eigenvalues --    4.28589   4.28892   4.29173   4.29764   4.31072
 Alpha virt. eigenvalues --    4.32275   4.33095   4.34075   4.35123   4.35924
 Alpha virt. eigenvalues --    4.37322   4.38915   4.39397   4.39819   4.41169
 Alpha virt. eigenvalues --    4.41798   4.42136   4.43408   4.43847   4.44007
 Alpha virt. eigenvalues --    4.46759   4.48287   4.48680   4.51274   4.51901
 Alpha virt. eigenvalues --    4.53336   4.53848   4.56887   4.57295   4.57669
 Alpha virt. eigenvalues --    4.59559   4.60113   4.62261   4.64200   4.64758
 Alpha virt. eigenvalues --    4.66475   4.67359   4.70998   4.77793   4.78682
 Alpha virt. eigenvalues --    4.79995   4.80642   4.83786   4.84066   4.86822
 Alpha virt. eigenvalues --    4.91896   4.93760   4.98821   5.02759   5.03742
 Alpha virt. eigenvalues --    5.07721   5.12572   5.14466   5.23437
          Condensed to atoms (all electrons):
 Mulliken charges:
               1
     1  C   -0.026426
     2  C   -0.382666
     3  C    0.009824
     4  C   -0.370674
     5  C    0.065630
     6  C    0.093275
     7  C    0.007792
     8  C    0.091418
     9  C    0.035824
    10  C    0.090117
    11  C    0.091647
    12  C    0.047922
    13  C    0.006216
    14  C    0.011526
    15  C    0.013550
    16  C    0.007157
    17  C    0.021108
    18  C    0.042906
    19  C    0.066210
    20  C    0.045599
    21  C   -0.359248
    22  C    0.013685
    23  C    0.110112
    24  C    0.089034
    25  C    0.159677
    26  C    0.089603
    27  C   -0.359600
    28  C   -0.383356
    29  C    0.117349
    30  C    0.086773
    31  C    0.080527
    32  C    0.092780
    33  C    0.006566
    34  C    0.007021
    35  C    0.023493
    36  C    0.031845
    37  C    0.079323
    38  C    0.046448
    39  C    0.117001
    40  C    0.085971
    41  C    0.037479
    42  C    0.060980
    43  C    0.081594
    44  C    0.148098
    45  C    0.121919
    46  C    0.045913
    47  C    0.115012
    48  C    0.128646
    49  C   -0.374233
    50  C   -0.382535
    51  C    0.097466
    52  C    0.086542
    53  C    0.040012
    54  C    0.007593
    55  C   -0.016125
    56  C    0.011625
    57  C    0.096608
    58  C    0.006302
    59  C    0.152445
    60  C    0.078039
    61  C   -0.369304
    62  C   -0.389838
    63  C    0.110887
    64  C    0.144359
    65  C    0.121690
    66  C    0.124821
    67  C    0.144148
    68  C    0.121024
    69  C   -0.383303
    70  C   -0.377795
    71  C    0.091896
    72  C    0.091593
    73  C    0.024643
    74  C    0.025394
    75  C   -0.010603
    76  C   -0.012877
    77  C   -0.045651
    78  C   -0.018441
    79  C   -0.370555
    80  C   -0.008267
    81  C    0.005408
    82  C    0.075043
    83  C    0.064215
    84  C    0.044414
    85  Cl   0.019208
    86  Cl   0.011124
    87  Cl   0.020031
    88  Cl   0.004894
    89  Cl   0.022714
    90  Cl   0.016181
    91  Cl   0.003150
    92  Cl   0.021889
    93  Cl  -0.000876
    94  Cl   0.026725
    95  Cl   0.017705
    96  Cl  -0.011984
 Sum of Mulliken charges =  -0.00000
 Mulliken charges with hydrogens summed into heavy atoms:
               1
     1  C   -0.026426
     2  C   -0.382666
     3  C    0.009824
     4  C   -0.370674
     5  C    0.065630
     6  C    0.093275
     7  C    0.007792
     8  C    0.091418
     9  C    0.035824
    10  C    0.090117
    11  C    0.091647
    12  C    0.047922
    13  C    0.006216
    14  C    0.011526
    15  C    0.013550
    16  C    0.007157
    17  C    0.021108
    18  C    0.042906
    19  C    0.066210
    20  C    0.045599
    21  C   -0.359248
    22  C    0.013685
    23  C    0.110112
    24  C    0.089034
    25  C    0.159677
    26  C    0.089603
    27  C   -0.359600
    28  C   -0.383356
    29  C    0.117349
    30  C    0.086773
    31  C    0.080527
    32  C    0.092780
    33  C    0.006566
    34  C    0.007021
    35  C    0.023493
    36  C    0.031845
    37  C    0.079323
    38  C    0.046448
    39  C    0.117001
    40  C    0.085971
    41  C    0.037479
    42  C    0.060980
    43  C    0.081594
    44  C    0.148098
    45  C    0.121919
    46  C    0.045913
    47  C    0.115012
    48  C    0.128646
    49  C   -0.374233
    50  C   -0.382535
    51  C    0.097466
    52  C    0.086542
    53  C    0.040012
    54  C    0.007593
    55  C   -0.016125
    56  C    0.011625
    57  C    0.096608
    58  C    0.006302
    59  C    0.152445
    60  C    0.078039
    61  C   -0.369304
    62  C   -0.389838
    63  C    0.110887
    64  C    0.144359
    65  C    0.121690
    66  C    0.124821
    67  C    0.144148
    68  C    0.121024
    69  C   -0.383303
    70  C   -0.377795
    71  C    0.091896
    72  C    0.091593
    73  C    0.024643
    74  C    0.025394
    75  C   -0.010603
    76  C   -0.012877
    77  C   -0.045651
    78  C   -0.018441
    79  C   -0.370555
    80  C   -0.008267
    81  C    0.005408
    82  C    0.075043
    83  C    0.064215
    84  C    0.044414
    85  Cl   0.019208
    86  Cl   0.011124
    87  Cl   0.020031
    88  Cl   0.004894
    89  Cl   0.022714
    90  Cl   0.016181
    91  Cl   0.003150
    92  Cl   0.021889
    93  Cl  -0.000876
    94  Cl   0.026725
    95  Cl   0.017705
    96  Cl  -0.011984
 Electronic spatial extent (au):  <R**2>=          62120.4735
 Charge=             -0.0000 electrons
 Dipole moment (field-independent basis, Debye):
    X=              0.9537    Y=             -3.2898    Z=             -0.7843  Tot=              3.5139
 Quadrupole moment (field-independent basis, Debye-Ang):
   XX=           -672.0917   YY=           -625.5117   ZZ=           -612.1889
   XY=              8.9697   XZ=              0.2566   YZ=             -0.0985
 Traceless Quadrupole moment (field-independent basis, Debye-Ang):
   XX=            -35.4943   YY=             11.0858   ZZ=             24.4085
   XY=              8.9697   XZ=              0.2566   YZ=             -0.0985
 Octapole moment (field-independent basis, Debye-Ang**2):
  XXX=            -44.2218  YYY=            -60.3683  ZZZ=            -28.1862  XYY=             20.8660
  XXY=             10.9823  XXZ=             -8.4391  XZZ=            -16.3868  YZZ=             23.4932
  YYZ=              1.1186  XYZ=              4.2753
 Hexadecapole moment (field-independent basis, Debye-Ang**3):
 XXXX=         -38375.4115 YYYY=         -26508.9006 ZZZZ=         -23297.9247 XXXY=           -139.6749
 XXXZ=             87.9903 YYYX=             93.1972 YYYZ=              9.4385 ZZZX=            -16.4726
 ZZZY=             33.4361 XXYY=         -10920.1743 XXZZ=         -10523.7577 YYZZ=          -8235.7022
 XXYZ=            -34.8387 YYXZ=             36.6967 ZZXY=             62.6467
 N-N= 2.408145177566D+04 E-N=-6.868186014071D+04  KE= 8.676596985593D+03
 No NMR shielding tensors so no spin-rotation constants.
 Leave Link  601 at Wed Jun 29 17:02:33 2022, MaxMem=  1342177280 cpu:              25.8 elap:               1.3
 (Enter /home/mkliu/g16/l9999.exe)
 1\1\GINC-NODE04\FOpt\RB3LYP\6-31G(d,p)\C84Cl12\MKLIU\29-Jun-2022\0\\#P
  opt b3lyp/6-31G(d, p) empiricaldispersion=GD3\\force\\0,1\C,8.4945374
 321,18.8941008499,10.7455194803\C,12.615438465,19.9895705024,8.8720492
 644\C,8.2641635556,26.8680157532,10.5194797755\C,12.4886335049,25.7650
 285804,8.9217091225\C,8.0274654987,19.1375896974,9.4355712853\C,12.086
 4683718,19.4894754401,10.1939635585\C,7.9540211865,26.8318901421,9.098
 553179\C,11.8866642779,26.2235956941,10.2346837796\C,9.0005142597,19.2
 403816989,8.3534930918\C,12.3419660858,20.1150845026,11.3778206553\C,1
 2.1416326191,25.5544546929,11.4134017186\C,8.9606279137,26.6528926475,
 8.1172566406\C,10.3732211487,19.085423042,8.6681430023\C,10.3116860218
 ,26.6880933036,8.589893297\C,10.8201650831,18.8582536876,9.995193054\C
 ,10.6305586343,26.8116585601,10.0087990521\C,9.8787475241,18.793820353
 8,11.0347823964\C,9.60471945,26.7858268896,10.9900360098\C,10.17445580
 45,19.4015590309,12.2892559479\C,9.8579602439,26.0659460204,12.2131718
 333\C,8.8964039719,19.8319354742,12.9703472137\C,8.7535623564,25.44361
 8823,12.8594064705\C,7.8584043974,19.5246242809,11.8964937729\C,7.4437
 900162,25.5761965772,12.3834158686\C,6.7111256493,20.1989390978,11.788
 0231688\C,7.1951037241,26.2902864561,11.225532337\C,5.9242455783,20.18
 63084186,10.5051863895\C,6.0543714777,25.9384461936,10.2842051638\C,6.
 7388011556,19.7754959114,9.2899509552\C,6.6585303413,26.2937465132,8.9
 410186647\C,6.4146134728,20.3498067457,8.09133122\C,6.3489879585,25.61
 38098262,7.7965176088\C,7.3411974507,20.4009374976,7.0022516705\C,7.31
 16048256,25.4644148279,6.7659875046\C,8.6812581201,19.9553509706,7.145
 8473241\C,8.6613452952,25.9118176216,6.9188274396\C,9.7288207864,20.62
 86113382,6.3819991626\C,9.7254784269,25.1721745867,6.2492938427\C,11.0
 920492202,20.5856069813,6.8804628943\C,12.7891967656,22.1870790552,7.7
 704735539\C,12.7122826808,23.5847876355,7.7897592997\C,11.0630725581,2
 5.1912534857,6.8162624223\C,11.389774708,19.7983092393,7.9565711117\C,
 12.9734099888,21.4672786979,8.9405669977\C,12.8724253094,24.2989055818
 ,8.9763143773\C,11.3309764093,26.0048283636,7.9457516343\C,13.15233297
 98,22.1665680496,10.1635601072\C,13.1055496585,23.5874868098,10.174346
 0463\C,13.1808052791,21.3766133731,11.4790061852\C,13.0792441508,24.35
 41464901,11.4984148025\C,12.4350268148,22.1386715302,12.5621575773\C,1
 2.3985093382,23.5189020905,12.5624995344\C,11.3476057987,20.1015392207
 ,12.4182381577\C,11.1276551134,25.4531851343,12.3867724346\C,11.364909
 4409,21.389932283,13.0773758537\C,11.2690040328,24.1754559872,13.06380
 47639\C,8.888459561,21.3124337955,13.3300001663\C,8.8899212791,24.1240
 100579,13.4633231935\C,7.6815719921,22.0297428041,13.2221978562\C,7.68
 78981111,23.4267747951,13.338261083\C,6.4234198483,21.4172298501,12.61
 94739055\C,6.6173580798,24.3645878983,12.7658732597\C,5.8584310556,22.
 3450725896,11.5501307877\C,5.9794926111,23.7344008947,11.5427258628\C,
 5.5515109659,21.6530904657,10.3844362223\C,5.7460052677,24.4373939756,
 10.3411292885\C,5.3452209946,22.3202191147,9.1786215331\C,5.4204680934
 ,23.728059891,9.1535726562\C,5.3669299089,21.4621754551,7.9212799158\C
 ,5.3608802458,24.4586058519,7.8030955164\C,5.9186212474,22.227658563,6
 .7438120591\C,5.9082776291,23.5889582169,6.6855060735\C,7.002560971,21
 .4918875631,6.155446922\C,6.9939423366,24.271939951,6.0311907411\C,8.0
 076419869,22.136714813,5.4318026704\C,8.0011021955,23.5775002483,5.385
 275492\C,9.3584998793,21.6891877073,5.5170827416\C,9.3651689435,24.037
 9654123,5.4658191571\C,12.1090883171,21.6515273932,6.5096038702\C,11.8
 86713273,24.0434508242,6.666948262\C,10.2026503872,22.8776262403,5.403
 7611364\C,11.4582892136,22.9083067461,5.9763290157\C,10.1365075693,22.
 0127087363,13.4838376903\C,10.1312797354,23.4500879231,13.5240945119\C
 l,14.0557522718,18.991069554,8.3091288381\Cl,14.9267768604,21.00736463
 29,11.9459827982\Cl,14.7828028776,24.8649290507,11.9679199681\Cl,13.32
 79558112,20.993101345,5.283397711\Cl,4.5386506353,26.9052718928,10.667
 9823538\Cl,3.6328173186,25.0044630654,7.4757126917\Cl,13.9643893063,26
 .7841074961,8.4618189198\Cl,3.6891330072,20.8018695574,7.5523520962\Cl
 ,4.4217255195,19.1015267398,10.6841286071\Cl,5.3347414995,24.801760815
 1,14.0101939276\Cl,5.1815032872,21.0918832448,13.9508140668\Cl,8.58183
 83517,18.8190930431,14.5012659815\\Version=ES64L-G16RevA.03\State=1-A\
 HF=-8723.427469\RMSD=8.674e-09\RMSF=7.836e-05\Dipole=0.3748206,1.06625
 82,-0.7961304\Quadrupole=-25.4774299,14.0906356,11.3867944,-1.3586839,
 8.8520763,4.7407359\PG=C01 [X(C84Cl12)]\\@


 FROM AN ANONYMOUS WRITER, ON PERSPECTIVE:

 MAN, DESPITE HIS ARTISTIC PRETENSIONS, HIS SOPHISTICATION AND MANY 
 ACCOMPLISHMENTS, OWES THE FACT OF HIS EXISTENCE TO A SIX-INCH LAYER OF 
 TOPSOIL AND THE FACT THAT IT RAINS.
 Job cpu time:       1 days  6 hours 52 minutes 16.0 seconds.
 Elapsed time:       0 days  1 hours 17 minutes 17.1 seconds.
 File lengths (MBytes):  RWF=   1359 Int=      0 D2E=      0 Chk=    170 Scr=      1
 Normal termination of Gaussian 16 at Wed Jun 29 17:02:35 2022.
