 Entering Gaussian System, Link 0=g16
 Input=12_addons_C84_11_Cl22_rank_3.gjf
 Output=12_addons_C84_11_Cl22_rank_3.log
 Initial command:
 /home/mkliu/g16/l1.exe "/data/scratch/Gau-187549.inp" -scrdir="/data/scratch/"
 Entering Link 1 = /home/mkliu/g16/l1.exe PID=    187550.
  
 Copyright (c) 1988,1990,1992,1993,1995,1998,2003,2009,2016,
            Gaussian, Inc.  All Rights Reserved.
  
 This is part of the Gaussian(R) 16 program.  It is based on
 the Gaussian(R) 09 system (copyright 2009, Gaussian, Inc.),
 the Gaussian(R) 03 system (copyright 2003, Gaussian, Inc.),
 the Gaussian(R) 98 system (copyright 1998, Gaussian, Inc.),
 the Gaussian(R) 94 system (copyright 1995, Gaussian, Inc.),
 the Gaussian 92(TM) system (copyright 1992, Gaussian, Inc.),
 the Gaussian 90(TM) system (copyright 1990, Gaussian, Inc.),
 the Gaussian 88(TM) system (copyright 1988, Gaussian, Inc.),
 the Gaussian 86(TM) system (copyright 1986, Carnegie Mellon
 University), and the Gaussian 82(TM) system (copyright 1983,
 Carnegie Mellon University). Gaussian is a federally registered
 trademark of Gaussian, Inc.
  
 This software contains proprietary and confidential information,
 including trade secrets, belonging to Gaussian, Inc.
  
 This software is provided under written license and may be
 used, copied, transmitted, or stored only in accord with that
 written license.
  
 The following legend is applicable only to US Government
 contracts under FAR:
  
                    RESTRICTED RIGHTS LEGEND
  
 Use, reproduction and disclosure by the US Government is
 subject to restrictions as set forth in subparagraphs (a)
 and (c) of the Commercial Computer Software - Restricted
 Rights clause in FAR 52.227-19.
  
 Gaussian, Inc.
 340 Quinnipiac St., Bldg. 40, Wallingford CT 06492
  
  
 ---------------------------------------------------------------
 Warning -- This program may not be used in any manner that
 competes with the business of Gaussian, Inc. or will provide
 assistance to any competitor of Gaussian, Inc.  The licensee
 of this program is prohibited from giving any competitor of
 Gaussian, Inc. access to this program.  By using this program,
 the user acknowledges that Gaussian, Inc. is engaged in the
 business of creating and licensing software in the field of
 computational chemistry and represents and warrants to the
 licensee that it is not a competitor of Gaussian, Inc. and that
 it will not use this program in any manner prohibited above.
 ---------------------------------------------------------------
  

 Cite this work as:
 Gaussian 16, Revision A.03,
 M. J. Frisch, G. W. Trucks, H. B. Schlegel, G. E. Scuseria, 
 M. A. Robb, J. R. Cheeseman, G. Scalmani, V. Barone, 
 G. A. Petersson, H. Nakatsuji, X. Li, M. Caricato, A. V. Marenich, 
 J. Bloino, B. G. Janesko, R. Gomperts, B. Mennucci, H. P. Hratchian, 
 J. V. Ortiz, A. F. Izmaylov, J. L. Sonnenberg, D. Williams-Young, 
 F. Ding, F. Lipparini, F. Egidi, J. Goings, B. Peng, A. Petrone, 
 T. Henderson, D. Ranasinghe, V. G. Zakrzewski, J. Gao, N. Rega, 
 G. Zheng, W. Liang, M. Hada, M. Ehara, K. Toyota, R. Fukuda, 
 J. Hasegawa, M. Ishida, T. Nakajima, Y. Honda, O. Kitao, H. Nakai, 
 T. Vreven, K. Throssell, J. A. Montgomery, Jr., J. E. Peralta, 
 F. Ogliaro, M. J. Bearpark, J. J. Heyd, E. N. Brothers, K. N. Kudin, 
 V. N. Staroverov, T. A. Keith, R. Kobayashi, J. Normand, 
 K. Raghavachari, A. P. Rendell, J. C. Burant, S. S. Iyengar, 
 J. Tomasi, M. Cossi, J. M. Millam, M. Klene, C. Adamo, R. Cammi, 
 J. W. Ochterski, R. L. Martin, K. Morokuma, O. Farkas, 
 J. B. Foresman, and D. J. Fox, Gaussian, Inc., Wallingford CT, 2016.
 
 ******************************************
 Gaussian 16:  ES64L-G16RevA.03 25-Dec-2016
                29-Jun-2022 
 ******************************************
 %mem=10GB
 %chk=12_addons_C84_11_Cl22_rank_3.chk
 %nprocshared=24
 Will use up to   24 processors via shared memory.
 ------------------------------------------------
 #P opt b3lyp/6-31G(d, p) empiricaldispersion=GD3
 ------------------------------------------------
 1/18=20,19=15,26=3,38=1/1,3;
 2/9=110,12=2,17=6,18=5,40=1/2;
 3/5=1,6=6,7=101,11=2,25=1,30=1,71=1,74=-5,124=31/1,2,3;
 4//1;
 5/5=2,38=5/2;
 6/7=2,8=2,9=2,10=2,28=1/1;
 7//1,2,3,16;
 1/18=20,19=15,26=3/3(2);
 2/9=110/2;
 99//99;
 2/9=110/2;
 3/5=1,6=6,7=101,11=2,25=1,30=1,71=1,74=-5,124=31/1,2,3;
 4/5=5,16=3,69=1/1;
 5/5=2,38=5/2;
 7//1,2,3,16;
 1/18=20,19=15,26=3/3(-5);
 2/9=110/2;
 6/7=2,8=2,9=2,10=2,19=2,28=1/1;
 99/9=1/99;
 Leave Link    1 at Wed Jun 29 18:04:24 2022, MaxMem=  1342177280 cpu:               1.4 elap:               0.1
 (Enter /home/mkliu/g16/l101.exe)
 -----
 force
 -----
 Symbolic Z-matrix:
 Charge =  0 Multiplicity = 1
 C                     8.48319   18.88165   10.76851 
 C                     12.56143   19.98325   8.88721 
 C                     8.26151   26.85004   10.55546 
 C                     12.45386   25.72874   8.92763 
 C                     8.0073    19.09282   9.4617 
 C                     12.05935   19.49059   10.21066 
 C                     7.86638   27.08568   9.11335 
 C                     11.88271   26.19023   10.23411 
 C                     8.97194   19.20682   8.38654 
 C                     12.32886   20.12991   11.37994 
 C                     12.10023   25.50618   11.3614 
 C                     8.93342   26.54336   8.19298 
 C                     10.33431   19.07597   8.70154 
 C                     10.23503   26.58816   8.65946 
 C                     10.79535   18.84736   10.02904 
 C                     10.65737   27.03829   10.03262 
 C                     9.87144   18.76796   11.05534 
 C                     9.55255   26.76131   11.01227 
 C                     10.1459   19.43995   12.29201 
 C                     9.8171    26.00639   12.19637 
 C                     8.93762   19.98581   12.7917 
 C                     8.73935   25.37389   12.85628 
 C                     7.88022   19.52217   11.90783 
 C                     7.4172    25.49059   12.3811 
 C                     6.72464   20.22537   11.76976 
 C                     7.1996    26.17391   11.21971 
 C                     6.14613   20.34909   10.48286 
 C                     6.2562    25.69176   10.23604 
 C                     6.74706   19.76957   9.33953 
 C                     6.63923   26.22758   8.99656 
 C                     6.40886   20.35767   8.11247 
 C                     6.34352   25.55201   7.84544 
 C                     7.32757   20.35191   7.00524 
 C                     7.2038    25.62762   6.61092 
 C                     8.65496   19.92476   7.18059 
 C                     8.65235   25.79621   7.03746 
 C                     9.69208   20.61333   6.44837 
 C                     9.67495   25.07457   6.40319 
 C                     11.04279   20.57058   6.9231 
 C                     12.67455   22.17395   7.78974 
 C                     12.66023   23.56089   7.78929 
 C                     10.97816   25.0961   6.91922 
 C                     11.34576   19.78708   7.99719 
 C                     12.87512   21.45659   8.95627 
 C                     12.83008   24.2691   8.9675 
 C                     11.24564   25.87029   8.03442 
 C                     13.0928   22.15553   10.15117 
 C                     13.06015   23.56072   10.15273 
 C                     13.15787   21.38488   11.46114 
 C                     13.04304   24.33271   11.45685 
 C                     12.4229   22.15881   12.5232 
 C                     12.37756   23.50763   12.51588 
 C                     11.34297   20.1362   12.41882 
 C                     11.08036   25.40681   12.37972 
 C                     11.33055   21.4006   13.05142 
 C                     11.22692   24.17293   13.03375 
 C                     8.88302   21.28467   13.3294 
 C                     8.87867   24.09529   13.46577 
 C                     7.64502   22.02239   13.22192 
 C                     7.65406   23.38155   13.3314 
 C                     6.39955   21.40753   12.63108 
 C                     6.58575   24.3106   12.78554 
 C                     5.76153   22.33357   11.61319 
 C                     5.8824    23.6917   11.6048 
 C                     5.50744   21.61678   10.40923 
 C                     5.67374   24.41499   10.37178 
 C                     5.28968   22.2738   9.18728 
 C                     5.35318   23.70923   9.16689 
 C                     5.61322   21.52971   8.02844 
 C                     5.65173   24.33081   7.92849 
 C                     5.95274   22.1907   6.80257 
 C                     5.97726   23.56802   6.75638 
 C                     6.99572   21.45002   6.16961 
 C                     6.9804    24.26683   6.01241 
 C                     8.00373   22.13873   5.50137 
 C                     7.97366   23.56668   5.40206 
 C                     9.33581   21.6911   5.61366 
 C                     9.37142   24.09812   5.28256 
 C                     12.05058   21.61963   6.53744 
 C                     12.04201   24.10436   6.52556 
 C                     10.19501   22.84547   5.47226 
 C                     11.43599   22.85778   5.9615 
 C                     10.12642   22.00468   13.47873 
 C                     10.1096   23.43368   13.51514 
 Cl                    13.84777   26.72044   8.3602 
 Cl                    13.25618   24.87756   5.4418 
 Cl                    9.69708   24.90442   3.70517 
 Cl                    6.76046   26.97944   5.50714 
 Cl                    14.72016   24.83444   11.87418 
 Cl                    14.8855   21.07207   11.86118 
 Cl                    7.57389   28.82636   8.75787 
 Cl                    11.07318   28.80529   10.03553 
 Cl                    5.2355    20.98982   13.95553 
 Cl                    5.37432   24.73763   14.0651 
 Cl                    14.00208   19.07474   8.29891 
 Cl                    13.29583   20.91685   5.42157 
 
 ITRead=  0  0  0  0  0  0  0  0  0  0  0  0  0  0  0  0  0  0  0  0
 ITRead=  0  0  0  0  0  0  0  0  0  0  0  0  0  0  0  0  0  0  0  0
 ITRead=  0  0  0  0  0  0  0  0  0  0  0  0  0  0  0  0  0  0  0  0
 ITRead=  0  0  0  0  0  0  0  0  0  0  0  0  0  0  0  0  0  0  0  0
 ITRead=  0  0  0  0  0  0  0  0  0  0  0  0  0  0  0  0
 MicOpt= -1 -1 -1 -1 -1 -1 -1 -1 -1 -1 -1 -1 -1 -1 -1 -1 -1 -1 -1 -1
 MicOpt= -1 -1 -1 -1 -1 -1 -1 -1 -1 -1 -1 -1 -1 -1 -1 -1 -1 -1 -1 -1
 MicOpt= -1 -1 -1 -1 -1 -1 -1 -1 -1 -1 -1 -1 -1 -1 -1 -1 -1 -1 -1 -1
 MicOpt= -1 -1 -1 -1 -1 -1 -1 -1 -1 -1 -1 -1 -1 -1 -1 -1 -1 -1 -1 -1
 MicOpt= -1 -1 -1 -1 -1 -1 -1 -1 -1 -1 -1 -1 -1 -1 -1 -1
 NAtoms=     96 NQM=       96 NQMF=       0 NMMI=      0 NMMIF=      0
                NMic=       0 NMicF=      0.
                    Isotopes and Nuclear Properties:
 (Nuclear quadrupole moments (NQMom) in fm**2, nuclear magnetic moments (NMagM)
  in nuclear magnetons)

  Atom         1           2           3           4           5           6           7           8           9          10
 IAtWgt=          12          12          12          12          12          12          12          12          12          12
 AtmWgt=  12.0000000  12.0000000  12.0000000  12.0000000  12.0000000  12.0000000  12.0000000  12.0000000  12.0000000  12.0000000
 NucSpn=           0           0           0           0           0           0           0           0           0           0
 AtZEff=  -0.0000000  -0.0000000  -0.0000000  -0.0000000  -0.0000000  -0.0000000  -0.0000000  -0.0000000  -0.0000000  -0.0000000
 NQMom=    0.0000000   0.0000000   0.0000000   0.0000000   0.0000000   0.0000000   0.0000000   0.0000000   0.0000000   0.0000000
 NMagM=    0.0000000   0.0000000   0.0000000   0.0000000   0.0000000   0.0000000   0.0000000   0.0000000   0.0000000   0.0000000
 AtZNuc=   6.0000000   6.0000000   6.0000000   6.0000000   6.0000000   6.0000000   6.0000000   6.0000000   6.0000000   6.0000000

  Atom        11          12          13          14          15          16          17          18          19          20
 IAtWgt=          12          12          12          12          12          12          12          12          12          12
 AtmWgt=  12.0000000  12.0000000  12.0000000  12.0000000  12.0000000  12.0000000  12.0000000  12.0000000  12.0000000  12.0000000
 NucSpn=           0           0           0           0           0           0           0           0           0           0
 AtZEff=  -0.0000000  -0.0000000  -0.0000000  -0.0000000  -0.0000000  -0.0000000  -0.0000000  -0.0000000  -0.0000000  -0.0000000
 NQMom=    0.0000000   0.0000000   0.0000000   0.0000000   0.0000000   0.0000000   0.0000000   0.0000000   0.0000000   0.0000000
 NMagM=    0.0000000   0.0000000   0.0000000   0.0000000   0.0000000   0.0000000   0.0000000   0.0000000   0.0000000   0.0000000
 AtZNuc=   6.0000000   6.0000000   6.0000000   6.0000000   6.0000000   6.0000000   6.0000000   6.0000000   6.0000000   6.0000000

  Atom        21          22          23          24          25          26          27          28          29          30
 IAtWgt=          12          12          12          12          12          12          12          12          12          12
 AtmWgt=  12.0000000  12.0000000  12.0000000  12.0000000  12.0000000  12.0000000  12.0000000  12.0000000  12.0000000  12.0000000
 NucSpn=           0           0           0           0           0           0           0           0           0           0
 AtZEff=  -0.0000000  -0.0000000  -0.0000000  -0.0000000  -0.0000000  -0.0000000  -0.0000000  -0.0000000  -0.0000000  -0.0000000
 NQMom=    0.0000000   0.0000000   0.0000000   0.0000000   0.0000000   0.0000000   0.0000000   0.0000000   0.0000000   0.0000000
 NMagM=    0.0000000   0.0000000   0.0000000   0.0000000   0.0000000   0.0000000   0.0000000   0.0000000   0.0000000   0.0000000
 AtZNuc=   6.0000000   6.0000000   6.0000000   6.0000000   6.0000000   6.0000000   6.0000000   6.0000000   6.0000000   6.0000000

  Atom        31          32          33          34          35          36          37          38          39          40
 IAtWgt=          12          12          12          12          12          12          12          12          12          12
 AtmWgt=  12.0000000  12.0000000  12.0000000  12.0000000  12.0000000  12.0000000  12.0000000  12.0000000  12.0000000  12.0000000
 NucSpn=           0           0           0           0           0           0           0           0           0           0
 AtZEff=  -0.0000000  -0.0000000  -0.0000000  -0.0000000  -0.0000000  -0.0000000  -0.0000000  -0.0000000  -0.0000000  -0.0000000
 NQMom=    0.0000000   0.0000000   0.0000000   0.0000000   0.0000000   0.0000000   0.0000000   0.0000000   0.0000000   0.0000000
 NMagM=    0.0000000   0.0000000   0.0000000   0.0000000   0.0000000   0.0000000   0.0000000   0.0000000   0.0000000   0.0000000
 AtZNuc=   6.0000000   6.0000000   6.0000000   6.0000000   6.0000000   6.0000000   6.0000000   6.0000000   6.0000000   6.0000000

  Atom        41          42          43          44          45          46          47          48          49          50
 IAtWgt=          12          12          12          12          12          12          12          12          12          12
 AtmWgt=  12.0000000  12.0000000  12.0000000  12.0000000  12.0000000  12.0000000  12.0000000  12.0000000  12.0000000  12.0000000
 NucSpn=           0           0           0           0           0           0           0           0           0           0
 AtZEff=  -0.0000000  -0.0000000  -0.0000000  -0.0000000  -0.0000000  -0.0000000  -0.0000000  -0.0000000  -0.0000000  -0.0000000
 NQMom=    0.0000000   0.0000000   0.0000000   0.0000000   0.0000000   0.0000000   0.0000000   0.0000000   0.0000000   0.0000000
 NMagM=    0.0000000   0.0000000   0.0000000   0.0000000   0.0000000   0.0000000   0.0000000   0.0000000   0.0000000   0.0000000
 AtZNuc=   6.0000000   6.0000000   6.0000000   6.0000000   6.0000000   6.0000000   6.0000000   6.0000000   6.0000000   6.0000000

  Atom        51          52          53          54          55          56          57          58          59          60
 IAtWgt=          12          12          12          12          12          12          12          12          12          12
 AtmWgt=  12.0000000  12.0000000  12.0000000  12.0000000  12.0000000  12.0000000  12.0000000  12.0000000  12.0000000  12.0000000
 NucSpn=           0           0           0           0           0           0           0           0           0           0
 AtZEff=  -0.0000000  -0.0000000  -0.0000000  -0.0000000  -0.0000000  -0.0000000  -0.0000000  -0.0000000  -0.0000000  -0.0000000
 NQMom=    0.0000000   0.0000000   0.0000000   0.0000000   0.0000000   0.0000000   0.0000000   0.0000000   0.0000000   0.0000000
 NMagM=    0.0000000   0.0000000   0.0000000   0.0000000   0.0000000   0.0000000   0.0000000   0.0000000   0.0000000   0.0000000
 AtZNuc=   6.0000000   6.0000000   6.0000000   6.0000000   6.0000000   6.0000000   6.0000000   6.0000000   6.0000000   6.0000000

  Atom        61          62          63          64          65          66          67          68          69          70
 IAtWgt=          12          12          12          12          12          12          12          12          12          12
 AtmWgt=  12.0000000  12.0000000  12.0000000  12.0000000  12.0000000  12.0000000  12.0000000  12.0000000  12.0000000  12.0000000
 NucSpn=           0           0           0           0           0           0           0           0           0           0
 AtZEff=  -0.0000000  -0.0000000  -0.0000000  -0.0000000  -0.0000000  -0.0000000  -0.0000000  -0.0000000  -0.0000000  -0.0000000
 NQMom=    0.0000000   0.0000000   0.0000000   0.0000000   0.0000000   0.0000000   0.0000000   0.0000000   0.0000000   0.0000000
 NMagM=    0.0000000   0.0000000   0.0000000   0.0000000   0.0000000   0.0000000   0.0000000   0.0000000   0.0000000   0.0000000
 AtZNuc=   6.0000000   6.0000000   6.0000000   6.0000000   6.0000000   6.0000000   6.0000000   6.0000000   6.0000000   6.0000000

  Atom        71          72          73          74          75          76          77          78          79          80
 IAtWgt=          12          12          12          12          12          12          12          12          12          12
 AtmWgt=  12.0000000  12.0000000  12.0000000  12.0000000  12.0000000  12.0000000  12.0000000  12.0000000  12.0000000  12.0000000
 NucSpn=           0           0           0           0           0           0           0           0           0           0
 AtZEff=  -0.0000000  -0.0000000  -0.0000000  -0.0000000  -0.0000000  -0.0000000  -0.0000000  -0.0000000  -0.0000000  -0.0000000
 NQMom=    0.0000000   0.0000000   0.0000000   0.0000000   0.0000000   0.0000000   0.0000000   0.0000000   0.0000000   0.0000000
 NMagM=    0.0000000   0.0000000   0.0000000   0.0000000   0.0000000   0.0000000   0.0000000   0.0000000   0.0000000   0.0000000
 AtZNuc=   6.0000000   6.0000000   6.0000000   6.0000000   6.0000000   6.0000000   6.0000000   6.0000000   6.0000000   6.0000000

  Atom        81          82          83          84          85          86          87          88          89          90
 IAtWgt=          12          12          12          12          35          35          35          35          35          35
 AtmWgt=  12.0000000  12.0000000  12.0000000  12.0000000  34.9688527  34.9688527  34.9688527  34.9688527  34.9688527  34.9688527
 NucSpn=           0           0           0           0           3           3           3           3           3           3
 AtZEff=  -0.0000000  -0.0000000  -0.0000000  -0.0000000  -0.0000000  -0.0000000  -0.0000000  -0.0000000  -0.0000000  -0.0000000
 NQMom=    0.0000000   0.0000000   0.0000000   0.0000000  -8.1650000  -8.1650000  -8.1650000  -8.1650000  -8.1650000  -8.1650000
 NMagM=    0.0000000   0.0000000   0.0000000   0.0000000   0.8218740   0.8218740   0.8218740   0.8218740   0.8218740   0.8218740
 AtZNuc=   6.0000000   6.0000000   6.0000000   6.0000000  17.0000000  17.0000000  17.0000000  17.0000000  17.0000000  17.0000000

  Atom        91          92          93          94          95          96
 IAtWgt=          35          35          35          35          35          35
 AtmWgt=  34.9688527  34.9688527  34.9688527  34.9688527  34.9688527  34.9688527
 NucSpn=           3           3           3           3           3           3
 AtZEff=  -0.0000000  -0.0000000  -0.0000000  -0.0000000  -0.0000000  -0.0000000
 NQMom=   -8.1650000  -8.1650000  -8.1650000  -8.1650000  -8.1650000  -8.1650000
 NMagM=    0.8218740   0.8218740   0.8218740   0.8218740   0.8218740   0.8218740
 AtZNuc=  17.0000000  17.0000000  17.0000000  17.0000000  17.0000000  17.0000000
 Leave Link  101 at Wed Jun 29 18:04:24 2022, MaxMem=  1342177280 cpu:               7.7 elap:               0.4
 (Enter /home/mkliu/g16/l103.exe)

 GradGradGradGradGradGradGradGradGradGradGradGradGradGradGradGradGradGrad
 Berny optimization.
 Initialization pass.
                           ----------------------------
                           !    Initial Parameters    !
                           ! (Angstroms and Degrees)  !
 --------------------------                            --------------------------
 ! Name  Definition              Value          Derivative Info.                !
 --------------------------------------------------------------------------------
 ! R1    R(1,5)                  1.4067         estimate D2E/DX2                !
 ! R2    R(1,17)                 1.4221         estimate D2E/DX2                !
 ! R3    R(1,23)                 1.4394         estimate D2E/DX2                !
 ! R4    R(2,6)                  1.4988         estimate D2E/DX2                !
 ! R5    R(2,43)                 1.5194         estimate D2E/DX2                !
 ! R6    R(2,44)                 1.5079         estimate D2E/DX2                !
 ! R7    R(2,95)                 1.8019         estimate D2E/DX2                !
 ! R8    R(3,7)                  1.5137         estimate D2E/DX2                !
 ! R9    R(3,18)                 1.3723         estimate D2E/DX2                !
 ! R10   R(3,26)                 1.4234         estimate D2E/DX2                !
 ! R11   R(4,8)                  1.4987         estimate D2E/DX2                !
 ! R12   R(4,45)                 1.5079         estimate D2E/DX2                !
 ! R13   R(4,46)                 1.5092         estimate D2E/DX2                !
 ! R14   R(4,85)                 1.8023         estimate D2E/DX2                !
 ! R15   R(5,9)                  1.449          estimate D2E/DX2                !
 ! R16   R(5,29)                 1.4357         estimate D2E/DX2                !
 ! R17   R(6,10)                 1.3596         estimate D2E/DX2                !
 ! R18   R(6,15)                 1.4298         estimate D2E/DX2                !
 ! R19   R(7,12)                 1.5099         estimate D2E/DX2                !
 ! R20   R(7,30)                 1.5019         estimate D2E/DX2                !
 ! R21   R(7,91)                 1.8005         estimate D2E/DX2                !
 ! R22   R(8,11)                 1.3364         estimate D2E/DX2                !
 ! R23   R(8,16)                 1.5037         estimate D2E/DX2                !
 ! R24   R(9,13)                 1.4044         estimate D2E/DX2                !
 ! R25   R(9,35)                 1.4388         estimate D2E/DX2                !
 ! R26   R(10,49)                1.5063         estimate D2E/DX2                !
 ! R27   R(10,53)                1.4322         estimate D2E/DX2                !
 ! R28   R(11,50)                1.5083         estimate D2E/DX2                !
 ! R29   R(11,54)                1.4446         estimate D2E/DX2                !
 ! R30   R(12,14)                1.3834         estimate D2E/DX2                !
 ! R31   R(12,36)                1.4044         estimate D2E/DX2                !
 ! R32   R(13,15)                1.4238         estimate D2E/DX2                !
 ! R33   R(13,43)                1.423          estimate D2E/DX2                !
 ! R34   R(14,16)                1.5055         estimate D2E/DX2                !
 ! R35   R(14,46)                1.3883         estimate D2E/DX2                !
 ! R36   R(15,17)                1.3832         estimate D2E/DX2                !
 ! R37   R(16,18)                1.5023         estimate D2E/DX2                !
 ! R38   R(16,92)                1.8153         estimate D2E/DX2                !
 ! R39   R(17,19)                1.434          estimate D2E/DX2                !
 ! R40   R(18,20)                1.429          estimate D2E/DX2                !
 ! R41   R(19,21)                1.4169         estimate D2E/DX2                !
 ! R42   R(19,53)                1.3906         estimate D2E/DX2                !
 ! R43   R(20,22)                1.4132         estimate D2E/DX2                !
 ! R44   R(20,54)                1.4103         estimate D2E/DX2                !
 ! R45   R(21,23)                1.4541         estimate D2E/DX2                !
 ! R46   R(21,57)                1.4068         estimate D2E/DX2                !
 ! R47   R(22,24)                1.4098         estimate D2E/DX2                !
 ! R48   R(22,58)                1.4233         estimate D2E/DX2                !
 ! R49   R(23,25)                1.3598         estimate D2E/DX2                !
 ! R50   R(24,26)                1.365          estimate D2E/DX2                !
 ! R51   R(24,62)                1.4991         estimate D2E/DX2                !
 ! R52   R(25,27)                1.4164         estimate D2E/DX2                !
 ! R53   R(25,61)                1.4983         estimate D2E/DX2                !
 ! R54   R(26,28)                1.4457         estimate D2E/DX2                !
 ! R55   R(27,29)                1.4157         estimate D2E/DX2                !
 ! R56   R(27,65)                1.4214         estimate D2E/DX2                !
 ! R57   R(28,30)                1.4036         estimate D2E/DX2                !
 ! R58   R(28,66)                1.4099         estimate D2E/DX2                !
 ! R59   R(29,31)                1.4021         estimate D2E/DX2                !
 ! R60   R(30,32)                1.3671         estimate D2E/DX2                !
 ! R61   R(31,33)                1.4388         estimate D2E/DX2                !
 ! R62   R(31,69)                1.4191         estimate D2E/DX2                !
 ! R63   R(32,34)                1.5066         estimate D2E/DX2                !
 ! R64   R(32,70)                1.406          estimate D2E/DX2                !
 ! R65   R(33,35)                1.4054         estimate D2E/DX2                !
 ! R66   R(33,73)                1.4192         estimate D2E/DX2                !
 ! R67   R(34,36)                1.5194         estimate D2E/DX2                !
 ! R68   R(34,74)                1.5033         estimate D2E/DX2                !
 ! R69   R(34,88)                1.8006         estimate D2E/DX2                !
 ! R70   R(35,37)                1.4443         estimate D2E/DX2                !
 ! R71   R(36,38)                1.4031         estimate D2E/DX2                !
 ! R72   R(37,39)                1.4323         estimate D2E/DX2                !
 ! R73   R(37,77)                1.409          estimate D2E/DX2                !
 ! R74   R(38,42)                1.4018         estimate D2E/DX2                !
 ! R75   R(38,78)                1.517          estimate D2E/DX2                !
 ! R76   R(39,43)                1.3636         estimate D2E/DX2                !
 ! R77   R(39,79)                1.5049         estimate D2E/DX2                !
 ! R78   R(40,41)                1.387          estimate D2E/DX2                !
 ! R79   R(40,44)                1.3841         estimate D2E/DX2                !
 ! R80   R(40,79)                1.5049         estimate D2E/DX2                !
 ! R81   R(41,45)                1.3851         estimate D2E/DX2                !
 ! R82   R(41,80)                1.5082         estimate D2E/DX2                !
 ! R83   R(42,46)                1.3837         estimate D2E/DX2                !
 ! R84   R(42,80)                1.5067         estimate D2E/DX2                !
 ! R85   R(44,47)                1.4013         estimate D2E/DX2                !
 ! R86   R(45,48)                1.3998         estimate D2E/DX2                !
 ! R87   R(47,48)                1.4056         estimate D2E/DX2                !
 ! R88   R(47,49)                1.5212         estimate D2E/DX2                !
 ! R89   R(48,50)                1.5156         estimate D2E/DX2                !
 ! R90   R(49,51)                1.5057         estimate D2E/DX2                !
 ! R91   R(49,90)                1.8007         estimate D2E/DX2                !
 ! R92   R(50,52)                1.4984         estimate D2E/DX2                !
 ! R93   R(50,89)                1.7996         estimate D2E/DX2                !
 ! R94   R(51,52)                1.3496         estimate D2E/DX2                !
 ! R95   R(51,55)                1.4308         estimate D2E/DX2                !
 ! R96   R(52,56)                1.4265         estimate D2E/DX2                !
 ! R97   R(53,55)                1.4139         estimate D2E/DX2                !
 ! R98   R(54,56)                1.4042         estimate D2E/DX2                !
 ! R99   R(55,83)                1.4133         estimate D2E/DX2                !
 ! R100  R(56,84)                1.4236         estimate D2E/DX2                !
 ! R101  R(57,59)                1.4451         estimate D2E/DX2                !
 ! R102  R(57,83)                1.4446         estimate D2E/DX2                !
 ! R103  R(58,60)                1.4238         estimate D2E/DX2                !
 ! R104  R(58,84)                1.3983         estimate D2E/DX2                !
 ! R105  R(59,60)                1.3636         estimate D2E/DX2                !
 ! R106  R(59,61)                1.5094         estimate D2E/DX2                !
 ! R107  R(60,62)                1.5174         estimate D2E/DX2                !
 ! R108  R(61,63)                1.5168         estimate D2E/DX2                !
 ! R109  R(61,93)                1.8121         estimate D2E/DX2                !
 ! R110  R(62,64)                1.5073         estimate D2E/DX2                !
 ! R111  R(62,94)                1.8131         estimate D2E/DX2                !
 ! R112  R(63,64)                1.3635         estimate D2E/DX2                !
 ! R113  R(63,65)                1.424          estimate D2E/DX2                !
 ! R114  R(64,66)                1.4447         estimate D2E/DX2                !
 ! R115  R(65,67)                1.4044         estimate D2E/DX2                !
 ! R116  R(66,68)                1.4327         estimate D2E/DX2                !
 ! R117  R(67,68)                1.437          estimate D2E/DX2                !
 ! R118  R(67,69)                1.4147         estimate D2E/DX2                !
 ! R119  R(68,70)                1.4174         estimate D2E/DX2                !
 ! R120  R(69,71)                1.4335         estimate D2E/DX2                !
 ! R121  R(70,72)                1.4358         estimate D2E/DX2                !
 ! R122  R(71,72)                1.3783         estimate D2E/DX2                !
 ! R123  R(71,73)                1.4273         estimate D2E/DX2                !
 ! R124  R(72,74)                1.4311         estimate D2E/DX2                !
 ! R125  R(73,75)                1.3917         estimate D2E/DX2                !
 ! R126  R(74,76)                1.3599         estimate D2E/DX2                !
 ! R127  R(75,76)                1.4317         estimate D2E/DX2                !
 ! R128  R(75,77)                1.4098         estimate D2E/DX2                !
 ! R129  R(76,78)                1.5002         estimate D2E/DX2                !
 ! R130  R(77,81)                1.446          estimate D2E/DX2                !
 ! R131  R(78,81)                1.5111         estimate D2E/DX2                !
 ! R132  R(78,87)                1.8012         estimate D2E/DX2                !
 ! R133  R(79,82)                1.4975         estimate D2E/DX2                !
 ! R134  R(79,96)                1.8138         estimate D2E/DX2                !
 ! R135  R(80,82)                1.4965         estimate D2E/DX2                !
 ! R136  R(80,86)                1.8018         estimate D2E/DX2                !
 ! R137  R(81,82)                1.334          estimate D2E/DX2                !
 ! R138  R(83,84)                1.4296         estimate D2E/DX2                !
 ! A1    A(5,1,17)             121.9793         estimate D2E/DX2                !
 ! A2    A(5,1,23)             121.7895         estimate D2E/DX2                !
 ! A3    A(17,1,23)            106.55           estimate D2E/DX2                !
 ! A4    A(6,2,43)             101.934          estimate D2E/DX2                !
 ! A5    A(6,2,44)             110.5126         estimate D2E/DX2                !
 ! A6    A(6,2,95)             112.9786         estimate D2E/DX2                !
 ! A7    A(43,2,44)            108.6283         estimate D2E/DX2                !
 ! A8    A(43,2,95)            112.5415         estimate D2E/DX2                !
 ! A9    A(44,2,95)            109.9528         estimate D2E/DX2                !
 ! A10   A(7,3,18)             124.9427         estimate D2E/DX2                !
 ! A11   A(7,3,26)             108.8926         estimate D2E/DX2                !
 ! A12   A(18,3,26)            121.0505         estimate D2E/DX2                !
 ! A13   A(8,4,45)             111.722          estimate D2E/DX2                !
 ! A14   A(8,4,46)             100.4841         estimate D2E/DX2                !
 ! A15   A(8,4,85)             113.5632         estimate D2E/DX2                !
 ! A16   A(45,4,46)            107.8295         estimate D2E/DX2                !
 ! A17   A(45,4,85)            110.3645         estimate D2E/DX2                !
 ! A18   A(46,4,85)            112.4096         estimate D2E/DX2                !
 ! A19   A(1,5,9)              118.4188         estimate D2E/DX2                !
 ! A20   A(1,5,29)             116.5374         estimate D2E/DX2                !
 ! A21   A(9,5,29)             118.9583         estimate D2E/DX2                !
 ! A22   A(2,6,10)             122.5768         estimate D2E/DX2                !
 ! A23   A(2,6,15)             109.3811         estimate D2E/DX2                !
 ! A24   A(10,6,15)            119.7365         estimate D2E/DX2                !
 ! A25   A(3,7,12)             109.8975         estimate D2E/DX2                !
 ! A26   A(3,7,30)             101.4446         estimate D2E/DX2                !
 ! A27   A(3,7,91)             112.3949         estimate D2E/DX2                !
 ! A28   A(12,7,30)            108.9534         estimate D2E/DX2                !
 ! A29   A(12,7,91)            109.9801         estimate D2E/DX2                !
 ! A30   A(30,7,91)            113.8445         estimate D2E/DX2                !
 ! A31   A(4,8,11)             121.0439         estimate D2E/DX2                !
 ! A32   A(4,8,16)             111.5546         estimate D2E/DX2                !
 ! A33   A(11,8,16)            122.298          estimate D2E/DX2                !
 ! A34   A(5,9,13)             118.1676         estimate D2E/DX2                !
 ! A35   A(5,9,35)             120.9648         estimate D2E/DX2                !
 ! A36   A(13,9,35)            116.6276         estimate D2E/DX2                !
 ! A37   A(6,10,49)            123.1773         estimate D2E/DX2                !
 ! A38   A(6,10,53)            119.3022         estimate D2E/DX2                !
 ! A39   A(49,10,53)           109.6393         estimate D2E/DX2                !
 ! A40   A(8,11,50)            123.5962         estimate D2E/DX2                !
 ! A41   A(8,11,54)            120.9901         estimate D2E/DX2                !
 ! A42   A(50,11,54)           110.0695         estimate D2E/DX2                !
 ! A43   A(7,12,14)            116.5992         estimate D2E/DX2                !
 ! A44   A(7,12,36)            123.4475         estimate D2E/DX2                !
 ! A45   A(14,12,36)           118.8783         estimate D2E/DX2                !
 ! A46   A(9,13,15)            122.5622         estimate D2E/DX2                !
 ! A47   A(9,13,43)            122.1363         estimate D2E/DX2                !
 ! A48   A(15,13,43)           108.1553         estimate D2E/DX2                !
 ! A49   A(12,14,16)           125.5335         estimate D2E/DX2                !
 ! A50   A(12,14,46)           121.0883         estimate D2E/DX2                !
 ! A51   A(16,14,46)           111.1638         estimate D2E/DX2                !
 ! A52   A(6,15,13)            109.4185         estimate D2E/DX2                !
 ! A53   A(6,15,17)            121.4709         estimate D2E/DX2                !
 ! A54   A(13,15,17)           118.9951         estimate D2E/DX2                !
 ! A55   A(8,16,14)            100.4973         estimate D2E/DX2                !
 ! A56   A(8,16,18)            114.0725         estimate D2E/DX2                !
 ! A57   A(8,16,92)            111.2295         estimate D2E/DX2                !
 ! A58   A(14,16,18)           109.4711         estimate D2E/DX2                !
 ! A59   A(14,16,92)           110.9013         estimate D2E/DX2                !
 ! A60   A(18,16,92)           110.2955         estimate D2E/DX2                !
 ! A61   A(1,17,15)            119.8552         estimate D2E/DX2                !
 ! A62   A(1,17,19)            108.8636         estimate D2E/DX2                !
 ! A63   A(15,17,19)           119.0219         estimate D2E/DX2                !
 ! A64   A(3,18,16)            117.5713         estimate D2E/DX2                !
 ! A65   A(3,18,20)            118.9562         estimate D2E/DX2                !
 ! A66   A(16,18,20)           120.105          estimate D2E/DX2                !
 ! A67   A(17,19,21)           108.7517         estimate D2E/DX2                !
 ! A68   A(17,19,53)           118.557          estimate D2E/DX2                !
 ! A69   A(21,19,53)           120.599          estimate D2E/DX2                !
 ! A70   A(18,20,22)           118.8295         estimate D2E/DX2                !
 ! A71   A(18,20,54)           119.8783         estimate D2E/DX2                !
 ! A72   A(22,20,54)           115.6035         estimate D2E/DX2                !
 ! A73   A(19,21,23)           106.4346         estimate D2E/DX2                !
 ! A74   A(19,21,57)           121.5727         estimate D2E/DX2                !
 ! A75   A(23,21,57)           119.9009         estimate D2E/DX2                !
 ! A76   A(20,22,24)           121.3853         estimate D2E/DX2                !
 ! A77   A(20,22,58)           121.829          estimate D2E/DX2                !
 ! A78   A(24,22,58)           108.0896         estimate D2E/DX2                !
 ! A79   A(1,23,21)            108.5662         estimate D2E/DX2                !
 ! A80   A(1,23,25)            120.3816         estimate D2E/DX2                !
 ! A81   A(21,23,25)           120.9867         estimate D2E/DX2                !
 ! A82   A(22,24,26)           118.5378         estimate D2E/DX2                !
 ! A83   A(22,24,62)           111.3504         estimate D2E/DX2                !
 ! A84   A(26,24,62)           122.3569         estimate D2E/DX2                !
 ! A85   A(23,25,27)           118.983          estimate D2E/DX2                !
 ! A86   A(23,25,61)           122.2785         estimate D2E/DX2                !
 ! A87   A(27,25,61)           111.393          estimate D2E/DX2                !
 ! A88   A(3,26,24)            121.0604         estimate D2E/DX2                !
 ! A89   A(3,26,28)            109.1305         estimate D2E/DX2                !
 ! A90   A(24,26,28)           121.0644         estimate D2E/DX2                !
 ! A91   A(25,27,29)           121.645          estimate D2E/DX2                !
 ! A92   A(25,27,65)           107.9691         estimate D2E/DX2                !
 ! A93   A(29,27,65)           120.9297         estimate D2E/DX2                !
 ! A94   A(26,28,30)           107.1849         estimate D2E/DX2                !
 ! A95   A(26,28,66)           120.4036         estimate D2E/DX2                !
 ! A96   A(30,28,66)           122.9192         estimate D2E/DX2                !
 ! A97   A(5,29,27)            119.7923         estimate D2E/DX2                !
 ! A98   A(5,29,31)            118.9419         estimate D2E/DX2                !
 ! A99   A(27,29,31)           115.6388         estimate D2E/DX2                !
 ! A100  A(7,30,28)            111.8633         estimate D2E/DX2                !
 ! A101  A(7,30,32)            121.6369         estimate D2E/DX2                !
 ! A102  A(28,30,32)           119.728          estimate D2E/DX2                !
 ! A103  A(29,31,33)           121.1844         estimate D2E/DX2                !
 ! A104  A(29,31,69)           122.2412         estimate D2E/DX2                !
 ! A105  A(33,31,69)           108.4061         estimate D2E/DX2                !
 ! A106  A(30,32,34)           122.7957         estimate D2E/DX2                !
 ! A107  A(30,32,70)           119.0726         estimate D2E/DX2                !
 ! A108  A(34,32,70)           111.8976         estimate D2E/DX2                !
 ! A109  A(31,33,35)           120.5507         estimate D2E/DX2                !
 ! A110  A(31,33,73)           107.5005         estimate D2E/DX2                !
 ! A111  A(35,33,73)           121.969          estimate D2E/DX2                !
 ! A112  A(32,34,36)           108.658          estimate D2E/DX2                !
 ! A113  A(32,34,74)           101.3            estimate D2E/DX2                !
 ! A114  A(32,34,88)           113.5396         estimate D2E/DX2                !
 ! A115  A(36,34,74)           110.7245         estimate D2E/DX2                !
 ! A116  A(36,34,88)           108.8755         estimate D2E/DX2                !
 ! A117  A(74,34,88)           113.5117         estimate D2E/DX2                !
 ! A118  A(9,35,33)            117.6648         estimate D2E/DX2                !
 ! A119  A(9,35,37)            120.3061         estimate D2E/DX2                !
 ! A120  A(33,35,37)           118.0393         estimate D2E/DX2                !
 ! A121  A(12,36,34)           118.7364         estimate D2E/DX2                !
 ! A122  A(12,36,38)           119.9786         estimate D2E/DX2                !
 ! A123  A(34,36,38)           120.7201         estimate D2E/DX2                !
 ! A124  A(35,37,39)           119.6636         estimate D2E/DX2                !
 ! A125  A(35,37,77)           118.9116         estimate D2E/DX2                !
 ! A126  A(39,37,77)           117.2339         estimate D2E/DX2                !
 ! A127  A(36,38,42)           120.2137         estimate D2E/DX2                !
 ! A128  A(36,38,78)           121.2744         estimate D2E/DX2                !
 ! A129  A(42,38,78)           117.8929         estimate D2E/DX2                !
 ! A130  A(37,39,43)           119.1926         estimate D2E/DX2                !
 ! A131  A(37,39,79)           121.7182         estimate D2E/DX2                !
 ! A132  A(43,39,79)           116.9748         estimate D2E/DX2                !
 ! A133  A(41,40,44)           121.335          estimate D2E/DX2                !
 ! A134  A(41,40,79)           111.332          estimate D2E/DX2                !
 ! A135  A(44,40,79)           124.7856         estimate D2E/DX2                !
 ! A136  A(40,41,45)           120.646          estimate D2E/DX2                !
 ! A137  A(40,41,80)           111.3974         estimate D2E/DX2                !
 ! A138  A(45,41,80)           125.3634         estimate D2E/DX2                !
 ! A139  A(38,42,46)           119.0121         estimate D2E/DX2                !
 ! A140  A(38,42,80)           123.374          estimate D2E/DX2                !
 ! A141  A(46,42,80)           116.2539         estimate D2E/DX2                !
 ! A142  A(2,43,13)            110.0779         estimate D2E/DX2                !
 ! A143  A(2,43,39)            124.4029         estimate D2E/DX2                !
 ! A144  A(13,43,39)           121.2733         estimate D2E/DX2                !
 ! A145  A(2,44,40)            115.9548         estimate D2E/DX2                !
 ! A146  A(2,44,47)            123.9654         estimate D2E/DX2                !
 ! A147  A(40,44,47)           118.8603         estimate D2E/DX2                !
 ! A148  A(4,45,41)            116.2222         estimate D2E/DX2                !
 ! A149  A(4,45,48)            123.5914         estimate D2E/DX2                !
 ! A150  A(41,45,48)           118.7913         estimate D2E/DX2                !
 ! A151  A(4,46,14)            111.3964         estimate D2E/DX2                !
 ! A152  A(4,46,42)            125.4006         estimate D2E/DX2                !
 ! A153  A(14,46,42)           120.7612         estimate D2E/DX2                !
 ! A154  A(44,47,48)           119.7337         estimate D2E/DX2                !
 ! A155  A(44,47,49)           119.2255         estimate D2E/DX2                !
 ! A156  A(48,47,49)           120.431          estimate D2E/DX2                !
 ! A157  A(45,48,47)           120.5839         estimate D2E/DX2                !
 ! A158  A(45,48,50)           117.9653         estimate D2E/DX2                !
 ! A159  A(47,48,50)           120.6934         estimate D2E/DX2                !
 ! A160  A(10,49,47)           110.6171         estimate D2E/DX2                !
 ! A161  A(10,49,51)           101.3978         estimate D2E/DX2                !
 ! A162  A(10,49,90)           113.2832         estimate D2E/DX2                !
 ! A163  A(47,49,51)           109.0343         estimate D2E/DX2                !
 ! A164  A(47,49,90)           108.6839         estimate D2E/DX2                !
 ! A165  A(51,49,90)           113.6346         estimate D2E/DX2                !
 ! A166  A(11,50,48)           110.4196         estimate D2E/DX2                !
 ! A167  A(11,50,52)           101.2748         estimate D2E/DX2                !
 ! A168  A(11,50,89)           112.3521         estimate D2E/DX2                !
 ! A169  A(48,50,52)           109.4323         estimate D2E/DX2                !
 ! A170  A(48,50,89)           109.3314         estimate D2E/DX2                !
 ! A171  A(52,50,89)           113.7983         estimate D2E/DX2                !
 ! A172  A(49,51,52)           121.7543         estimate D2E/DX2                !
 ! A173  A(49,51,55)           111.1431         estimate D2E/DX2                !
 ! A174  A(52,51,55)           120.3958         estimate D2E/DX2                !
 ! A175  A(50,52,51)           122.6319         estimate D2E/DX2                !
 ! A176  A(50,52,56)           110.9789         estimate D2E/DX2                !
 ! A177  A(51,52,56)           119.4234         estimate D2E/DX2                !
 ! A178  A(10,53,19)           121.6152         estimate D2E/DX2                !
 ! A179  A(10,53,55)           109.5431         estimate D2E/DX2                !
 ! A180  A(19,53,55)           118.7498         estimate D2E/DX2                !
 ! A181  A(11,54,20)           120.7623         estimate D2E/DX2                !
 ! A182  A(11,54,56)           108.3659         estimate D2E/DX2                !
 ! A183  A(20,54,56)           121.8453         estimate D2E/DX2                !
 ! A184  A(51,55,53)           107.5785         estimate D2E/DX2                !
 ! A185  A(51,55,83)           122.3841         estimate D2E/DX2                !
 ! A186  A(53,55,83)           121.6676         estimate D2E/DX2                !
 ! A187  A(52,56,54)           108.9613         estimate D2E/DX2                !
 ! A188  A(52,56,84)           120.9088         estimate D2E/DX2                !
 ! A189  A(54,56,84)           122.1334         estimate D2E/DX2                !
 ! A190  A(21,57,59)           118.4328         estimate D2E/DX2                !
 ! A191  A(21,57,83)           117.7932         estimate D2E/DX2                !
 ! A192  A(59,57,83)           119.3816         estimate D2E/DX2                !
 ! A193  A(22,58,60)           109.0104         estimate D2E/DX2                !
 ! A194  A(22,58,84)           121.7582         estimate D2E/DX2                !
 ! A195  A(60,58,84)           121.5529         estimate D2E/DX2                !
 ! A196  A(57,59,60)           119.8129         estimate D2E/DX2                !
 ! A197  A(57,59,61)           121.8724         estimate D2E/DX2                !
 ! A198  A(60,59,61)           116.2907         estimate D2E/DX2                !
 ! A199  A(58,60,59)           120.8607         estimate D2E/DX2                !
 ! A200  A(58,60,62)           109.4255         estimate D2E/DX2                !
 ! A201  A(59,60,62)           125.2214         estimate D2E/DX2                !
 ! A202  A(25,61,59)           111.5543         estimate D2E/DX2                !
 ! A203  A(25,61,63)           100.7884         estimate D2E/DX2                !
 ! A204  A(25,61,93)           112.1888         estimate D2E/DX2                !
 ! A205  A(59,61,63)           111.1656         estimate D2E/DX2                !
 ! A206  A(59,61,93)           109.7455         estimate D2E/DX2                !
 ! A207  A(63,61,93)           111.1623         estimate D2E/DX2                !
 ! A208  A(24,62,60)           100.8657         estimate D2E/DX2                !
 ! A209  A(24,62,64)           111.7576         estimate D2E/DX2                !
 ! A210  A(24,62,94)           112.0613         estimate D2E/DX2                !
 ! A211  A(60,62,64)           111.0351         estimate D2E/DX2                !
 ! A212  A(60,62,94)           111.1461         estimate D2E/DX2                !
 ! A213  A(64,62,94)           109.7415         estimate D2E/DX2                !
 ! A214  A(61,63,64)           125.0955         estimate D2E/DX2                !
 ! A215  A(61,63,65)           109.5795         estimate D2E/DX2                !
 ! A216  A(64,63,65)           120.7955         estimate D2E/DX2                !
 ! A217  A(62,64,63)           116.4575         estimate D2E/DX2                !
 ! A218  A(62,64,66)           122.0342         estimate D2E/DX2                !
 ! A219  A(63,64,66)           119.4147         estimate D2E/DX2                !
 ! A220  A(27,65,63)           108.9622         estimate D2E/DX2                !
 ! A221  A(27,65,67)           122.1408         estimate D2E/DX2                !
 ! A222  A(63,65,67)           121.8582         estimate D2E/DX2                !
 ! A223  A(28,66,64)           118.4172         estimate D2E/DX2                !
 ! A224  A(28,66,68)           117.2298         estimate D2E/DX2                !
 ! A225  A(64,66,68)           120.2305         estimate D2E/DX2                !
 ! A226  A(65,67,68)           118.2182         estimate D2E/DX2                !
 ! A227  A(65,67,69)           115.5447         estimate D2E/DX2                !
 ! A228  A(68,67,69)           120.2442         estimate D2E/DX2                !
 ! A229  A(66,68,67)           119.343          estimate D2E/DX2                !
 ! A230  A(66,68,70)           118.1396         estimate D2E/DX2                !
 ! A231  A(67,68,70)           117.3714         estimate D2E/DX2                !
 ! A232  A(31,69,67)           120.9401         estimate D2E/DX2                !
 ! A233  A(31,69,71)           107.3785         estimate D2E/DX2                !
 ! A234  A(67,69,71)           120.8069         estimate D2E/DX2                !
 ! A235  A(32,70,68)           122.4204         estimate D2E/DX2                !
 ! A236  A(32,70,72)           107.5571         estimate D2E/DX2                !
 ! A237  A(68,70,72)           121.8702         estimate D2E/DX2                !
 ! A238  A(69,71,72)           119.5802         estimate D2E/DX2                !
 ! A239  A(69,71,73)           108.2417         estimate D2E/DX2                !
 ! A240  A(72,71,73)           119.3879         estimate D2E/DX2                !
 ! A241  A(70,72,71)           119.9654         estimate D2E/DX2                !
 ! A242  A(70,72,74)           108.8976         estimate D2E/DX2                !
 ! A243  A(71,72,74)           121.1869         estimate D2E/DX2                !
 ! A244  A(33,73,71)           108.1364         estimate D2E/DX2                !
 ! A245  A(33,73,75)           119.7514         estimate D2E/DX2                !
 ! A246  A(71,73,75)           119.039          estimate D2E/DX2                !
 ! A247  A(34,74,72)           109.8282         estimate D2E/DX2                !
 ! A248  A(34,74,76)           122.4259         estimate D2E/DX2                !
 ! A249  A(72,74,76)           119.596          estimate D2E/DX2                !
 ! A250  A(73,75,76)           120.7731         estimate D2E/DX2                !
 ! A251  A(73,75,77)           119.2747         estimate D2E/DX2                !
 ! A252  A(76,75,77)           110.0026         estimate D2E/DX2                !
 ! A253  A(74,76,75)           119.8496         estimate D2E/DX2                !
 ! A254  A(74,76,78)           122.2693         estimate D2E/DX2                !
 ! A255  A(75,76,78)           109.8332         estimate D2E/DX2                !
 ! A256  A(37,77,75)           121.9372         estimate D2E/DX2                !
 ! A257  A(37,77,81)           121.2218         estimate D2E/DX2                !
 ! A258  A(75,77,81)           107.4687         estimate D2E/DX2                !
 ! A259  A(38,78,76)           110.8304         estimate D2E/DX2                !
 ! A260  A(38,78,81)           109.3771         estimate D2E/DX2                !
 ! A261  A(38,78,87)           108.8208         estimate D2E/DX2                !
 ! A262  A(76,78,81)           101.7801         estimate D2E/DX2                !
 ! A263  A(76,78,87)           113.3785         estimate D2E/DX2                !
 ! A264  A(81,78,87)           112.4873         estimate D2E/DX2                !
 ! A265  A(39,79,40)           108.7332         estimate D2E/DX2                !
 ! A266  A(39,79,82)           113.583          estimate D2E/DX2                !
 ! A267  A(39,79,96)           110.3235         estimate D2E/DX2                !
 ! A268  A(40,79,82)           100.6991         estimate D2E/DX2                !
 ! A269  A(40,79,96)           111.7158         estimate D2E/DX2                !
 ! A270  A(82,79,96)           111.4397         estimate D2E/DX2                !
 ! A271  A(41,80,42)           107.9203         estimate D2E/DX2                !
 ! A272  A(41,80,82)           100.4664         estimate D2E/DX2                !
 ! A273  A(41,80,86)           112.4826         estimate D2E/DX2                !
 ! A274  A(42,80,82)           111.1519         estimate D2E/DX2                !
 ! A275  A(42,80,86)           110.5166         estimate D2E/DX2                !
 ! A276  A(82,80,86)           113.8056         estimate D2E/DX2                !
 ! A277  A(77,81,78)           110.5006         estimate D2E/DX2                !
 ! A278  A(77,81,82)           121.6197         estimate D2E/DX2                !
 ! A279  A(78,81,82)           123.0531         estimate D2E/DX2                !
 ! A280  A(79,82,80)           112.1844         estimate D2E/DX2                !
 ! A281  A(79,82,81)           121.0123         estimate D2E/DX2                !
 ! A282  A(80,82,81)           121.5106         estimate D2E/DX2                !
 ! A283  A(55,83,57)           119.2789         estimate D2E/DX2                !
 ! A284  A(55,83,84)           116.4216         estimate D2E/DX2                !
 ! A285  A(57,83,84)           119.3891         estimate D2E/DX2                !
 ! A286  A(56,84,58)           115.6749         estimate D2E/DX2                !
 ! A287  A(56,84,83)           120.0814         estimate D2E/DX2                !
 ! A288  A(58,84,83)           118.8428         estimate D2E/DX2                !
 ! D1    D(17,1,5,9)            -0.5065         estimate D2E/DX2                !
 ! D2    D(17,1,5,29)         -152.8294         estimate D2E/DX2                !
 ! D3    D(23,1,5,9)           140.9419         estimate D2E/DX2                !
 ! D4    D(23,1,5,29)          -11.381          estimate D2E/DX2                !
 ! D5    D(5,1,17,15)           -0.8676         estimate D2E/DX2                !
 ! D6    D(5,1,17,19)          141.0609         estimate D2E/DX2                !
 ! D7    D(23,1,17,15)        -147.3204         estimate D2E/DX2                !
 ! D8    D(23,1,17,19)          -5.3918         estimate D2E/DX2                !
 ! D9    D(5,1,23,21)         -137.6101         estimate D2E/DX2                !
 ! D10   D(5,1,23,25)            8.1279         estimate D2E/DX2                !
 ! D11   D(17,1,23,21)           8.9208         estimate D2E/DX2                !
 ! D12   D(17,1,23,25)         154.6588         estimate D2E/DX2                !
 ! D13   D(43,2,6,10)         -137.9026         estimate D2E/DX2                !
 ! D14   D(43,2,6,15)           10.1737         estimate D2E/DX2                !
 ! D15   D(44,2,6,10)          -22.5833         estimate D2E/DX2                !
 ! D16   D(44,2,6,15)          125.4929         estimate D2E/DX2                !
 ! D17   D(95,2,6,10)          101.0858         estimate D2E/DX2                !
 ! D18   D(95,2,6,15)         -110.838          estimate D2E/DX2                !
 ! D19   D(6,2,43,13)           -7.7841         estimate D2E/DX2                !
 ! D20   D(6,2,43,39)          149.1685         estimate D2E/DX2                !
 ! D21   D(44,2,43,13)        -124.4765         estimate D2E/DX2                !
 ! D22   D(44,2,43,39)          32.4761         estimate D2E/DX2                !
 ! D23   D(95,2,43,13)         113.5307         estimate D2E/DX2                !
 ! D24   D(95,2,43,39)         -89.5166         estimate D2E/DX2                !
 ! D25   D(6,2,44,40)         -147.8126         estimate D2E/DX2                !
 ! D26   D(6,2,44,47)           19.3881         estimate D2E/DX2                !
 ! D27   D(43,2,44,40)         -36.7672         estimate D2E/DX2                !
 ! D28   D(43,2,44,47)         130.4334         estimate D2E/DX2                !
 ! D29   D(95,2,44,40)          86.7891         estimate D2E/DX2                !
 ! D30   D(95,2,44,47)        -106.0102         estimate D2E/DX2                !
 ! D31   D(18,3,7,12)           28.0766         estimate D2E/DX2                !
 ! D32   D(18,3,7,30)          143.2716         estimate D2E/DX2                !
 ! D33   D(18,3,7,91)          -94.7552         estimate D2E/DX2                !
 ! D34   D(26,3,7,12)         -126.6365         estimate D2E/DX2                !
 ! D35   D(26,3,7,30)          -11.4414         estimate D2E/DX2                !
 ! D36   D(26,3,7,91)          110.5318         estimate D2E/DX2                !
 ! D37   D(7,3,18,16)            5.6799         estimate D2E/DX2                !
 ! D38   D(7,3,18,20)         -153.6453         estimate D2E/DX2                !
 ! D39   D(26,3,18,16)         157.533          estimate D2E/DX2                !
 ! D40   D(26,3,18,20)          -1.7922         estimate D2E/DX2                !
 ! D41   D(7,3,26,24)          160.3122         estimate D2E/DX2                !
 ! D42   D(7,3,26,28)           12.4793         estimate D2E/DX2                !
 ! D43   D(18,3,26,24)           4.436          estimate D2E/DX2                !
 ! D44   D(18,3,26,28)        -143.3968         estimate D2E/DX2                !
 ! D45   D(45,4,8,11)           19.7199         estimate D2E/DX2                !
 ! D46   D(45,4,8,16)         -135.551          estimate D2E/DX2                !
 ! D47   D(46,4,8,11)          133.8562         estimate D2E/DX2                !
 ! D48   D(46,4,8,16)          -21.4148         estimate D2E/DX2                !
 ! D49   D(85,4,8,11)         -105.9007         estimate D2E/DX2                !
 ! D50   D(85,4,8,16)           98.8284         estimate D2E/DX2                !
 ! D51   D(8,4,45,41)          145.7294         estimate D2E/DX2                !
 ! D52   D(8,4,45,48)          -20.5919         estimate D2E/DX2                !
 ! D53   D(46,4,45,41)          36.2244         estimate D2E/DX2                !
 ! D54   D(46,4,45,48)        -130.0969         estimate D2E/DX2                !
 ! D55   D(85,4,45,41)         -86.9059         estimate D2E/DX2                !
 ! D56   D(85,4,45,48)         106.7729         estimate D2E/DX2                !
 ! D57   D(8,4,46,14)           12.0052         estimate D2E/DX2                !
 ! D58   D(8,4,46,42)         -150.2403         estimate D2E/DX2                !
 ! D59   D(45,4,46,14)         129.0634         estimate D2E/DX2                !
 ! D60   D(45,4,46,42)         -33.1822         estimate D2E/DX2                !
 ! D61   D(85,4,46,14)        -109.0636         estimate D2E/DX2                !
 ! D62   D(85,4,46,42)          88.6909         estimate D2E/DX2                !
 ! D63   D(1,5,9,13)             1.1432         estimate D2E/DX2                !
 ! D64   D(1,5,9,35)          -154.9477         estimate D2E/DX2                !
 ! D65   D(29,5,9,13)          152.7884         estimate D2E/DX2                !
 ! D66   D(29,5,9,35)           -3.3025         estimate D2E/DX2                !
 ! D67   D(1,5,29,27)            8.832          estimate D2E/DX2                !
 ! D68   D(1,5,29,31)          161.2501         estimate D2E/DX2                !
 ! D69   D(9,5,29,27)         -143.3355         estimate D2E/DX2                !
 ! D70   D(9,5,29,31)            9.0826         estimate D2E/DX2                !
 ! D71   D(2,6,10,49)           -0.2614         estimate D2E/DX2                !
 ! D72   D(2,6,10,53)          145.5728         estimate D2E/DX2                !
 ! D73   D(15,6,10,49)        -145.1986         estimate D2E/DX2                !
 ! D74   D(15,6,10,53)           0.6356         estimate D2E/DX2                !
 ! D75   D(2,6,15,13)           -9.3081         estimate D2E/DX2                !
 ! D76   D(2,6,15,17)         -154.2321         estimate D2E/DX2                !
 ! D77   D(10,6,15,13)         139.8165         estimate D2E/DX2                !
 ! D78   D(10,6,15,17)          -5.1075         estimate D2E/DX2                !
 ! D79   D(3,7,12,14)          -31.8489         estimate D2E/DX2                !
 ! D80   D(3,7,12,36)          136.1366         estimate D2E/DX2                !
 ! D81   D(30,7,12,14)        -142.1781         estimate D2E/DX2                !
 ! D82   D(30,7,12,36)          25.8075         estimate D2E/DX2                !
 ! D83   D(91,7,12,14)          92.3951         estimate D2E/DX2                !
 ! D84   D(91,7,12,36)         -99.6193         estimate D2E/DX2                !
 ! D85   D(3,7,30,28)            6.7201         estimate D2E/DX2                !
 ! D86   D(3,7,30,32)         -144.2998         estimate D2E/DX2                !
 ! D87   D(12,7,30,28)         122.6118         estimate D2E/DX2                !
 ! D88   D(12,7,30,32)         -28.4081         estimate D2E/DX2                !
 ! D89   D(91,7,30,28)        -114.2418         estimate D2E/DX2                !
 ! D90   D(91,7,30,32)          94.7383         estimate D2E/DX2                !
 ! D91   D(4,8,11,50)            7.2408         estimate D2E/DX2                !
 ! D92   D(4,8,11,54)         -144.3501         estimate D2E/DX2                !
 ! D93   D(16,8,11,50)         159.8351         estimate D2E/DX2                !
 ! D94   D(16,8,11,54)           8.2441         estimate D2E/DX2                !
 ! D95   D(4,8,16,14)           22.1181         estimate D2E/DX2                !
 ! D96   D(4,8,16,18)          139.1235         estimate D2E/DX2                !
 ! D97   D(4,8,16,92)          -95.3482         estimate D2E/DX2                !
 ! D98   D(11,8,16,14)        -132.7936         estimate D2E/DX2                !
 ! D99   D(11,8,16,18)         -15.7882         estimate D2E/DX2                !
 ! D100  D(11,8,16,92)         109.7401         estimate D2E/DX2                !
 ! D101  D(5,9,13,15)           -0.4716         estimate D2E/DX2                !
 ! D102  D(5,9,13,43)         -147.376          estimate D2E/DX2                !
 ! D103  D(35,9,13,15)         156.6511         estimate D2E/DX2                !
 ! D104  D(35,9,13,43)           9.7467         estimate D2E/DX2                !
 ! D105  D(5,9,35,33)           -8.461          estimate D2E/DX2                !
 ! D106  D(5,9,35,37)          148.6376         estimate D2E/DX2                !
 ! D107  D(13,9,35,33)        -164.9028         estimate D2E/DX2                !
 ! D108  D(13,9,35,37)          -7.8043         estimate D2E/DX2                !
 ! D109  D(6,10,49,47)          26.0944         estimate D2E/DX2                !
 ! D110  D(6,10,49,51)         141.6448         estimate D2E/DX2                !
 ! D111  D(6,10,49,90)         -96.2161         estimate D2E/DX2                !
 ! D112  D(53,10,49,47)       -122.5745         estimate D2E/DX2                !
 ! D113  D(53,10,49,51)         -7.0241         estimate D2E/DX2                !
 ! D114  D(53,10,49,90)        115.1151         estimate D2E/DX2                !
 ! D115  D(6,10,53,19)           3.7401         estimate D2E/DX2                !
 ! D116  D(6,10,53,55)        -141.1294         estimate D2E/DX2                !
 ! D117  D(49,10,53,19)        153.8014         estimate D2E/DX2                !
 ! D118  D(49,10,53,55)          8.9319         estimate D2E/DX2                !
 ! D119  D(8,11,50,48)         -32.7785         estimate D2E/DX2                !
 ! D120  D(8,11,50,52)        -148.6406         estimate D2E/DX2                !
 ! D121  D(8,11,50,89)          89.5657         estimate D2E/DX2                !
 ! D122  D(54,11,50,48)        121.486          estimate D2E/DX2                !
 ! D123  D(54,11,50,52)          5.6239         estimate D2E/DX2                !
 ! D124  D(54,11,50,89)       -116.1698         estimate D2E/DX2                !
 ! D125  D(8,11,54,20)           1.3766         estimate D2E/DX2                !
 ! D126  D(8,11,54,56)         149.0046         estimate D2E/DX2                !
 ! D127  D(50,11,54,20)       -153.6682         estimate D2E/DX2                !
 ! D128  D(50,11,54,56)         -6.0401         estimate D2E/DX2                !
 ! D129  D(7,12,14,16)           4.5669         estimate D2E/DX2                !
 ! D130  D(7,12,14,46)         166.1319         estimate D2E/DX2                !
 ! D131  D(36,12,14,16)       -163.9925         estimate D2E/DX2                !
 ! D132  D(36,12,14,46)         -2.4276         estimate D2E/DX2                !
 ! D133  D(7,12,36,34)           5.8915         estimate D2E/DX2                !
 ! D134  D(7,12,36,38)        -165.5539         estimate D2E/DX2                !
 ! D135  D(14,12,36,34)        173.6192         estimate D2E/DX2                !
 ! D136  D(14,12,36,38)          2.1737         estimate D2E/DX2                !
 ! D137  D(9,13,15,6)         -146.8094         estimate D2E/DX2                !
 ! D138  D(9,13,15,17)          -0.8907         estimate D2E/DX2                !
 ! D139  D(43,13,15,6)           4.0731         estimate D2E/DX2                !
 ! D140  D(43,13,15,17)        149.9918         estimate D2E/DX2                !
 ! D141  D(9,13,43,2)          153.6853         estimate D2E/DX2                !
 ! D142  D(9,13,43,39)          -4.1094         estimate D2E/DX2                !
 ! D143  D(15,13,43,2)           2.653          estimate D2E/DX2                !
 ! D144  D(15,13,43,39)       -155.1417         estimate D2E/DX2                !
 ! D145  D(12,14,16,8)         149.2581         estimate D2E/DX2                !
 ! D146  D(12,14,16,18)         28.893          estimate D2E/DX2                !
 ! D147  D(12,14,16,92)        -93.0338         estimate D2E/DX2                !
 ! D148  D(46,14,16,8)         -13.8602         estimate D2E/DX2                !
 ! D149  D(46,14,16,18)       -134.2253         estimate D2E/DX2                !
 ! D150  D(46,14,16,92)        103.848          estimate D2E/DX2                !
 ! D151  D(12,14,46,4)        -162.7291         estimate D2E/DX2                !
 ! D152  D(12,14,46,42)          0.4573         estimate D2E/DX2                !
 ! D153  D(16,14,46,4)           1.2521         estimate D2E/DX2                !
 ! D154  D(16,14,46,42)        164.4385         estimate D2E/DX2                !
 ! D155  D(6,15,17,1)          143.2537         estimate D2E/DX2                !
 ! D156  D(6,15,17,19)           5.114          estimate D2E/DX2                !
 ! D157  D(13,15,17,1)           1.5434         estimate D2E/DX2                !
 ! D158  D(13,15,17,19)       -136.5963         estimate D2E/DX2                !
 ! D159  D(8,16,18,3)         -144.4941         estimate D2E/DX2                !
 ! D160  D(8,16,18,20)          14.5839         estimate D2E/DX2                !
 ! D161  D(14,16,18,3)         -32.8035         estimate D2E/DX2                !
 ! D162  D(14,16,18,20)        126.2745         estimate D2E/DX2                !
 ! D163  D(92,16,18,3)          89.4862         estimate D2E/DX2                !
 ! D164  D(92,16,18,20)       -111.4358         estimate D2E/DX2                !
 ! D165  D(1,17,19,21)          -0.2134         estimate D2E/DX2                !
 ! D166  D(1,17,19,53)        -143.0371         estimate D2E/DX2                !
 ! D167  D(15,17,19,21)        142.0812         estimate D2E/DX2                !
 ! D168  D(15,17,19,53)         -0.7426         estimate D2E/DX2                !
 ! D169  D(3,18,20,22)           0.1171         estimate D2E/DX2                !
 ! D170  D(3,18,20,54)         152.3838         estimate D2E/DX2                !
 ! D171  D(16,18,20,22)       -158.6741         estimate D2E/DX2                !
 ! D172  D(16,18,20,54)         -6.4074         estimate D2E/DX2                !
 ! D173  D(17,19,21,23)          5.6689         estimate D2E/DX2                !
 ! D174  D(17,19,21,57)       -136.6393         estimate D2E/DX2                !
 ! D175  D(53,19,21,23)        147.5993         estimate D2E/DX2                !
 ! D176  D(53,19,21,57)          5.2911         estimate D2E/DX2                !
 ! D177  D(17,19,53,10)         -3.6714         estimate D2E/DX2                !
 ! D178  D(17,19,53,55)        138.1191         estimate D2E/DX2                !
 ! D179  D(21,19,53,10)       -142.0074         estimate D2E/DX2                !
 ! D180  D(21,19,53,55)         -0.2168         estimate D2E/DX2                !
 ! D181  D(18,20,22,24)         -0.9337         estimate D2E/DX2                !
 ! D182  D(18,20,22,58)        142.8482         estimate D2E/DX2                !
 ! D183  D(54,20,22,24)       -154.3542         estimate D2E/DX2                !
 ! D184  D(54,20,22,58)        -10.5723         estimate D2E/DX2                !
 ! D185  D(18,20,54,11)         -2.19           estimate D2E/DX2                !
 ! D186  D(18,20,54,56)       -145.4502         estimate D2E/DX2                !
 ! D187  D(22,20,54,11)        150.9335         estimate D2E/DX2                !
 ! D188  D(22,20,54,56)          7.6733         estimate D2E/DX2                !
 ! D189  D(19,21,23,1)          -9.0606         estimate D2E/DX2                !
 ! D190  D(19,21,23,25)       -154.5529         estimate D2E/DX2                !
 ! D191  D(57,21,23,1)         134.0052         estimate D2E/DX2                !
 ! D192  D(57,21,23,25)        -11.4871         estimate D2E/DX2                !
 ! D193  D(19,21,57,59)        150.4385         estimate D2E/DX2                !
 ! D194  D(19,21,57,83)         -5.9194         estimate D2E/DX2                !
 ! D195  D(23,21,57,59)         13.0077         estimate D2E/DX2                !
 ! D196  D(23,21,57,83)       -143.3501         estimate D2E/DX2                !
 ! D197  D(20,22,24,26)          3.443          estimate D2E/DX2                !
 ! D198  D(20,22,24,62)        153.5173         estimate D2E/DX2                !
 ! D199  D(58,22,24,26)       -144.6788         estimate D2E/DX2                !
 ! D200  D(58,22,24,62)          5.3955         estimate D2E/DX2                !
 ! D201  D(20,22,58,60)       -145.8104         estimate D2E/DX2                !
 ! D202  D(20,22,58,84)          3.9812         estimate D2E/DX2                !
 ! D203  D(24,22,58,60)          2.1411         estimate D2E/DX2                !
 ! D204  D(24,22,58,84)        151.9327         estimate D2E/DX2                !
 ! D205  D(1,23,25,27)          -1.7923         estimate D2E/DX2                !
 ! D206  D(1,23,25,61)        -149.2599         estimate D2E/DX2                !
 ! D207  D(21,23,25,27)        139.7073         estimate D2E/DX2                !
 ! D208  D(21,23,25,61)         -7.7603         estimate D2E/DX2                !
 ! D209  D(22,24,26,3)          -5.1257         estimate D2E/DX2                !
 ! D210  D(22,24,26,28)        138.9156         estimate D2E/DX2                !
 ! D211  D(62,24,26,3)        -151.7556         estimate D2E/DX2                !
 ! D212  D(62,24,26,28)         -7.7143         estimate D2E/DX2                !
 ! D213  D(22,24,62,60)         -9.9706         estimate D2E/DX2                !
 ! D214  D(22,24,62,64)       -128.0138         estimate D2E/DX2                !
 ! D215  D(22,24,62,94)        108.3329         estimate D2E/DX2                !
 ! D216  D(26,24,62,60)        138.7761         estimate D2E/DX2                !
 ! D217  D(26,24,62,64)         20.7329         estimate D2E/DX2                !
 ! D218  D(26,24,62,94)       -102.9203         estimate D2E/DX2                !
 ! D219  D(23,25,27,29)         -0.555          estimate D2E/DX2                !
 ! D220  D(23,25,27,65)       -147.1284         estimate D2E/DX2                !
 ! D221  D(61,25,27,29)        150.2151         estimate D2E/DX2                !
 ! D222  D(61,25,27,65)          3.6418         estimate D2E/DX2                !
 ! D223  D(23,25,61,59)         22.4933         estimate D2E/DX2                !
 ! D224  D(23,25,61,63)        140.5578         estimate D2E/DX2                !
 ! D225  D(23,25,61,93)       -101.1077         estimate D2E/DX2                !
 ! D226  D(27,25,61,59)       -127.1595         estimate D2E/DX2                !
 ! D227  D(27,25,61,63)         -9.095          estimate D2E/DX2                !
 ! D228  D(27,25,61,93)        109.2395         estimate D2E/DX2                !
 ! D229  D(3,26,28,30)          -7.9835         estimate D2E/DX2                !
 ! D230  D(3,26,28,66)         139.2646         estimate D2E/DX2                !
 ! D231  D(24,26,28,30)       -155.8148         estimate D2E/DX2                !
 ! D232  D(24,26,28,66)         -8.5667         estimate D2E/DX2                !
 ! D233  D(25,27,29,5)          -3.1073         estimate D2E/DX2                !
 ! D234  D(25,27,29,31)       -156.3994         estimate D2E/DX2                !
 ! D235  D(65,27,29,5)         139.2407         estimate D2E/DX2                !
 ! D236  D(65,27,29,31)        -14.0514         estimate D2E/DX2                !
 ! D237  D(25,27,65,63)          4.0688         estimate D2E/DX2                !
 ! D238  D(25,27,65,67)        155.1129         estimate D2E/DX2                !
 ! D239  D(29,27,65,63)       -142.79           estimate D2E/DX2                !
 ! D240  D(29,27,65,67)          8.2541         estimate D2E/DX2                !
 ! D241  D(26,28,30,7)           0.3396         estimate D2E/DX2                !
 ! D242  D(26,28,30,32)        151.9789         estimate D2E/DX2                !
 ! D243  D(66,28,30,7)        -145.8909         estimate D2E/DX2                !
 ! D244  D(66,28,30,32)          5.7484         estimate D2E/DX2                !
 ! D245  D(26,28,66,64)          9.1744         estimate D2E/DX2                !
 ! D246  D(26,28,66,68)       -148.0817         estimate D2E/DX2                !
 ! D247  D(30,28,66,64)        151.171          estimate D2E/DX2                !
 ! D248  D(30,28,66,68)         -6.0851         estimate D2E/DX2                !
 ! D249  D(5,29,31,33)          -3.1999         estimate D2E/DX2                !
 ! D250  D(5,29,31,69)        -148.0966         estimate D2E/DX2                !
 ! D251  D(27,29,31,33)        150.3317         estimate D2E/DX2                !
 ! D252  D(27,29,31,69)          5.435          estimate D2E/DX2                !
 ! D253  D(7,30,32,34)          -0.8417         estimate D2E/DX2                !
 ! D254  D(7,30,32,70)         149.1396         estimate D2E/DX2                !
 ! D255  D(28,30,32,34)       -149.6565         estimate D2E/DX2                !
 ! D256  D(28,30,32,70)          0.3248         estimate D2E/DX2                !
 ! D257  D(29,31,33,35)         -8.9967         estimate D2E/DX2                !
 ! D258  D(29,31,33,73)       -155.173          estimate D2E/DX2                !
 ! D259  D(69,31,33,35)        140.1655         estimate D2E/DX2                !
 ! D260  D(69,31,33,73)         -6.0108         estimate D2E/DX2                !
 ! D261  D(29,31,69,67)          9.5529         estimate D2E/DX2                !
 ! D262  D(29,31,69,71)        153.9703         estimate D2E/DX2                !
 ! D263  D(33,31,69,67)       -139.2164         estimate D2E/DX2                !
 ! D264  D(33,31,69,71)          5.201          estimate D2E/DX2                !
 ! D265  D(30,32,34,36)         32.6336         estimate D2E/DX2                !
 ! D266  D(30,32,34,74)        149.2721         estimate D2E/DX2                !
 ! D267  D(30,32,34,88)        -88.6685         estimate D2E/DX2                !
 ! D268  D(70,32,34,36)       -119.2511         estimate D2E/DX2                !
 ! D269  D(70,32,34,74)         -2.6126         estimate D2E/DX2                !
 ! D270  D(70,32,34,88)        119.4468         estimate D2E/DX2                !
 ! D271  D(30,32,70,68)         -5.8648         estimate D2E/DX2                !
 ! D272  D(30,32,70,72)       -154.8458         estimate D2E/DX2                !
 ! D273  D(34,32,70,68)        147.1834         estimate D2E/DX2                !
 ! D274  D(34,32,70,72)         -1.7976         estimate D2E/DX2                !
 ! D275  D(31,33,35,9)          14.5253         estimate D2E/DX2                !
 ! D276  D(31,33,35,37)       -143.1011         estimate D2E/DX2                !
 ! D277  D(73,33,35,9)         155.7855         estimate D2E/DX2                !
 ! D278  D(73,33,35,37)         -1.8409         estimate D2E/DX2                !
 ! D279  D(31,33,73,71)          4.4507         estimate D2E/DX2                !
 ! D280  D(31,33,73,75)        145.306          estimate D2E/DX2                !
 ! D281  D(35,33,73,71)       -141.1423         estimate D2E/DX2                !
 ! D282  D(35,33,73,75)         -0.287          estimate D2E/DX2                !
 ! D283  D(32,34,36,12)        -34.2113         estimate D2E/DX2                !
 ! D284  D(32,34,36,38)        137.1685         estimate D2E/DX2                !
 ! D285  D(74,34,36,12)       -144.6303         estimate D2E/DX2                !
 ! D286  D(74,34,36,38)         26.7496         estimate D2E/DX2                !
 ! D287  D(88,34,36,12)         89.9095         estimate D2E/DX2                !
 ! D288  D(88,34,36,38)        -98.7106         estimate D2E/DX2                !
[...]
 Alpha virt. eigenvalues --    1.40568   1.40937   1.41946   1.42490   1.43344
 Alpha virt. eigenvalues --    1.43521   1.43530   1.43962   1.44772   1.45388
 Alpha virt. eigenvalues --    1.45743   1.46259   1.46620   1.47018   1.47384
 Alpha virt. eigenvalues --    1.48000   1.48366   1.48564   1.49072   1.49606
 Alpha virt. eigenvalues --    1.50717   1.51044   1.51684   1.52581   1.52936
 Alpha virt. eigenvalues --    1.53056   1.53961   1.54212   1.55068   1.55391
 Alpha virt. eigenvalues --    1.55877   1.56624   1.57131   1.57733   1.57975
 Alpha virt. eigenvalues --    1.58734   1.59347   1.59747   1.60599   1.60987
 Alpha virt. eigenvalues --    1.61382   1.61630   1.61917   1.62480   1.62651
 Alpha virt. eigenvalues --    1.62956   1.63138   1.63374   1.63856   1.63998
 Alpha virt. eigenvalues --    1.64225   1.64397   1.64581   1.64755   1.65155
 Alpha virt. eigenvalues --    1.65331   1.65629   1.65804   1.65851   1.66055
 Alpha virt. eigenvalues --    1.66439   1.66957   1.67106   1.67379   1.67547
 Alpha virt. eigenvalues --    1.67752   1.67923   1.68006   1.68335   1.68547
 Alpha virt. eigenvalues --    1.68786   1.68977   1.69277   1.69550   1.69808
 Alpha virt. eigenvalues --    1.69939   1.70178   1.70602   1.70993   1.71155
 Alpha virt. eigenvalues --    1.71274   1.71426   1.71649   1.71823   1.72000
 Alpha virt. eigenvalues --    1.72337   1.72709   1.72990   1.73256   1.73302
 Alpha virt. eigenvalues --    1.73527   1.74183   1.74302   1.74400   1.74680
 Alpha virt. eigenvalues --    1.74915   1.75025   1.75428   1.75681   1.75791
 Alpha virt. eigenvalues --    1.76017   1.76177   1.76433   1.76544   1.76717
 Alpha virt. eigenvalues --    1.76865   1.77109   1.77532   1.77592   1.77973
 Alpha virt. eigenvalues --    1.78171   1.78443   1.78519   1.78981   1.79056
 Alpha virt. eigenvalues --    1.79378   1.79458   1.79901   1.79992   1.80150
 Alpha virt. eigenvalues --    1.80453   1.80929   1.81354   1.81695   1.81768
 Alpha virt. eigenvalues --    1.82150   1.82463   1.82995   1.83148   1.83450
 Alpha virt. eigenvalues --    1.83524   1.84061   1.84381   1.84709   1.85167
 Alpha virt. eigenvalues --    1.85600   1.85667   1.86030   1.86480   1.86609
 Alpha virt. eigenvalues --    1.87159   1.87365   1.87951   1.88087   1.88534
 Alpha virt. eigenvalues --    1.88943   1.89177   1.89650   1.89818   1.90142
 Alpha virt. eigenvalues --    1.90285   1.90888   1.91364   1.91622   1.91892
 Alpha virt. eigenvalues --    1.92050   1.92701   1.93175   1.93445   1.93547
 Alpha virt. eigenvalues --    1.93866   1.94068   1.94668   1.94789   1.94943
 Alpha virt. eigenvalues --    1.95473   1.95741   1.96264   1.96544   1.97048
 Alpha virt. eigenvalues --    1.97204   1.97436   1.97502   1.97942   1.98458
 Alpha virt. eigenvalues --    1.98817   1.99071   1.99658   1.99927   2.00143
 Alpha virt. eigenvalues --    2.00610   2.00780   2.00930   2.01412   2.01689
 Alpha virt. eigenvalues --    2.01947   2.02280   2.02566   2.02716   2.03093
 Alpha virt. eigenvalues --    2.03294   2.03674   2.04339   2.04566   2.04726
 Alpha virt. eigenvalues --    2.05070   2.05164   2.05545   2.05653   2.06206
 Alpha virt. eigenvalues --    2.06675   2.07177   2.07203   2.08168   2.08235
 Alpha virt. eigenvalues --    2.08471   2.09095   2.09391   2.09413   2.10192
 Alpha virt. eigenvalues --    2.10365   2.10862   2.11615   2.12240   2.12654
 Alpha virt. eigenvalues --    2.12776   2.13113   2.13549   2.14363   2.14817
 Alpha virt. eigenvalues --    2.15057   2.15131   2.15562   2.15814   2.16320
 Alpha virt. eigenvalues --    2.16570   2.17140   2.17534   2.17856   2.18064
 Alpha virt. eigenvalues --    2.18539   2.18837   2.19159   2.19585   2.19924
 Alpha virt. eigenvalues --    2.20384   2.20916   2.21540   2.21916   2.22024
 Alpha virt. eigenvalues --    2.22610   2.23025   2.23067   2.23363   2.24179
 Alpha virt. eigenvalues --    2.24716   2.24937   2.25134   2.25349   2.25660
 Alpha virt. eigenvalues --    2.26006   2.26447   2.26712   2.27251   2.27868
 Alpha virt. eigenvalues --    2.28281   2.28489   2.28936   2.29406   2.29885
 Alpha virt. eigenvalues --    2.30072   2.30605   2.31239   2.31391   2.32099
 Alpha virt. eigenvalues --    2.32241   2.33178   2.33985   2.34421   2.34832
 Alpha virt. eigenvalues --    2.35203   2.35552   2.36528   2.36740   2.37143
 Alpha virt. eigenvalues --    2.37437   2.38098   2.39025   2.39417   2.39783
 Alpha virt. eigenvalues --    2.40524   2.40886   2.41350   2.41958   2.42372
 Alpha virt. eigenvalues --    2.42846   2.43062   2.43475   2.44015   2.44031
 Alpha virt. eigenvalues --    2.44463   2.45306   2.46055   2.46379   2.46806
 Alpha virt. eigenvalues --    2.47572   2.47864   2.48755   2.49389   2.49767
 Alpha virt. eigenvalues --    2.50226   2.50701   2.51046   2.51396   2.51713
 Alpha virt. eigenvalues --    2.52248   2.52944   2.53117   2.53621   2.53869
 Alpha virt. eigenvalues --    2.54383   2.54657   2.55027   2.55267   2.55841
 Alpha virt. eigenvalues --    2.56076   2.56398   2.56766   2.57150   2.57620
 Alpha virt. eigenvalues --    2.57923   2.58120   2.58621   2.59050   2.59529
 Alpha virt. eigenvalues --    2.59638   2.59730   2.60134   2.60246   2.61027
 Alpha virt. eigenvalues --    2.61292   2.61551   2.61609   2.61981   2.62183
 Alpha virt. eigenvalues --    2.62360   2.62706   2.63085   2.63732   2.64082
 Alpha virt. eigenvalues --    2.64162   2.64243   2.64699   2.65121   2.65653
 Alpha virt. eigenvalues --    2.65857   2.66199   2.66235   2.66934   2.67253
 Alpha virt. eigenvalues --    2.67536   2.68145   2.68380   2.69042   2.69277
 Alpha virt. eigenvalues --    2.69718   2.70038   2.70441   2.70802   2.70911
 Alpha virt. eigenvalues --    2.71746   2.72081   2.72269   2.72959   2.73079
 Alpha virt. eigenvalues --    2.73541   2.73879   2.74156   2.74509   2.74949
 Alpha virt. eigenvalues --    2.75389   2.75568   2.75720   2.76368   2.76449
 Alpha virt. eigenvalues --    2.77071   2.77120   2.77841   2.78438   2.79002
 Alpha virt. eigenvalues --    2.79720   2.79937   2.80354   2.80970   2.81124
 Alpha virt. eigenvalues --    2.81601   2.82083   2.82434   2.82759   2.83613
 Alpha virt. eigenvalues --    2.83917   2.84184   2.85009   2.85401   2.85935
 Alpha virt. eigenvalues --    2.86654   2.87096   2.87770   2.88241   2.88792
 Alpha virt. eigenvalues --    2.88892   2.89351   2.89600   2.89778   2.90719
 Alpha virt. eigenvalues --    2.91075   2.92009   2.92373   2.92831   2.93365
 Alpha virt. eigenvalues --    2.94036   2.94061   2.95379   2.96104   2.96701
 Alpha virt. eigenvalues --    2.97351   2.98377   2.99446   2.99958   3.01340
 Alpha virt. eigenvalues --    3.01911   3.02901   3.03496   3.04634   3.06163
 Alpha virt. eigenvalues --    3.07318   3.08522   3.09740   3.11438   3.12577
 Alpha virt. eigenvalues --    3.13693   3.14119   3.15836   3.16626   3.17751
 Alpha virt. eigenvalues --    3.19168   3.21339   3.22295   3.22698   3.23891
 Alpha virt. eigenvalues --    3.24468   3.27907   3.28519   3.30030   3.32632
 Alpha virt. eigenvalues --    3.33369   3.34947   3.39496   3.40903   3.41382
 Alpha virt. eigenvalues --    3.43548   3.44235   3.46765   3.47816   3.49554
 Alpha virt. eigenvalues --    3.51235   3.54096   3.56256   4.00367   4.01160
 Alpha virt. eigenvalues --    4.01345   4.02690   4.03560   4.03822   4.04391
 Alpha virt. eigenvalues --    4.04642   4.05693   4.06379   4.07306   4.07646
 Alpha virt. eigenvalues --    4.08317   4.08761   4.09102   4.10740   4.10930
 Alpha virt. eigenvalues --    4.11120   4.12365   4.12807   4.13784   4.14896
 Alpha virt. eigenvalues --    4.15193   4.16677   4.17414   4.18131   4.19287
 Alpha virt. eigenvalues --    4.19669   4.20097   4.20722   4.21313   4.21649
 Alpha virt. eigenvalues --    4.22977   4.23466   4.24812   4.25152   4.25697
 Alpha virt. eigenvalues --    4.26432   4.26924   4.27155   4.27712   4.28448
 Alpha virt. eigenvalues --    4.28487   4.28980   4.29077   4.30458   4.31567
 Alpha virt. eigenvalues --    4.32016   4.32793   4.34580   4.35083   4.36785
 Alpha virt. eigenvalues --    4.38540   4.38640   4.39157   4.40367   4.40898
 Alpha virt. eigenvalues --    4.41175   4.41708   4.43628   4.44254   4.45002
 Alpha virt. eigenvalues --    4.47394   4.48386   4.49421   4.49869   4.51224
 Alpha virt. eigenvalues --    4.53132   4.53703   4.55853   4.57414   4.58093
 Alpha virt. eigenvalues --    4.59538   4.61553   4.61785   4.63929   4.65403
 Alpha virt. eigenvalues --    4.66189   4.68631   4.71327   4.77013   4.77880
 Alpha virt. eigenvalues --    4.79252   4.82018   4.82875   4.85283   4.87275
 Alpha virt. eigenvalues --    4.92032   4.92512   4.98693   5.02703   5.04527
 Alpha virt. eigenvalues --    5.06281   5.14173   5.16532   5.20014
          Condensed to atoms (all electrons):
 Mulliken charges:
               1
     1  C   -0.020939
     2  C   -0.383426
     3  C    0.077960
     4  C   -0.372260
     5  C    0.049865
     6  C    0.088759
     7  C   -0.384850
     8  C    0.155177
     9  C    0.030906
    10  C    0.093245
    11  C    0.110302
    12  C    0.147398
    13  C    0.010212
    14  C    0.115413
    15  C    0.024631
    16  C   -0.361094
    17  C   -0.011938
    18  C    0.128260
    19  C   -0.008193
    20  C    0.068211
    21  C   -0.043404
    22  C    0.013470
    23  C    0.005345
    24  C    0.066581
    25  C    0.076737
    26  C    0.042882
    27  C    0.014376
    28  C   -0.014711
    29  C    0.043516
    30  C    0.094227
    31  C   -0.027132
    32  C    0.090795
    33  C   -0.024777
    34  C   -0.378751
    35  C    0.043147
    36  C    0.122381
    37  C    0.059486
    38  C    0.119266
    39  C    0.120762
    40  C    0.118985
    41  C    0.113488
    42  C    0.146803
    43  C    0.074916
    44  C    0.143329
    45  C    0.143518
    46  C    0.116074
    47  C    0.122624
    48  C    0.124054
    49  C   -0.376929
    50  C   -0.383723
    51  C    0.090213
    52  C    0.090005
    53  C    0.021691
    54  C   -0.015297
    55  C    0.006685
    56  C    0.015548
    57  C    0.074237
    58  C    0.001715
    59  C    0.120165
    60  C    0.081349
    61  C   -0.365842
    62  C   -0.366698
    63  C    0.081592
    64  C    0.117909
    65  C    0.002558
    66  C    0.067707
    67  C    0.049521
    68  C    0.032235
    69  C   -0.017609
    70  C    0.007361
    71  C   -0.021348
    72  C    0.038895
    73  C   -0.022921
    74  C    0.087684
    75  C    0.032315
    76  C    0.097200
    77  C   -0.018980
    78  C   -0.381082
    79  C   -0.358477
    80  C   -0.374420
    81  C    0.112270
    82  C    0.157553
    83  C    0.035756
    84  C    0.042048
    85  Cl   0.024923
    86  Cl   0.023356
    87  Cl   0.019320
    88  Cl   0.017376
    89  Cl   0.020513
    90  Cl   0.015686
    91  Cl   0.022150
    92  Cl   0.001923
    93  Cl  -0.004150
    94  Cl  -0.003765
    95  Cl   0.018137
    96  Cl  -0.001979
 Sum of Mulliken charges =  -0.00000
 Mulliken charges with hydrogens summed into heavy atoms:
               1
     1  C   -0.020939
     2  C   -0.383426
     3  C    0.077960
     4  C   -0.372260
     5  C    0.049865
     6  C    0.088759
     7  C   -0.384850
     8  C    0.155177
     9  C    0.030906
    10  C    0.093245
    11  C    0.110302
    12  C    0.147398
    13  C    0.010212
    14  C    0.115413
    15  C    0.024631
    16  C   -0.361094
    17  C   -0.011938
    18  C    0.128260
    19  C   -0.008193
    20  C    0.068211
    21  C   -0.043404
    22  C    0.013470
    23  C    0.005345
    24  C    0.066581
    25  C    0.076737
    26  C    0.042882
    27  C    0.014376
    28  C   -0.014711
    29  C    0.043516
    30  C    0.094227
    31  C   -0.027132
    32  C    0.090795
    33  C   -0.024777
    34  C   -0.378751
    35  C    0.043147
    36  C    0.122381
    37  C    0.059486
    38  C    0.119266
    39  C    0.120762
    40  C    0.118985
    41  C    0.113488
    42  C    0.146803
    43  C    0.074916
    44  C    0.143329
    45  C    0.143518
    46  C    0.116074
    47  C    0.122624
    48  C    0.124054
    49  C   -0.376929
    50  C   -0.383723
    51  C    0.090213
    52  C    0.090005
    53  C    0.021691
    54  C   -0.015297
    55  C    0.006685
    56  C    0.015548
    57  C    0.074237
    58  C    0.001715
    59  C    0.120165
    60  C    0.081349
    61  C   -0.365842
    62  C   -0.366698
    63  C    0.081592
    64  C    0.117909
    65  C    0.002558
    66  C    0.067707
    67  C    0.049521
    68  C    0.032235
    69  C   -0.017609
    70  C    0.007361
    71  C   -0.021348
    72  C    0.038895
    73  C   -0.022921
    74  C    0.087684
    75  C    0.032315
    76  C    0.097200
    77  C   -0.018980
    78  C   -0.381082
    79  C   -0.358477
    80  C   -0.374420
    81  C    0.112270
    82  C    0.157553
    83  C    0.035756
    84  C    0.042048
    85  Cl   0.024923
    86  Cl   0.023356
    87  Cl   0.019320
    88  Cl   0.017376
    89  Cl   0.020513
    90  Cl   0.015686
    91  Cl   0.022150
    92  Cl   0.001923
    93  Cl  -0.004150
    94  Cl  -0.003765
    95  Cl   0.018137
    96  Cl  -0.001979
 Electronic spatial extent (au):  <R**2>=          61255.8853
 Charge=              0.0000 electrons
 Dipole moment (field-independent basis, Debye):
    X=             -5.1477    Y=             -2.7681    Z=             -3.3147  Tot=              6.7193
 Quadrupole moment (field-independent basis, Debye-Ang):
   XX=           -655.0634   YY=           -632.6001   ZZ=           -615.3581
   XY=             -1.8025   XZ=              2.0923   YZ=             -4.1683
 Traceless Quadrupole moment (field-independent basis, Debye-Ang):
   XX=            -20.7228   YY=              1.7404   ZZ=             18.9824
   XY=             -1.8025   XZ=              2.0923   YZ=             -4.1683
 Octapole moment (field-independent basis, Debye-Ang**2):
  XXX=            105.7089  YYY=            -30.4681  ZZZ=             -0.5289  XYY=            -16.7088
  XXY=             71.4039  XXZ=             12.3302  XZZ=            -27.2873  YZZ=             -8.7741
  YYZ=             -1.3757  XYZ=             16.9273
 Hexadecapole moment (field-independent basis, Debye-Ang**3):
 XXXX=         -33027.0292 YYYY=         -30620.9461 ZZZZ=         -23803.4084 XXXY=           -219.5793
 XXXZ=            233.2223 YYYX=            135.7169 YYYZ=             81.9213 ZZZX=           -106.1919
 ZZZY=            -37.1115 XXYY=         -10553.3372 XXZZ=          -9394.2679 YYZZ=          -9088.7795
 XXYZ=            -32.3187 YYXZ=              0.2335 ZZXY=             18.0237
 N-N= 2.414822766095D+04 E-N=-6.881563674242D+04  KE= 8.676608734679D+03
 No NMR shielding tensors so no spin-rotation constants.
 Leave Link  601 at Wed Jun 29 19:37:44 2022, MaxMem=  1342177280 cpu:              55.1 elap:               2.6
 (Enter /home/mkliu/g16/l9999.exe)
 1\1\GINC-NODE02\FOpt\RB3LYP\6-31G(d,p)\C84Cl12\MKLIU\29-Jun-2022\0\\#P
  opt b3lyp/6-31G(d, p) empiricaldispersion=GD3\\force\\0,1\C,8.4742457
 722,18.854765463,10.7790789298\C,12.578675655,19.968841017,8.887136380
 7\C,8.2559361073,26.8671800194,10.5691445488\C,12.4749704547,25.747145
 4995,8.9258408104\C,7.9928494955,19.0679251972,9.4646035962\C,12.06340
 8481,19.4796500228,10.2172524363\C,7.8580785575,27.1019320718,9.111801
 5925\C,11.8951443876,26.2049660477,10.2375820763\C,8.9675911125,19.177
 2855,8.3739511937\C,12.3353987289,20.1160777825,11.3891784689\C,12.110
 2859082,25.5218632383,11.3675377065\C,8.9425955952,26.5896123204,8.173
 0417835\C,10.3376973487,19.050761603,8.6931873405\C,10.2543329215,26.6
 366721597,8.6382524679\C,10.7929068407,18.8307388666,10.0322365115\C,1
 0.6678462247,27.0621542847,10.0359304155\C,9.8688580302,18.7451266878,
 11.0636820809\C,9.5533838708,26.7807445073,11.023589041\C,10.145415007
 ,19.4216033467,12.313357363\C,9.8194052343,26.0221856873,12.2220688504
 \C,8.9313252037,19.9630372375,12.817942624\C,8.7326022242,25.386800916
 6,12.8819906599\C,7.8638923153,19.4999699417,11.9258834231\C,7.4079884
 896,25.5063144362,12.3999524825\C,6.7109233709,20.2084569078,11.778329
 6631\C,7.1884770006,26.1898336613,11.2369536905\C,6.1257329789,20.3361
 975226,10.4904867946\C,6.240286566,25.7045769336,10.2419034084\C,6.723
 8447339,19.7526732236,9.3357793488\C,6.6190476491,26.238066486,8.99673
 21485\C,6.3811327693,20.3364460058,8.0988077353\C,6.3205447014,25.5609
 630123,7.8409527234\C,7.3039896645,20.3290863557,6.9791174855\C,7.1940
 412292,25.6371342129,6.5980690931\C,8.6425399197,19.8989281254,7.15734
 78836\C,8.6574711905,25.8358020174,7.012351652\C,9.6944859856,20.59149
 55696,6.420286002\C,9.6906918785,25.1087074126,6.3721134006\C,11.05723
 77852,20.547741011,6.9004354888\C,12.7298691083,22.1712795402,7.761626
 3608\C,12.709623219,23.5621241972,7.7635536844\C,11.0014663357,25.1325
 238839,6.8911689671\C,11.3550903317,19.762783742,7.9799521142\C,12.929
 8205482,21.4483408283,8.9361858537\C,12.877275724,24.2788758943,8.9495
 185906\C,11.268077578,25.9154162989,8.0120572392\C,13.1437375434,22.15
 00005953,10.1394924438\C,13.1093682236,23.5693386245,10.1421762491\C,1
 3.1761121627,21.3778064503,11.4665309085\C,13.0609626724,24.3385607948
 ,11.4617561316\C,12.4423221174,22.1599923086,12.5426070523\C,12.395059
 7826,23.508401483,12.5332835093\C,11.3470689185,20.123280373,12.440544
 2602\C,11.0896985975,25.4201845868,12.3997945032\C,11.3436859915,21.39
 13300336,13.0731748001\C,11.2405544638,24.1834332608,13.0559008538\C,8
 .8788167492,21.2687099616,13.3655135714\C,8.8745711623,24.1033534506,1
 3.5040310183\C,7.6303361636,22.017615037,13.2581797976\C,7.6453984737,
 23.3811602295,13.3675954839\C,6.382112883,21.3968942589,12.6485728431\
 C,6.5689865928,24.3181356,12.8054142919\C,5.7263528238,22.3314347783,1
 1.6253905249\C,5.8474406117,23.694190808,11.623895897\C,5.4733196397,2
 1.6076876084,10.4157398524\C,5.6394121777,24.425983485,10.3791670931\C
 ,5.2577282403,22.2625939046,9.1846264788\C,5.321309573,23.7114582321,9
 .1639802362\C,5.5841012289,21.5159263419,8.0127822739\C,5.6298381175,2
 4.3356704057,7.9164017691\C,5.9280933819,22.1796605817,6.7804232184\C,
 5.9626997242,23.5608863838,6.7413602696\C,6.9764052755,21.4317960898,6
 .1411184086\C,6.970296871,24.2664851161,5.9923159094\C,7.9977167995,22
 .1251468343,5.4805836516\C,7.9677050718,23.5649103774,5.3867323593\C,9
 .3335530554,21.681810903,5.5891070891\C,9.3737629179,24.103852444,5.26
 26269597\C,12.0689751064,21.613494018,6.5127997659\C,12.0573044079,24.
 1087722521,6.501923755\C,10.2051556503,22.8408111683,5.449332782\C,11.
 4448154804,22.8561779919,5.9432692822\C,10.132654605,21.9998790448,13.
 5115135655\C,10.1123675824,23.4420428958,13.5487444872\Cl,13.901762813
 2,26.7911199455,8.3959847896\Cl,13.291285062,24.8610420795,5.353300311
 \Cl,9.6700295606,24.8802226998,3.6189887589\Cl,6.6836005981,26.9935163
 591,5.4619582169\Cl,14.7520071792,24.8839121598,11.9427803924\Cl,14.92
 24075162,21.0122320753,11.9256277006\Cl,7.5032446955,28.878619119,8.78
 42018695\Cl,11.1112868279,28.8696441611,10.0808890639\Cl,5.1799136468,
 20.9234035403,13.9823360648\Cl,5.3529089295,24.7988824944,14.125467361
 6\Cl,14.0283702586,18.9724694381,8.3355299015\Cl,13.3202428281,20.9165
 918951,5.3218006725\\Version=ES64L-G16RevA.03\State=1-A\HF=-8723.43571
 43\RMSD=7.350e-09\RMSF=6.874e-05\Dipole=-1.8810181,-1.6441532,0.864273
 6\Quadrupole=-5.4616325,3.5770238,1.8846088,3.3430832,13.2831513,4.714
 3141\PG=C01 [X(C84Cl12)]\\@


 IN SO FAR AS QUANTUM MECHANICS IS CORRECT, CHEMICAL 
 QUESTIONS ARE PROBLEMS IN APPLIED MATHEMATICS.

                    -- EYRING, WALTER, & KIMBALL, 1944
 Job cpu time:       1 days 13 hours  4 minutes 48.5 seconds.
 Elapsed time:       0 days  1 hours 33 minutes  0.6 seconds.
 File lengths (MBytes):  RWF=   1359 Int=      0 D2E=      0 Chk=    170 Scr=      1
 Normal termination of Gaussian 16 at Wed Jun 29 19:37:46 2022.
