 Entering Gaussian System, Link 0=g16
 Input=12_addons_C84_11_Cl22_rank_7.gjf
 Output=12_addons_C84_11_Cl22_rank_7.log
 Initial command:
 /home/mkliu/g16/l1.exe "/data/scratch/Gau-147421.inp" -scrdir="/data/scratch/"
 Entering Link 1 = /home/mkliu/g16/l1.exe PID=    147422.
  
 Copyright (c) 1988,1990,1992,1993,1995,1998,2003,2009,2016,
            Gaussian, Inc.  All Rights Reserved.
  
 This is part of the Gaussian(R) 16 program.  It is based on
 the Gaussian(R) 09 system (copyright 2009, Gaussian, Inc.),
 the Gaussian(R) 03 system (copyright 2003, Gaussian, Inc.),
 the Gaussian(R) 98 system (copyright 1998, Gaussian, Inc.),
 the Gaussian(R) 94 system (copyright 1995, Gaussian, Inc.),
 the Gaussian 92(TM) system (copyright 1992, Gaussian, Inc.),
 the Gaussian 90(TM) system (copyright 1990, Gaussian, Inc.),
 the Gaussian 88(TM) system (copyright 1988, Gaussian, Inc.),
 the Gaussian 86(TM) system (copyright 1986, Carnegie Mellon
 University), and the Gaussian 82(TM) system (copyright 1983,
 Carnegie Mellon University). Gaussian is a federally registered
 trademark of Gaussian, Inc.
  
 This software contains proprietary and confidential information,
 including trade secrets, belonging to Gaussian, Inc.
  
 This software is provided under written license and may be
 used, copied, transmitted, or stored only in accord with that
 written license.
  
 The following legend is applicable only to US Government
 contracts under FAR:
  
                    RESTRICTED RIGHTS LEGEND
  
 Use, reproduction and disclosure by the US Government is
 subject to restrictions as set forth in subparagraphs (a)
 and (c) of the Commercial Computer Software - Restricted
 Rights clause in FAR 52.227-19.
  
 Gaussian, Inc.
 340 Quinnipiac St., Bldg. 40, Wallingford CT 06492
  
  
 ---------------------------------------------------------------
 Warning -- This program may not be used in any manner that
 competes with the business of Gaussian, Inc. or will provide
 assistance to any competitor of Gaussian, Inc.  The licensee
 of this program is prohibited from giving any competitor of
 Gaussian, Inc. access to this program.  By using this program,
 the user acknowledges that Gaussian, Inc. is engaged in the
 business of creating and licensing software in the field of
 computational chemistry and represents and warrants to the
 licensee that it is not a competitor of Gaussian, Inc. and that
 it will not use this program in any manner prohibited above.
 ---------------------------------------------------------------
  

 Cite this work as:
 Gaussian 16, Revision A.03,
 M. J. Frisch, G. W. Trucks, H. B. Schlegel, G. E. Scuseria, 
 M. A. Robb, J. R. Cheeseman, G. Scalmani, V. Barone, 
 G. A. Petersson, H. Nakatsuji, X. Li, M. Caricato, A. V. Marenich, 
 J. Bloino, B. G. Janesko, R. Gomperts, B. Mennucci, H. P. Hratchian, 
 J. V. Ortiz, A. F. Izmaylov, J. L. Sonnenberg, D. Williams-Young, 
 F. Ding, F. Lipparini, F. Egidi, J. Goings, B. Peng, A. Petrone, 
 T. Henderson, D. Ranasinghe, V. G. Zakrzewski, J. Gao, N. Rega, 
 G. Zheng, W. Liang, M. Hada, M. Ehara, K. Toyota, R. Fukuda, 
 J. Hasegawa, M. Ishida, T. Nakajima, Y. Honda, O. Kitao, H. Nakai, 
 T. Vreven, K. Throssell, J. A. Montgomery, Jr., J. E. Peralta, 
 F. Ogliaro, M. J. Bearpark, J. J. Heyd, E. N. Brothers, K. N. Kudin, 
 V. N. Staroverov, T. A. Keith, R. Kobayashi, J. Normand, 
 K. Raghavachari, A. P. Rendell, J. C. Burant, S. S. Iyengar, 
 J. Tomasi, M. Cossi, J. M. Millam, M. Klene, C. Adamo, R. Cammi, 
 J. W. Ochterski, R. L. Martin, K. Morokuma, O. Farkas, 
 J. B. Foresman, and D. J. Fox, Gaussian, Inc., Wallingford CT, 2016.
 
 ******************************************
 Gaussian 16:  ES64L-G16RevA.03 25-Dec-2016
                29-Jun-2022 
 ******************************************
 %mem=10GB
 %chk=12_addons_C84_11_Cl22_rank_7.chk
 %nprocshared=24
 Will use up to   24 processors via shared memory.
 ------------------------------------------------
 #P opt b3lyp/6-31G(d, p) empiricaldispersion=GD3
 ------------------------------------------------
 1/18=20,19=15,26=3,38=1/1,3;
 2/9=110,12=2,17=6,18=5,40=1/2;
 3/5=1,6=6,7=101,11=2,25=1,30=1,71=1,74=-5,124=31/1,2,3;
 4//1;
 5/5=2,38=5/2;
 6/7=2,8=2,9=2,10=2,28=1/1;
 7//1,2,3,16;
 1/18=20,19=15,26=3/3(2);
 2/9=110/2;
 99//99;
 2/9=110/2;
 3/5=1,6=6,7=101,11=2,25=1,30=1,71=1,74=-5,124=31/1,2,3;
 4/5=5,16=3,69=1/1;
 5/5=2,38=5/2;
 7//1,2,3,16;
 1/18=20,19=15,26=3/3(-5);
 2/9=110/2;
 6/7=2,8=2,9=2,10=2,19=2,28=1/1;
 99/9=1/99;
 Leave Link    1 at Wed Jun 29 17:21:32 2022, MaxMem=  1342177280 cpu:               0.7 elap:               0.1
 (Enter /home/mkliu/g16/l101.exe)
 -----
 force
 -----
 Symbolic Z-matrix:
 Charge =  0 Multiplicity = 1
 C                     8.42666   18.66408   10.79927 
 C                     12.58912   19.9916   8.89654 
 C                     8.2683    26.83348   10.51602 
 C                     12.48076   25.7386   8.91752 
 C                     8.02939   19.18411   9.43674 
 C                     12.07382   19.5067   10.21733 
 C                     7.96224   26.80694   9.12565 
 C                     11.87996   26.17416   10.2198 
 C                     8.99802   19.29029   8.39405 
 C                     12.34979   20.14917   11.38593 
 C                     12.1413   25.52428   11.3851 
 C                     8.96162   26.62538   8.14412 
 C                     10.36973   19.10157   8.69479 
 C                     10.29519   26.66162   8.61338 
 C                     10.81363   18.8575   10.04106 
 C                     10.60876   26.76719   9.99942 
 C                     9.89935   18.75208   11.05676 
 C                     9.5967    26.74856   10.98406 
 C                     10.14932   19.4751   12.24795 
 C                     9.85478   26.03615   12.19713 
 C                     8.94316   20.03823   12.73512 
 C                     8.76238   25.41167   12.84241 
 C                     7.87739   19.56156   11.88299 
 C                     7.43074   25.54605   12.36372 
 C                     6.72117   20.21618   11.76533 
 C                     7.18263   26.25137   11.22801 
 C                     5.93386   20.1938   10.49233 
 C                     6.04962   25.92085   10.29298 
 C                     6.78901   19.80909   9.31083 
 C                     6.66001   26.26914   8.96701 
 C                     6.45177   20.39994   8.09889 
 C                     6.35198   25.60463   7.82623 
 C                     7.36825   20.44955   7.04685 
 C                     7.32364   25.46025   6.79884 
 C                     8.69839   20.00249   7.19283 
 C                     8.66209   25.89265   6.95209 
 C                     9.73716   20.64573   6.4295 
 C                     9.71431   25.15533   6.29037 
 C                     11.06499   20.59942   6.91687 
 C                     12.74708   22.16814   7.79797 
 C                     12.6833   23.56501   7.81081 
 C                     11.04849   25.16988   6.85316 
 C                     11.36432   19.80976   8.01153 
 C                     12.93364   21.46011   8.96461 
 C                     12.85811   24.28186   8.98328 
 C                     11.32722   25.96451   7.95799 
 C                     13.13576   22.1709   10.16681 
 C                     13.09897   23.57702   10.17168 
 C                     13.18781   21.3984   11.47511 
 C                     13.08468   24.35198   11.48058 
 C                     12.44854   22.17258   12.53457 
 C                     12.40853   23.52685   12.53541 
 C                     11.35296   20.16447   12.40129 
 C                     11.11636   25.42839   12.37013 
 C                     11.34728   21.42706   13.04399 
 C                     11.25943   24.18662   13.04505 
 C                     8.903     21.32608   13.29148 
 C                     8.89821   24.1352   13.44447 
 C                     7.6695    22.05855   13.19362 
 C                     7.6782    23.4205   13.30543 
 C                     6.43912   21.43742   12.58674 
 C                     6.61353   24.34874   12.75176 
 C                     5.88728   22.35151   11.52579 
 C                     5.99295   23.73029   11.52522 
 C                     5.59656   21.65839   10.36008 
 C                     5.76087   24.42916   10.33228 
 C                     5.39228   22.32928   9.16593 
 C                     5.45282   23.73079   9.15127 
 C                     5.39244   21.47442   7.92545 
 C                     5.36912   24.46408   7.8196 
 C                     5.92697   22.24615   6.75455 
 C                     5.91739   23.60945   6.70755 
 C                     7.01392   21.53366   6.17564 
 C                     6.99508   24.288    6.06011 
 C                     8.01314   22.16856   5.4682 
 C                     8.00629   23.59633   5.41348 
 C                     9.36815   21.71413   5.55324 
 C                     9.35915   24.04508   5.50483 
 C                     12.0891   21.63864   6.54554 
 C                     11.8696   24.01432   6.69546 
 C                     10.1872   22.86654   5.44249 
 C                     11.45483   22.88914   6.00806 
 C                     10.14519   22.03756   13.46612 
 C                     10.13454   23.46459   13.50929 
 Cl                    14.00805   19.04898   8.30905 
 Cl                    14.90926   21.07103   11.89335 
 Cl                    14.76657   24.83488   11.90062 
 Cl                    13.2931   20.93681   5.39456 
 Cl                    4.53819   26.82538   10.65909 
 Cl                    3.6644    24.97665   7.54942 
 Cl                    13.92978   26.71786   8.4509 
 Cl                    3.74831   20.80181   7.63235 
 Cl                    4.46192   19.15579   10.58459 
 Cl                    5.33622   24.72121   13.96514 
 Cl                    5.20421   21.11734   13.87915 
 Cl                    7.80523   16.96647   10.95949 
 
 ITRead=  0  0  0  0  0  0  0  0  0  0  0  0  0  0  0  0  0  0  0  0
 ITRead=  0  0  0  0  0  0  0  0  0  0  0  0  0  0  0  0  0  0  0  0
 ITRead=  0  0  0  0  0  0  0  0  0  0  0  0  0  0  0  0  0  0  0  0
 ITRead=  0  0  0  0  0  0  0  0  0  0  0  0  0  0  0  0  0  0  0  0
 ITRead=  0  0  0  0  0  0  0  0  0  0  0  0  0  0  0  0
 MicOpt= -1 -1 -1 -1 -1 -1 -1 -1 -1 -1 -1 -1 -1 -1 -1 -1 -1 -1 -1 -1
 MicOpt= -1 -1 -1 -1 -1 -1 -1 -1 -1 -1 -1 -1 -1 -1 -1 -1 -1 -1 -1 -1
 MicOpt= -1 -1 -1 -1 -1 -1 -1 -1 -1 -1 -1 -1 -1 -1 -1 -1 -1 -1 -1 -1
 MicOpt= -1 -1 -1 -1 -1 -1 -1 -1 -1 -1 -1 -1 -1 -1 -1 -1 -1 -1 -1 -1
 MicOpt= -1 -1 -1 -1 -1 -1 -1 -1 -1 -1 -1 -1 -1 -1 -1 -1
 NAtoms=     96 NQM=       96 NQMF=       0 NMMI=      0 NMMIF=      0
                NMic=       0 NMicF=      0.
                    Isotopes and Nuclear Properties:
 (Nuclear quadrupole moments (NQMom) in fm**2, nuclear magnetic moments (NMagM)
  in nuclear magnetons)

  Atom         1           2           3           4           5           6           7           8           9          10
 IAtWgt=          12          12          12          12          12          12          12          12          12          12
 AtmWgt=  12.0000000  12.0000000  12.0000000  12.0000000  12.0000000  12.0000000  12.0000000  12.0000000  12.0000000  12.0000000
 NucSpn=           0           0           0           0           0           0           0           0           0           0
 AtZEff=  -0.0000000  -0.0000000  -0.0000000  -0.0000000  -0.0000000  -0.0000000  -0.0000000  -0.0000000  -0.0000000  -0.0000000
 NQMom=    0.0000000   0.0000000   0.0000000   0.0000000   0.0000000   0.0000000   0.0000000   0.0000000   0.0000000   0.0000000
 NMagM=    0.0000000   0.0000000   0.0000000   0.0000000   0.0000000   0.0000000   0.0000000   0.0000000   0.0000000   0.0000000
 AtZNuc=   6.0000000   6.0000000   6.0000000   6.0000000   6.0000000   6.0000000   6.0000000   6.0000000   6.0000000   6.0000000

  Atom        11          12          13          14          15          16          17          18          19          20
 IAtWgt=          12          12          12          12          12          12          12          12          12          12
 AtmWgt=  12.0000000  12.0000000  12.0000000  12.0000000  12.0000000  12.0000000  12.0000000  12.0000000  12.0000000  12.0000000
 NucSpn=           0           0           0           0           0           0           0           0           0           0
 AtZEff=  -0.0000000  -0.0000000  -0.0000000  -0.0000000  -0.0000000  -0.0000000  -0.0000000  -0.0000000  -0.0000000  -0.0000000
 NQMom=    0.0000000   0.0000000   0.0000000   0.0000000   0.0000000   0.0000000   0.0000000   0.0000000   0.0000000   0.0000000
 NMagM=    0.0000000   0.0000000   0.0000000   0.0000000   0.0000000   0.0000000   0.0000000   0.0000000   0.0000000   0.0000000
 AtZNuc=   6.0000000   6.0000000   6.0000000   6.0000000   6.0000000   6.0000000   6.0000000   6.0000000   6.0000000   6.0000000

  Atom        21          22          23          24          25          26          27          28          29          30
 IAtWgt=          12          12          12          12          12          12          12          12          12          12
 AtmWgt=  12.0000000  12.0000000  12.0000000  12.0000000  12.0000000  12.0000000  12.0000000  12.0000000  12.0000000  12.0000000
 NucSpn=           0           0           0           0           0           0           0           0           0           0
 AtZEff=  -0.0000000  -0.0000000  -0.0000000  -0.0000000  -0.0000000  -0.0000000  -0.0000000  -0.0000000  -0.0000000  -0.0000000
 NQMom=    0.0000000   0.0000000   0.0000000   0.0000000   0.0000000   0.0000000   0.0000000   0.0000000   0.0000000   0.0000000
 NMagM=    0.0000000   0.0000000   0.0000000   0.0000000   0.0000000   0.0000000   0.0000000   0.0000000   0.0000000   0.0000000
 AtZNuc=   6.0000000   6.0000000   6.0000000   6.0000000   6.0000000   6.0000000   6.0000000   6.0000000   6.0000000   6.0000000

  Atom        31          32          33          34          35          36          37          38          39          40
 IAtWgt=          12          12          12          12          12          12          12          12          12          12
 AtmWgt=  12.0000000  12.0000000  12.0000000  12.0000000  12.0000000  12.0000000  12.0000000  12.0000000  12.0000000  12.0000000
 NucSpn=           0           0           0           0           0           0           0           0           0           0
 AtZEff=  -0.0000000  -0.0000000  -0.0000000  -0.0000000  -0.0000000  -0.0000000  -0.0000000  -0.0000000  -0.0000000  -0.0000000
 NQMom=    0.0000000   0.0000000   0.0000000   0.0000000   0.0000000   0.0000000   0.0000000   0.0000000   0.0000000   0.0000000
 NMagM=    0.0000000   0.0000000   0.0000000   0.0000000   0.0000000   0.0000000   0.0000000   0.0000000   0.0000000   0.0000000
 AtZNuc=   6.0000000   6.0000000   6.0000000   6.0000000   6.0000000   6.0000000   6.0000000   6.0000000   6.0000000   6.0000000

  Atom        41          42          43          44          45          46          47          48          49          50
 IAtWgt=          12          12          12          12          12          12          12          12          12          12
 AtmWgt=  12.0000000  12.0000000  12.0000000  12.0000000  12.0000000  12.0000000  12.0000000  12.0000000  12.0000000  12.0000000
 NucSpn=           0           0           0           0           0           0           0           0           0           0
 AtZEff=  -0.0000000  -0.0000000  -0.0000000  -0.0000000  -0.0000000  -0.0000000  -0.0000000  -0.0000000  -0.0000000  -0.0000000
 NQMom=    0.0000000   0.0000000   0.0000000   0.0000000   0.0000000   0.0000000   0.0000000   0.0000000   0.0000000   0.0000000
 NMagM=    0.0000000   0.0000000   0.0000000   0.0000000   0.0000000   0.0000000   0.0000000   0.0000000   0.0000000   0.0000000
 AtZNuc=   6.0000000   6.0000000   6.0000000   6.0000000   6.0000000   6.0000000   6.0000000   6.0000000   6.0000000   6.0000000

  Atom        51          52          53          54          55          56          57          58          59          60
 IAtWgt=          12          12          12          12          12          12          12          12          12          12
 AtmWgt=  12.0000000  12.0000000  12.0000000  12.0000000  12.0000000  12.0000000  12.0000000  12.0000000  12.0000000  12.0000000
 NucSpn=           0           0           0           0           0           0           0           0           0           0
 AtZEff=  -0.0000000  -0.0000000  -0.0000000  -0.0000000  -0.0000000  -0.0000000  -0.0000000  -0.0000000  -0.0000000  -0.0000000
 NQMom=    0.0000000   0.0000000   0.0000000   0.0000000   0.0000000   0.0000000   0.0000000   0.0000000   0.0000000   0.0000000
 NMagM=    0.0000000   0.0000000   0.0000000   0.0000000   0.0000000   0.0000000   0.0000000   0.0000000   0.0000000   0.0000000
 AtZNuc=   6.0000000   6.0000000   6.0000000   6.0000000   6.0000000   6.0000000   6.0000000   6.0000000   6.0000000   6.0000000

  Atom        61          62          63          64          65          66          67          68          69          70
 IAtWgt=          12          12          12          12          12          12          12          12          12          12
 AtmWgt=  12.0000000  12.0000000  12.0000000  12.0000000  12.0000000  12.0000000  12.0000000  12.0000000  12.0000000  12.0000000
 NucSpn=           0           0           0           0           0           0           0           0           0           0
 AtZEff=  -0.0000000  -0.0000000  -0.0000000  -0.0000000  -0.0000000  -0.0000000  -0.0000000  -0.0000000  -0.0000000  -0.0000000
 NQMom=    0.0000000   0.0000000   0.0000000   0.0000000   0.0000000   0.0000000   0.0000000   0.0000000   0.0000000   0.0000000
 NMagM=    0.0000000   0.0000000   0.0000000   0.0000000   0.0000000   0.0000000   0.0000000   0.0000000   0.0000000   0.0000000
 AtZNuc=   6.0000000   6.0000000   6.0000000   6.0000000   6.0000000   6.0000000   6.0000000   6.0000000   6.0000000   6.0000000

  Atom        71          72          73          74          75          76          77          78          79          80
 IAtWgt=          12          12          12          12          12          12          12          12          12          12
 AtmWgt=  12.0000000  12.0000000  12.0000000  12.0000000  12.0000000  12.0000000  12.0000000  12.0000000  12.0000000  12.0000000
 NucSpn=           0           0           0           0           0           0           0           0           0           0
 AtZEff=  -0.0000000  -0.0000000  -0.0000000  -0.0000000  -0.0000000  -0.0000000  -0.0000000  -0.0000000  -0.0000000  -0.0000000
 NQMom=    0.0000000   0.0000000   0.0000000   0.0000000   0.0000000   0.0000000   0.0000000   0.0000000   0.0000000   0.0000000
 NMagM=    0.0000000   0.0000000   0.0000000   0.0000000   0.0000000   0.0000000   0.0000000   0.0000000   0.0000000   0.0000000
 AtZNuc=   6.0000000   6.0000000   6.0000000   6.0000000   6.0000000   6.0000000   6.0000000   6.0000000   6.0000000   6.0000000

  Atom        81          82          83          84          85          86          87          88          89          90
 IAtWgt=          12          12          12          12          35          35          35          35          35          35
 AtmWgt=  12.0000000  12.0000000  12.0000000  12.0000000  34.9688527  34.9688527  34.9688527  34.9688527  34.9688527  34.9688527
 NucSpn=           0           0           0           0           3           3           3           3           3           3
 AtZEff=  -0.0000000  -0.0000000  -0.0000000  -0.0000000  -0.0000000  -0.0000000  -0.0000000  -0.0000000  -0.0000000  -0.0000000
 NQMom=    0.0000000   0.0000000   0.0000000   0.0000000  -8.1650000  -8.1650000  -8.1650000  -8.1650000  -8.1650000  -8.1650000
 NMagM=    0.0000000   0.0000000   0.0000000   0.0000000   0.8218740   0.8218740   0.8218740   0.8218740   0.8218740   0.8218740
 AtZNuc=   6.0000000   6.0000000   6.0000000   6.0000000  17.0000000  17.0000000  17.0000000  17.0000000  17.0000000  17.0000000

  Atom        91          92          93          94          95          96
 IAtWgt=          35          35          35          35          35          35
 AtmWgt=  34.9688527  34.9688527  34.9688527  34.9688527  34.9688527  34.9688527
 NucSpn=           3           3           3           3           3           3
 AtZEff=  -0.0000000  -0.0000000  -0.0000000  -0.0000000  -0.0000000  -0.0000000
 NQMom=   -8.1650000  -8.1650000  -8.1650000  -8.1650000  -8.1650000  -8.1650000
 NMagM=    0.8218740   0.8218740   0.8218740   0.8218740   0.8218740   0.8218740
 AtZNuc=  17.0000000  17.0000000  17.0000000  17.0000000  17.0000000  17.0000000
 Leave Link  101 at Wed Jun 29 17:21:33 2022, MaxMem=  1342177280 cpu:               6.6 elap:               0.3
 (Enter /home/mkliu/g16/l103.exe)

 GradGradGradGradGradGradGradGradGradGradGradGradGradGradGradGradGradGrad
 Berny optimization.
 Initialization pass.
                           ----------------------------
                           !    Initial Parameters    !
                           ! (Angstroms and Degrees)  !
 --------------------------                            --------------------------
 ! Name  Definition              Value          Derivative Info.                !
 --------------------------------------------------------------------------------
 ! R1    R(1,5)                  1.5115         estimate D2E/DX2                !
 ! R2    R(1,17)                 1.4976         estimate D2E/DX2                !
 ! R3    R(1,23)                 1.5105         estimate D2E/DX2                !
 ! R4    R(1,96)                 1.8149         estimate D2E/DX2                !
 ! R5    R(2,6)                  1.4984         estimate D2E/DX2                !
 ! R6    R(2,43)                 1.522          estimate D2E/DX2                !
 ! R7    R(2,44)                 1.5099         estimate D2E/DX2                !
 ! R8    R(2,85)                 1.802          estimate D2E/DX2                !
 ! R9    R(3,7)                  1.4239         estimate D2E/DX2                !
 ! R10   R(3,18)                 1.411          estimate D2E/DX2                !
 ! R11   R(3,26)                 1.4228         estimate D2E/DX2                !
 ! R12   R(4,8)                  1.4989         estimate D2E/DX2                !
 ! R13   R(4,45)                 1.5063         estimate D2E/DX2                !
 ! R14   R(4,46)                 1.5174         estimate D2E/DX2                !
 ! R15   R(4,91)                 1.8101         estimate D2E/DX2                !
 ! R16   R(5,9)                  1.4271         estimate D2E/DX2                !
 ! R17   R(5,29)                 1.3946         estimate D2E/DX2                !
 ! R18   R(6,10)                 1.3618         estimate D2E/DX2                !
 ! R19   R(6,15)                 1.4285         estimate D2E/DX2                !
 ! R20   R(7,12)                 1.4125         estimate D2E/DX2                !
 ! R21   R(7,30)                 1.4178         estimate D2E/DX2                !
 ! R22   R(8,11)                 1.3596         estimate D2E/DX2                !
 ! R23   R(8,16)                 1.4199         estimate D2E/DX2                !
 ! R24   R(9,13)                 1.4169         estimate D2E/DX2                !
 ! R25   R(9,35)                 1.4283         estimate D2E/DX2                !
 ! R26   R(10,49)                1.5069         estimate D2E/DX2                !
 ! R27   R(10,53)                1.423          estimate D2E/DX2                !
 ! R28   R(11,50)                1.5078         estimate D2E/DX2                !
 ! R29   R(11,54)                1.4248         estimate D2E/DX2                !
 ! R30   R(12,14)                1.4142         estimate D2E/DX2                !
 ! R31   R(12,36)                1.4309         estimate D2E/DX2                !
 ! R32   R(13,15)                1.4384         estimate D2E/DX2                !
 ! R33   R(13,43)                1.3991         estimate D2E/DX2                !
 ! R34   R(14,16)                1.425          estimate D2E/DX2                !
 ! R35   R(14,46)                1.4073         estimate D2E/DX2                !
 ! R36   R(15,17)                1.3706         estimate D2E/DX2                !
 ! R37   R(16,18)                1.4121         estimate D2E/DX2                !
 ! R38   R(17,19)                1.4157         estimate D2E/DX2                !
 ! R39   R(18,20)                1.4303         estimate D2E/DX2                !
 ! R40   R(19,21)                1.4175         estimate D2E/DX2                !
 ! R41   R(19,53)                1.3955         estimate D2E/DX2                !
 ! R42   R(20,22)                1.4141         estimate D2E/DX2                !
 ! R43   R(20,54)                1.411          estimate D2E/DX2                !
 ! R44   R(21,23)                1.4454         estimate D2E/DX2                !
 ! R45   R(21,57)                1.4035         estimate D2E/DX2                !
 ! R46   R(22,24)                1.4214         estimate D2E/DX2                !
 ! R47   R(22,58)                1.4178         estimate D2E/DX2                !
 ! R48   R(23,25)                1.3339         estimate D2E/DX2                !
 ! R49   R(24,26)                1.3597         estimate D2E/DX2                !
 ! R50   R(24,62)                1.5006         estimate D2E/DX2                !
 ! R51   R(25,27)                1.497          estimate D2E/DX2                !
 ! R52   R(25,61)                1.4986         estimate D2E/DX2                !
 ! R53   R(26,28)                1.5057         estimate D2E/DX2                !
 ! R54   R(27,29)                1.5084         estimate D2E/DX2                !
 ! R55   R(27,65)                1.5087         estimate D2E/DX2                !
 ! R56   R(27,93)                1.8035         estimate D2E/DX2                !
 ! R57   R(28,30)                1.5007         estimate D2E/DX2                !
 ! R58   R(28,66)                1.5199         estimate D2E/DX2                !
 ! R59   R(28,89)                1.7991         estimate D2E/DX2                !
 ! R60   R(29,31)                1.3898         estimate D2E/DX2                !
 ! R61   R(30,32)                1.3557         estimate D2E/DX2                !
 ! R62   R(31,33)                1.3961         estimate D2E/DX2                !
 ! R63   R(31,69)                1.5188         estimate D2E/DX2                !
 ! R64   R(32,34)                1.4214         estimate D2E/DX2                !
 ! R65   R(32,70)                1.5056         estimate D2E/DX2                !
 ! R66   R(33,35)                1.4108         estimate D2E/DX2                !
 ! R67   R(33,73)                1.4352         estimate D2E/DX2                !
 ! R68   R(34,36)                1.4149         estimate D2E/DX2                !
 ! R69   R(34,74)                1.424          estimate D2E/DX2                !
 ! R70   R(35,37)                1.4407         estimate D2E/DX2                !
 ! R71   R(36,38)                1.4452         estimate D2E/DX2                !
 ! R72   R(37,39)                1.4152         estimate D2E/DX2                !
 ! R73   R(37,77)                1.4302         estimate D2E/DX2                !
 ! R74   R(38,42)                1.4481         estimate D2E/DX2                !
 ! R75   R(38,78)                1.4057         estimate D2E/DX2                !
 ! R76   R(39,43)                1.3825         estimate D2E/DX2                !
 ! R77   R(39,79)                1.5056         estimate D2E/DX2                !
 ! R78   R(40,41)                1.3984         estimate D2E/DX2                !
 ! R79   R(40,44)                1.3774         estimate D2E/DX2                !
 ! R80   R(40,79)                1.5106         estimate D2E/DX2                !
 ! R81   R(41,45)                1.3853         estimate D2E/DX2                !
 ! R82   R(41,80)                1.4519         estimate D2E/DX2                !
 ! R83   R(42,46)                1.3892         estimate D2E/DX2                !
 ! R84   R(42,80)                1.4263         estimate D2E/DX2                !
 ! R85   R(44,47)                1.4112         estimate D2E/DX2                !
 ! R86   R(45,48)                1.4025         estimate D2E/DX2                !
 ! R87   R(47,48)                1.4066         estimate D2E/DX2                !
 ! R88   R(47,49)                1.5202         estimate D2E/DX2                !
 ! R89   R(48,50)                1.5212         estimate D2E/DX2                !
 ! R90   R(49,51)                1.5061         estimate D2E/DX2                !
 ! R91   R(49,86)                1.8015         estimate D2E/DX2                !
 ! R92   R(50,52)                1.5002         estimate D2E/DX2                !
 ! R93   R(50,87)                1.7995         estimate D2E/DX2                !
 ! R94   R(51,52)                1.3549         estimate D2E/DX2                !
 ! R95   R(51,55)                1.4241         estimate D2E/DX2                !
 ! R96   R(52,56)                1.4197         estimate D2E/DX2                !
 ! R97   R(53,55)                1.4168         estimate D2E/DX2                !
 ! R98   R(54,56)                1.4206         estimate D2E/DX2                !
 ! R99   R(55,83)                1.4128         estimate D2E/DX2                !
 ! R100  R(56,84)                1.415          estimate D2E/DX2                !
 ! R101  R(57,59)                1.4379         estimate D2E/DX2                !
 ! R102  R(57,83)                1.4421         estimate D2E/DX2                !
 ! R103  R(58,60)                1.4208         estimate D2E/DX2                !
 ! R104  R(58,84)                1.408          estimate D2E/DX2                !
 ! R105  R(59,60)                1.3666         estimate D2E/DX2                !
 ! R106  R(59,61)                1.506          estimate D2E/DX2                !
 ! R107  R(60,62)                1.5171         estimate D2E/DX2                !
 ! R108  R(61,63)                1.5052         estimate D2E/DX2                !
 ! R109  R(61,95)                1.816          estimate D2E/DX2                !
 ! R110  R(62,64)                1.5073         estimate D2E/DX2                !
 ! R111  R(62,94)                1.8007         estimate D2E/DX2                !
 ! R112  R(63,64)                1.3828         estimate D2E/DX2                !
 ! R113  R(63,65)                1.387          estimate D2E/DX2                !
 ! R114  R(64,66)                1.4019         estimate D2E/DX2                !
 ! R115  R(65,67)                1.3849         estimate D2E/DX2                !
 ! R116  R(66,68)                1.4062         estimate D2E/DX2                !
 ! R117  R(67,68)                1.4029         estimate D2E/DX2                !
 ! R118  R(67,69)                1.5065         estimate D2E/DX2                !
 ! R119  R(68,70)                1.5225         estimate D2E/DX2                !
 ! R120  R(69,71)                1.5008         estimate D2E/DX2                !
 ! R121  R(69,92)                1.8004         estimate D2E/DX2                !
 ! R122  R(70,72)                1.5059         estimate D2E/DX2                !
 ! R123  R(70,90)                1.8005         estimate D2E/DX2                !
 ! R124  R(71,72)                1.3641         estimate D2E/DX2                !
 ! R125  R(71,73)                1.4228         estimate D2E/DX2                !
 ! R126  R(72,74)                1.4286         estimate D2E/DX2                !
 ! R127  R(73,75)                1.3791         estimate D2E/DX2                !
 ! R128  R(74,76)                1.3853         estimate D2E/DX2                !
 ! R129  R(75,76)                1.4288         estimate D2E/DX2                !
 ! R130  R(75,77)                1.4317         estimate D2E/DX2                !
 ! R131  R(76,78)                1.4283         estimate D2E/DX2                !
 ! R132  R(77,81)                1.4182         estimate D2E/DX2                !
 ! R133  R(78,81)                1.4417         estimate D2E/DX2                !
 ! R134  R(79,82)                1.5016         estimate D2E/DX2                !
 ! R135  R(79,88)                1.8075         estimate D2E/DX2                !
 ! R136  R(80,82)                1.3822         estimate D2E/DX2                !
 ! R137  R(81,82)                1.3883         estimate D2E/DX2                !
 ! R138  R(83,84)                1.4277         estimate D2E/DX2                !
 ! A1    A(5,1,17)             113.1551         estimate D2E/DX2                !
 ! A2    A(5,1,23)             110.2883         estimate D2E/DX2                !
 ! A3    A(5,1,96)             108.1435         estimate D2E/DX2                !
 ! A4    A(17,1,23)            101.497          estimate D2E/DX2                !
 ! A5    A(17,1,96)            112.1167         estimate D2E/DX2                !
 ! A6    A(23,1,96)            111.5874         estimate D2E/DX2                !
 ! A7    A(6,2,43)             101.3705         estimate D2E/DX2                !
 ! A8    A(6,2,44)             110.7002         estimate D2E/DX2                !
 ! A9    A(6,2,85)             112.8863         estimate D2E/DX2                !
 ! A10   A(43,2,44)            109.0279         estimate D2E/DX2                !
 ! A11   A(43,2,85)            112.4327         estimate D2E/DX2                !
 ! A12   A(44,2,85)            110.108          estimate D2E/DX2                !
 ! A13   A(7,3,18)             121.6777         estimate D2E/DX2                !
 ! A14   A(7,3,26)             108.4801         estimate D2E/DX2                !
 ! A15   A(18,3,26)            121.8538         estimate D2E/DX2                !
 ! A16   A(8,4,45)             110.0921         estimate D2E/DX2                !
 ! A17   A(8,4,46)             101.621          estimate D2E/DX2                !
 ! A18   A(8,4,91)             112.8081         estimate D2E/DX2                !
 ! A19   A(45,4,46)            111.2264         estimate D2E/DX2                !
 ! A20   A(45,4,91)            109.5068         estimate D2E/DX2                !
 ! A21   A(46,4,91)            111.4092         estimate D2E/DX2                !
 ! A22   A(1,5,9)              120.3844         estimate D2E/DX2                !
 ! A23   A(1,5,29)             117.9899         estimate D2E/DX2                !
 ! A24   A(9,5,29)             120.2886         estimate D2E/DX2                !
 ! A25   A(2,6,10)             122.2793         estimate D2E/DX2                !
 ! A26   A(2,6,15)             109.9797         estimate D2E/DX2                !
 ! A27   A(10,6,15)            119.9379         estimate D2E/DX2                !
 ! A28   A(3,7,12)             121.9271         estimate D2E/DX2                !
 ! A29   A(3,7,30)             108.2854         estimate D2E/DX2                !
 ! A30   A(12,7,30)            121.5568         estimate D2E/DX2                !
 ! A31   A(4,8,11)             121.9187         estimate D2E/DX2                !
 ! A32   A(4,8,16)             110.2045         estimate D2E/DX2                !
 ! A33   A(11,8,16)            120.3133         estimate D2E/DX2                !
 ! A34   A(5,9,13)             119.4782         estimate D2E/DX2                !
 ! A35   A(5,9,35)             120.6094         estimate D2E/DX2                !
 ! A36   A(13,9,35)            116.6165         estimate D2E/DX2                !
 ! A37   A(6,10,49)            123.6818         estimate D2E/DX2                !
 ! A38   A(6,10,53)            118.3868         estimate D2E/DX2                !
 ! A39   A(49,10,53)           109.7808         estimate D2E/DX2                !
 ! A40   A(8,11,50)            123.1053         estimate D2E/DX2                !
 ! A41   A(8,11,54)            119.1072         estimate D2E/DX2                !
 ! A42   A(50,11,54)           110.7312         estimate D2E/DX2                !
 ! A43   A(7,12,14)            115.6786         estimate D2E/DX2                !
 ! A44   A(7,12,36)            119.7747         estimate D2E/DX2                !
 ! A45   A(14,12,36)           119.1401         estimate D2E/DX2                !
 ! A46   A(9,13,15)            121.3327         estimate D2E/DX2                !
 ! A47   A(9,13,43)            121.1387         estimate D2E/DX2                !
 ! A48   A(15,13,43)           108.8791         estimate D2E/DX2                !
 ! A49   A(12,14,16)           122.1514         estimate D2E/DX2                !
 ! A50   A(12,14,46)           121.6208         estimate D2E/DX2                !
 ! A51   A(16,14,46)           109.1655         estimate D2E/DX2                !
 ! A52   A(6,15,13)            108.0964         estimate D2E/DX2                !
 ! A53   A(6,15,17)            122.1386         estimate D2E/DX2                !
 ! A54   A(13,15,17)           120.0501         estimate D2E/DX2                !
 ! A55   A(8,16,14)            108.4827         estimate D2E/DX2                !
 ! A56   A(8,16,18)            121.8632         estimate D2E/DX2                !
 ! A57   A(14,16,18)           121.301          estimate D2E/DX2                !
 ! A58   A(1,17,15)            122.2121         estimate D2E/DX2                !
 ! A59   A(1,17,19)            110.3837         estimate D2E/DX2                !
 ! A60   A(15,17,19)           117.805          estimate D2E/DX2                !
 ! A61   A(3,18,16)            116.2727         estimate D2E/DX2                !
 ! A62   A(3,18,20)            118.7633         estimate D2E/DX2                !
 ! A63   A(16,18,20)           117.946          estimate D2E/DX2                !
 ! A64   A(17,19,21)           109.9887         estimate D2E/DX2                !
 ! A65   A(17,19,53)           119.8037         estimate D2E/DX2                !
 ! A66   A(21,19,53)           119.9935         estimate D2E/DX2                !
 ! A67   A(18,20,22)           117.8783         estimate D2E/DX2                !
 ! A68   A(18,20,54)           118.6765         estimate D2E/DX2                !
 ! A69   A(22,20,54)           116.3939         estimate D2E/DX2                !
 ! A70   A(19,21,23)           107.0851         estimate D2E/DX2                !
 ! A71   A(19,21,57)           121.6779         estimate D2E/DX2                !
 ! A72   A(23,21,57)           121.012          estimate D2E/DX2                !
 ! A73   A(20,22,24)           121.8893         estimate D2E/DX2                !
 ! A74   A(20,22,58)           121.1532         estimate D2E/DX2                !
 ! A75   A(24,22,58)           108.5337         estimate D2E/DX2                !
 ! A76   A(1,23,21)            110.5355         estimate D2E/DX2                !
 ! A77   A(1,23,25)            122.9229         estimate D2E/DX2                !
 ! A78   A(21,23,25)           121.9585         estimate D2E/DX2                !
 ! A79   A(22,24,26)           120.0838         estimate D2E/DX2                !
 ! A80   A(22,24,62)           110.3441         estimate D2E/DX2                !
 ! A81   A(26,24,62)           122.0378         estimate D2E/DX2                !
 ! A82   A(23,25,27)           121.5718         estimate D2E/DX2                !
 ! A83   A(23,25,61)           120.98           estimate D2E/DX2                !
 ! A84   A(27,25,61)           112.2915         estimate D2E/DX2                !
 ! A85   A(3,26,24)            119.4026         estimate D2E/DX2                !
 ! A86   A(3,26,28)            110.6844         estimate D2E/DX2                !
 ! A87   A(24,26,28)           122.8272         estimate D2E/DX2                !
 ! A88   A(25,27,29)           111.823          estimate D2E/DX2                !
 ! A89   A(25,27,65)           100.2305         estimate D2E/DX2                !
 ! A90   A(25,27,93)           113.2254         estimate D2E/DX2                !
 ! A91   A(29,27,65)           107.7987         estimate D2E/DX2                !
 ! A92   A(29,27,93)           110.8538         estimate D2E/DX2                !
 ! A93   A(65,27,93)           112.3793         estimate D2E/DX2                !
 ! A94   A(26,28,30)           101.0509         estimate D2E/DX2                !
 ! A95   A(26,28,66)           110.019          estimate D2E/DX2                !
 ! A96   A(26,28,89)           113.2924         estimate D2E/DX2                !
 ! A97   A(30,28,66)           109.1415         estimate D2E/DX2                !
 ! A98   A(30,28,89)           113.8805         estimate D2E/DX2                !
 ! A99   A(66,28,89)           109.1825         estimate D2E/DX2                !
 ! A100  A(5,29,27)            123.2166         estimate D2E/DX2                !
 ! A101  A(5,29,31)            119.0155         estimate D2E/DX2                !
 ! A102  A(27,29,31)           115.9152         estimate D2E/DX2                !
 ! A103  A(7,30,28)            111.2692         estimate D2E/DX2                !
 ! A104  A(7,30,32)            119.2599         estimate D2E/DX2                !
 ! A105  A(28,30,32)           122.5029         estimate D2E/DX2                !
 ! A106  A(29,31,33)           120.858          estimate D2E/DX2                !
 ! A107  A(29,31,69)           124.7203         estimate D2E/DX2                !
 ! A108  A(33,31,69)           110.2834         estimate D2E/DX2                !
 ! A109  A(30,32,34)           120.1779         estimate D2E/DX2                !
 ! A110  A(30,32,70)           121.5566         estimate D2E/DX2                !
 ! A111  A(34,32,70)           111.4756         estimate D2E/DX2                !
 ! A112  A(31,33,35)           121.983          estimate D2E/DX2                !
 ! A113  A(31,33,73)           108.7954         estimate D2E/DX2                !
 ! A114  A(35,33,73)           122.3389         estimate D2E/DX2                !
 ! A115  A(32,34,36)           122.5013         estimate D2E/DX2                !
 ! A116  A(32,34,74)           107.5085         estimate D2E/DX2                !
 ! A117  A(36,34,74)           121.7375         estimate D2E/DX2                !
 ! A118  A(9,35,33)            116.2841         estimate D2E/DX2                !
 ! A119  A(9,35,37)            121.1313         estimate D2E/DX2                !
 ! A120  A(33,35,37)           118.9143         estimate D2E/DX2                !
 ! A121  A(12,36,34)           116.4067         estimate D2E/DX2                !
 ! A122  A(12,36,38)           119.3576         estimate D2E/DX2                !
 ! A123  A(34,36,38)           118.8965         estimate D2E/DX2                !
 ! A124  A(35,37,39)           118.6488         estimate D2E/DX2                !
 ! A125  A(35,37,77)           118.1726         estimate D2E/DX2                !
 ! A126  A(39,37,77)           118.5241         estimate D2E/DX2                !
 ! A127  A(36,38,42)           119.1909         estimate D2E/DX2                !
 ! A128  A(36,38,78)           118.3509         estimate D2E/DX2                !
 ! A129  A(42,38,78)           117.253          estimate D2E/DX2                !
 ! A130  A(37,39,43)           119.6372         estimate D2E/DX2                !
 ! A131  A(37,39,79)           122.0525         estimate D2E/DX2                !
 ! A132  A(43,39,79)           116.2483         estimate D2E/DX2                !
 ! A133  A(41,40,44)           120.7897         estimate D2E/DX2                !
 ! A134  A(41,40,79)           109.7486         estimate D2E/DX2                !
 ! A135  A(44,40,79)           125.5251         estimate D2E/DX2                !
 ! A136  A(40,41,45)           121.2598         estimate D2E/DX2                !
 ! A137  A(40,41,80)           109.1254         estimate D2E/DX2                !
 ! A138  A(45,41,80)           124.108          estimate D2E/DX2                !
 ! A139  A(38,42,46)           119.9805         estimate D2E/DX2                !
 ! A140  A(38,42,80)           118.6387         estimate D2E/DX2                !
 ! A141  A(46,42,80)           115.8396         estimate D2E/DX2                !
 ! A142  A(2,43,13)            110.3992         estimate D2E/DX2                !
 ! A143  A(2,43,39)            124.4993         estimate D2E/DX2                !
 ! A144  A(13,43,39)           121.4564         estimate D2E/DX2                !
 ! A145  A(2,44,40)            115.5223         estimate D2E/DX2                !
 ! A146  A(2,44,47)            124.1223         estimate D2E/DX2                !
 ! A147  A(40,44,47)           118.8203         estimate D2E/DX2                !
 ! A148  A(4,45,41)            115.5874         estimate D2E/DX2                !
 ! A149  A(4,45,48)            124.4748         estimate D2E/DX2                !
 ! A150  A(41,45,48)           118.6038         estimate D2E/DX2                !
 ! A151  A(4,46,14)            109.679          estimate D2E/DX2                !
 ! A152  A(4,46,42)            124.7718         estimate D2E/DX2                !
 ! A153  A(14,46,42)           120.4367         estimate D2E/DX2                !
 ! A154  A(44,47,48)           120.1799         estimate D2E/DX2                !
 ! A155  A(44,47,49)           118.8235         estimate D2E/DX2                !
 ! A156  A(48,47,49)           120.3904         estimate D2E/DX2                !
 ! A157  A(45,48,47)           120.2607         estimate D2E/DX2                !
 ! A158  A(45,48,50)           118.1279         estimate D2E/DX2                !
 ! A159  A(47,48,50)           120.8299         estimate D2E/DX2                !
 ! A160  A(10,49,47)           110.5657         estimate D2E/DX2                !
 ! A161  A(10,49,51)           101.2328         estimate D2E/DX2                !
 ! A162  A(10,49,86)           113.2341         estimate D2E/DX2                !
 ! A163  A(47,49,51)           109.1093         estimate D2E/DX2                !
 ! A164  A(47,49,86)           108.9563         estimate D2E/DX2                !
 ! A165  A(51,49,86)           113.5238         estimate D2E/DX2                !
 ! A166  A(11,50,48)           110.3337         estimate D2E/DX2                !
 ! A167  A(11,50,52)           100.9625         estimate D2E/DX2                !
 ! A168  A(11,50,87)           113.0113         estimate D2E/DX2                !
 ! A169  A(48,50,52)           109.2101         estimate D2E/DX2                !
 ! A170  A(48,50,87)           109.1938         estimate D2E/DX2                !
 ! A171  A(52,50,87)           113.8725         estimate D2E/DX2                !
 ! A172  A(49,51,52)           121.9203         estimate D2E/DX2                !
 ! A173  A(49,51,55)           111.2299         estimate D2E/DX2                !
 ! A174  A(52,51,55)           120.014          estimate D2E/DX2                !
 ! A175  A(50,52,51)           122.413          estimate D2E/DX2                !
 ! A176  A(50,52,56)           111.1982         estimate D2E/DX2                !
 ! A177  A(51,52,56)           119.2527         estimate D2E/DX2                !
 ! A178  A(10,53,19)           121.3648         estimate D2E/DX2                !
 ! A179  A(10,53,55)           109.6388         estimate D2E/DX2                !
 ! A180  A(19,53,55)           119.1181         estimate D2E/DX2                !
 ! A181  A(11,54,20)           121.9678         estimate D2E/DX2                !
 ! A182  A(11,54,56)           108.3521         estimate D2E/DX2                !
 ! A183  A(20,54,56)           121.6564         estimate D2E/DX2                !
 ! A184  A(51,55,53)           107.5269         estimate D2E/DX2                !
 ! A185  A(51,55,83)           122.5916         estimate D2E/DX2                !
 ! A186  A(53,55,83)           121.6049         estimate D2E/DX2                !
 ! A187  A(52,56,54)           108.4943         estimate D2E/DX2                !
 ! A188  A(52,56,84)           121.6073         estimate D2E/DX2                !
 ! A189  A(54,56,84)           121.4573         estimate D2E/DX2                !
 ! A190  A(21,57,59)           117.7104         estimate D2E/DX2                !
 ! A191  A(21,57,83)           118.4287         estimate D2E/DX2                !
 ! A192  A(59,57,83)           119.725          estimate D2E/DX2                !
 ! A193  A(22,58,60)           109.2116         estimate D2E/DX2                !
 ! A194  A(22,58,84)           122.1725         estimate D2E/DX2                !
 ! A195  A(60,58,84)           121.2604         estimate D2E/DX2                !
 ! A196  A(57,59,60)           119.7785         estimate D2E/DX2                !
 ! A197  A(57,59,61)           121.2108         estimate D2E/DX2                !
 ! A198  A(60,59,61)           116.6939         estimate D2E/DX2                !
 ! A199  A(58,60,59)           120.9849         estimate D2E/DX2                !
 ! A200  A(58,60,62)           109.3016         estimate D2E/DX2                !
 ! A201  A(59,60,62)           125.131          estimate D2E/DX2                !
 ! A202  A(25,61,59)           113.7806         estimate D2E/DX2                !
 ! A203  A(25,61,63)           100.227          estimate D2E/DX2                !
 ! A204  A(25,61,95)           111.9899         estimate D2E/DX2                !
 ! A205  A(59,61,63)           109.4573         estimate D2E/DX2                !
 ! A206  A(59,61,95)           109.9674         estimate D2E/DX2                !
 ! A207  A(63,61,95)           111.0606         estimate D2E/DX2                !
 ! A208  A(24,62,60)           101.5589         estimate D2E/DX2                !
 ! A209  A(24,62,64)           109.9473         estimate D2E/DX2                !
 ! A210  A(24,62,94)           113.2966         estimate D2E/DX2                !
 ! A211  A(60,62,64)           109.5638         estimate D2E/DX2                !
 ! A212  A(60,62,94)           112.2362         estimate D2E/DX2                !
 ! A213  A(64,62,94)           109.9461         estimate D2E/DX2                !
 ! A214  A(61,63,64)           125.294          estimate D2E/DX2                !
 ! A215  A(61,63,65)           111.4542         estimate D2E/DX2                !
 ! A216  A(64,63,65)           120.9262         estimate D2E/DX2                !
 ! A217  A(62,64,63)           116.1184         estimate D2E/DX2                !
 ! A218  A(62,64,66)           123.7829         estimate D2E/DX2                !
 ! A219  A(63,64,66)           118.9958         estimate D2E/DX2                !
 ! A220  A(27,65,63)           111.3815         estimate D2E/DX2                !
 ! A221  A(27,65,67)           125.3686         estimate D2E/DX2                !
 ! A222  A(63,65,67)           120.8997         estimate D2E/DX2                !
 ! A223  A(28,66,64)           118.673          estimate D2E/DX2                !
 ! A224  A(28,66,68)           120.4853         estimate D2E/DX2                !
 ! A225  A(64,66,68)           120.2224         estimate D2E/DX2                !
 ! A226  A(65,67,68)           119.1185         estimate D2E/DX2                !
 ! A227  A(65,67,69)           115.7923         estimate D2E/DX2                !
 ! A228  A(68,67,69)           123.9364         estimate D2E/DX2                !
 ! A229  A(66,68,67)           119.7897         estimate D2E/DX2                !
 ! A230  A(66,68,70)           120.4932         estimate D2E/DX2                !
 ! A231  A(67,68,70)           119.2042         estimate D2E/DX2                !
 ! A232  A(31,69,67)           107.9079         estimate D2E/DX2                !
 ! A233  A(31,69,71)           101.7981         estimate D2E/DX2                !
 ! A234  A(31,69,92)           113.0306         estimate D2E/DX2                !
 ! A235  A(67,69,71)           110.5287         estimate D2E/DX2                !
 ! A236  A(67,69,92)           110.239          estimate D2E/DX2                !
 ! A237  A(71,69,92)           112.9764         estimate D2E/DX2                !
 ! A238  A(32,70,68)           108.972          estimate D2E/DX2                !
 ! A239  A(32,70,72)           101.2736         estimate D2E/DX2                !
 ! A240  A(32,70,90)           113.7706         estimate D2E/DX2                !
 ! A241  A(68,70,72)           110.6432         estimate D2E/DX2                !
 ! A242  A(68,70,90)           108.6879         estimate D2E/DX2                !
 ! A243  A(72,70,90)           113.2956         estimate D2E/DX2                !
 ! A244  A(69,71,72)           122.5669         estimate D2E/DX2                !
 ! A245  A(69,71,73)           109.3934         estimate D2E/DX2                !
 ! A246  A(72,71,73)           119.4599         estimate D2E/DX2                !
 ! A247  A(70,72,71)           122.9766         estimate D2E/DX2                !
 ! A248  A(70,72,74)           109.8622         estimate D2E/DX2                !
 ! A249  A(71,72,74)           119.0117         estimate D2E/DX2                !
 ! A250  A(33,73,71)           108.6564         estimate D2E/DX2                !
 ! A251  A(33,73,75)           118.7015         estimate D2E/DX2                !
 ! A252  A(71,73,75)           122.1203         estimate D2E/DX2                !
 ! A253  A(34,74,72)           109.2651         estimate D2E/DX2                !
 ! A254  A(34,74,76)           118.995          estimate D2E/DX2                !
 ! A255  A(72,74,76)           121.67           estimate D2E/DX2                !
 ! A256  A(73,75,76)           118.4369         estimate D2E/DX2                !
 ! A257  A(73,75,77)           120.6052         estimate D2E/DX2                !
 ! A258  A(76,75,77)           108.9042         estimate D2E/DX2                !
 ! A259  A(74,76,75)           118.9824         estimate D2E/DX2                !
 ! A260  A(74,76,78)           120.3107         estimate D2E/DX2                !
 ! A261  A(75,76,78)           107.8767         estimate D2E/DX2                !
 ! A262  A(37,77,75)           121.1778         estimate D2E/DX2                !
 ! A263  A(37,77,81)           120.3898         estimate D2E/DX2                !
 ! A264  A(75,77,81)           106.5009         estimate D2E/DX2                !
 ! A265  A(38,78,76)           121.5495         estimate D2E/DX2                !
 ! A266  A(38,78,81)           121.6486         estimate D2E/DX2                !
 ! A267  A(76,78,81)           106.5244         estimate D2E/DX2                !
 ! A268  A(39,79,40)           109.4966         estimate D2E/DX2                !
 ! A269  A(39,79,82)           112.0728         estimate D2E/DX2                !
 ! A270  A(39,79,88)           110.0078         estimate D2E/DX2                !
 ! A271  A(40,79,82)           100.8849         estimate D2E/DX2                !
 ! A272  A(40,79,88)           111.9577         estimate D2E/DX2                !
 ! A273  A(82,79,88)           112.1352         estimate D2E/DX2                !
 ! A274  A(41,80,42)           119.2367         estimate D2E/DX2                !
 ! A275  A(41,80,82)           107.3555         estimate D2E/DX2                !
 ! A276  A(42,80,82)           122.8014         estimate D2E/DX2                !
 ! A277  A(77,81,78)           109.2198         estimate D2E/DX2                !
 ! A278  A(77,81,82)           120.5821         estimate D2E/DX2                !
 ! A279  A(78,81,82)           119.5726         estimate D2E/DX2                !
 ! A280  A(79,82,80)           111.9089         estimate D2E/DX2                !
 ! A281  A(79,82,81)           121.1944         estimate D2E/DX2                !
 ! A282  A(80,82,81)           119.3312         estimate D2E/DX2                !
 ! A283  A(55,83,57)           118.9167         estimate D2E/DX2                !
 ! A284  A(55,83,84)           116.5703         estimate D2E/DX2                !
 ! A285  A(57,83,84)           119.3637         estimate D2E/DX2                !
 ! A286  A(56,84,58)           116.0981         estimate D2E/DX2                !
 ! A287  A(56,84,83)           119.6155         estimate D2E/DX2                !
 ! A288  A(58,84,83)           118.7646         estimate D2E/DX2                !
 ! D1    D(17,1,5,9)            20.0533         estimate D2E/DX2                !
 ! D2    D(17,1,5,29)         -146.7839         estimate D2E/DX2                !
 ! D3    D(23,1,5,9)           132.9592         estimate D2E/DX2                !
 ! D4    D(23,1,5,29)          -33.878          estimate D2E/DX2                !
 ! D5    D(96,1,5,9)          -104.7701         estimate D2E/DX2                !
 ! D6    D(96,1,5,29)           88.3927         estimate D2E/DX2                !
 ! D7    D(5,1,17,15)          -20.4841         estimate D2E/DX2                !
 ! D8    D(5,1,17,19)          124.8269         estimate D2E/DX2                !
 ! D9    D(23,1,17,15)        -138.6374         estimate D2E/DX2                !
 ! D10   D(23,1,17,19)           6.6736         estimate D2E/DX2                !
 ! D11   D(96,1,17,15)         102.1577         estimate D2E/DX2                !
 ! D12   D(96,1,17,19)        -112.5313         estimate D2E/DX2                !
 ! D13   D(5,1,23,21)         -123.9181         estimate D2E/DX2                !
 ! D14   D(5,1,23,25)           32.417          estimate D2E/DX2                !
 ! D15   D(17,1,23,21)          -3.719          estimate D2E/DX2                !
 ! D16   D(17,1,23,25)         152.6161         estimate D2E/DX2                !
 ! D17   D(96,1,23,21)         115.8626         estimate D2E/DX2                !
 ! D18   D(96,1,23,25)         -87.8022         estimate D2E/DX2                !
 ! D19   D(43,2,6,10)         -137.709          estimate D2E/DX2                !
 ! D20   D(43,2,6,15)           11.3553         estimate D2E/DX2                !
 ! D21   D(44,2,6,10)          -22.1465         estimate D2E/DX2                !
 ! D22   D(44,2,6,15)          126.9179         estimate D2E/DX2                !
 ! D23   D(85,2,6,10)          101.801          estimate D2E/DX2                !
 ! D24   D(85,2,6,15)         -109.1347         estimate D2E/DX2                !
 ! D25   D(6,2,43,13)           -9.0492         estimate D2E/DX2                !
 ! D26   D(6,2,43,39)          149.5671         estimate D2E/DX2                !
 ! D27   D(44,2,43,13)        -125.8409         estimate D2E/DX2                !
 ! D28   D(44,2,43,39)          32.7754         estimate D2E/DX2                !
 ! D29   D(85,2,43,13)         111.7604         estimate D2E/DX2                !
 ! D30   D(85,2,43,39)         -89.6233         estimate D2E/DX2                !
 ! D31   D(6,2,44,40)         -147.7698         estimate D2E/DX2                !
 ! D32   D(6,2,44,47)           17.8837         estimate D2E/DX2                !
 ! D33   D(43,2,44,40)         -37.0831         estimate D2E/DX2                !
 ! D34   D(43,2,44,47)         128.5704         estimate D2E/DX2                !
 ! D35   D(85,2,44,40)          86.7044         estimate D2E/DX2                !
 ! D36   D(85,2,44,47)        -107.6421         estimate D2E/DX2                !
 ! D37   D(18,3,7,12)            3.3222         estimate D2E/DX2                !
 ! D38   D(18,3,7,30)          152.1166         estimate D2E/DX2                !
 ! D39   D(26,3,7,12)         -146.0052         estimate D2E/DX2                !
 ! D40   D(26,3,7,30)            2.7892         estimate D2E/DX2                !
 ! D41   D(7,3,18,16)            5.9419         estimate D2E/DX2                !
 ! D42   D(7,3,18,20)         -144.1878         estimate D2E/DX2                !
 ! D43   D(26,3,18,16)         151.2188         estimate D2E/DX2                !
 ! D44   D(26,3,18,20)           1.089          estimate D2E/DX2                !
 ! D45   D(7,3,26,24)          146.562          estimate D2E/DX2                !
 ! D46   D(7,3,26,28)           -4.8281         estimate D2E/DX2                !
 ! D47   D(18,3,26,24)          -2.7006         estimate D2E/DX2                !
 ! D48   D(18,3,26,28)        -154.0907         estimate D2E/DX2                !
 ! D49   D(45,4,8,11)           23.7776         estimate D2E/DX2                !
 ! D50   D(45,4,8,16)         -125.8623         estimate D2E/DX2                !
 ! D51   D(46,4,8,11)          141.7346         estimate D2E/DX2                !
 ! D52   D(46,4,8,16)           -7.9053         estimate D2E/DX2                !
 ! D53   D(91,4,8,11)          -98.8749         estimate D2E/DX2                !
 ! D54   D(91,4,8,16)          111.4852         estimate D2E/DX2                !
 ! D55   D(8,4,45,41)          144.1731         estimate D2E/DX2                !
 ! D56   D(8,4,45,48)          -22.4042         estimate D2E/DX2                !
 ! D57   D(46,4,45,41)          32.3233         estimate D2E/DX2                !
 ! D58   D(46,4,45,48)        -134.2541         estimate D2E/DX2                !
 ! D59   D(91,4,45,41)         -91.252          estimate D2E/DX2                !
 ! D60   D(91,4,45,48)         102.1707         estimate D2E/DX2                !
 ! D61   D(8,4,46,14)            9.2365         estimate D2E/DX2                !
 ! D62   D(8,4,46,42)         -145.3548         estimate D2E/DX2                !
 ! D63   D(45,4,46,14)         126.3736         estimate D2E/DX2                !
 ! D64   D(45,4,46,42)         -28.2177         estimate D2E/DX2                !
 ! D65   D(91,4,46,14)        -111.1429         estimate D2E/DX2                !
 ! D66   D(91,4,46,42)          94.2658         estimate D2E/DX2                !
 ! D67   D(1,5,9,13)            -9.5864         estimate D2E/DX2                !
 ! D68   D(1,5,9,35)          -168.3962         estimate D2E/DX2                !
 ! D69   D(29,5,9,13)          156.9475         estimate D2E/DX2                !
 ! D70   D(29,5,9,35)           -1.8623         estimate D2E/DX2                !
 ! D71   D(1,5,29,27)           10.4856         estimate D2E/DX2                !
 ! D72   D(1,5,29,31)          174.3414         estimate D2E/DX2                !
 ! D73   D(9,5,29,27)         -156.3647         estimate D2E/DX2                !
 ! D74   D(9,5,29,31)            7.4911         estimate D2E/DX2                !
 ! D75   D(2,6,10,49)            0.1069         estimate D2E/DX2                !
 ! D76   D(2,6,10,53)          145.436          estimate D2E/DX2                !
 ! D77   D(15,6,10,49)        -146.0081         estimate D2E/DX2                !
 ! D78   D(15,6,10,53)          -0.679          estimate D2E/DX2                !
 ! D79   D(2,6,15,13)           -9.9383         estimate D2E/DX2                !
 ! D80   D(2,6,15,17)         -155.7758         estimate D2E/DX2                !
 ! D81   D(10,6,15,13)         139.959          estimate D2E/DX2                !
 ! D82   D(10,6,15,17)          -5.8785         estimate D2E/DX2                !
 ! D83   D(3,7,12,14)           -8.5811         estimate D2E/DX2                !
 ! D84   D(3,7,12,36)          145.2588         estimate D2E/DX2                !
 ! D85   D(30,7,12,14)        -153.3187         estimate D2E/DX2                !
 ! D86   D(30,7,12,36)           0.5212         estimate D2E/DX2                !
 ! D87   D(3,7,30,28)            0.2686         estimate D2E/DX2                !
 ! D88   D(3,7,30,32)         -151.2575         estimate D2E/DX2                !
 ! D89   D(12,7,30,28)         149.2014         estimate D2E/DX2                !
 ! D90   D(12,7,30,32)          -2.3247         estimate D2E/DX2                !
 ! D91   D(4,8,11,50)            2.2019         estimate D2E/DX2                !
 ! D92   D(4,8,11,54)         -145.651          estimate D2E/DX2                !
 ! D93   D(16,8,11,50)         148.8723         estimate D2E/DX2                !
 ! D94   D(16,8,11,54)           1.0194         estimate D2E/DX2                !
 ! D95   D(4,8,16,14)            3.9806         estimate D2E/DX2                !
 ! D96   D(4,8,16,18)          152.4917         estimate D2E/DX2                !
 ! D97   D(11,8,16,14)        -146.2206         estimate D2E/DX2                !
 ! D98   D(11,8,16,18)           2.2905         estimate D2E/DX2                !
 ! D99   D(5,9,13,15)           -2.522          estimate D2E/DX2                !
 ! D100  D(5,9,13,43)         -146.6563         estimate D2E/DX2                !
 ! D101  D(35,9,13,15)         157.1145         estimate D2E/DX2                !
 ! D102  D(35,9,13,43)          12.9802         estimate D2E/DX2                !
 ! D103  D(5,9,35,33)           -6.8233         estimate D2E/DX2                !
 ! D104  D(5,9,35,37)          151.3448         estimate D2E/DX2                !
 ! D105  D(13,9,35,33)        -166.2154         estimate D2E/DX2                !
 ! D106  D(13,9,35,37)          -8.0472         estimate D2E/DX2                !
 ! D107  D(6,10,49,47)          25.9565         estimate D2E/DX2                !
 ! D108  D(6,10,49,51)         141.4874         estimate D2E/DX2                !
 ! D109  D(6,10,49,86)         -96.6355         estimate D2E/DX2                !
 ! D110  D(53,10,49,47)       -121.9135         estimate D2E/DX2                !
 ! D111  D(53,10,49,51)         -6.3826         estimate D2E/DX2                !
 ! D112  D(53,10,49,86)        115.4946         estimate D2E/DX2                !
 ! D113  D(6,10,53,19)           3.774          estimate D2E/DX2                !
 ! D114  D(6,10,53,55)        -141.5727         estimate D2E/DX2                !
 ! D115  D(49,10,53,19)        153.5719         estimate D2E/DX2                !
 ! D116  D(49,10,53,55)          8.2252         estimate D2E/DX2                !
 ! D117  D(8,11,50,48)         -29.7495         estimate D2E/DX2                !
 ! D118  D(8,11,50,52)        -145.1665         estimate D2E/DX2                !
 ! D119  D(8,11,50,87)          92.8193         estimate D2E/DX2                !
 ! D120  D(54,11,50,48)        120.4434         estimate D2E/DX2                !
 ! D121  D(54,11,50,52)          5.0264         estimate D2E/DX2                !
 ! D122  D(54,11,50,87)       -116.9878         estimate D2E/DX2                !
 ! D123  D(8,11,54,20)          -2.7199         estimate D2E/DX2                !
 ! D124  D(8,11,54,56)         146.4648         estimate D2E/DX2                !
 ! D125  D(50,11,54,20)       -154.2579         estimate D2E/DX2                !
 ! D126  D(50,11,54,56)         -5.0732         estimate D2E/DX2                !
 ! D127  D(7,12,14,16)           4.8215         estimate D2E/DX2                !
 ! D128  D(7,12,14,46)         152.2125         estimate D2E/DX2                !
 ! D129  D(36,12,14,16)       -149.1938         estimate D2E/DX2                !
 ! D130  D(36,12,14,46)         -1.8028         estimate D2E/DX2                !
 ! D131  D(7,12,36,34)           3.9004         estimate D2E/DX2                !
 ! D132  D(7,12,36,38)        -150.0386         estimate D2E/DX2                !
 ! D133  D(14,12,36,34)        156.8409         estimate D2E/DX2                !
 ! D134  D(14,12,36,38)          2.9018         estimate D2E/DX2                !
 ! D135  D(9,13,15,6)         -144.1585         estimate D2E/DX2                !
 ! D136  D(9,13,15,17)           2.5205         estimate D2E/DX2                !
 ! D137  D(43,13,15,6)           3.8372         estimate D2E/DX2                !
 ! D138  D(43,13,15,17)        150.5162         estimate D2E/DX2                !
 ! D139  D(9,13,43,2)          151.6952         estimate D2E/DX2                !
 ! D140  D(9,13,43,39)          -7.6794         estimate D2E/DX2                !
 ! D141  D(15,13,43,2)           3.6261         estimate D2E/DX2                !
 ! D142  D(15,13,43,39)       -155.7485         estimate D2E/DX2                !
 ! D143  D(12,14,16,8)         153.1352         estimate D2E/DX2                !
 ! D144  D(12,14,16,18)          4.4132         estimate D2E/DX2                !
 ! D145  D(46,14,16,8)           2.2016         estimate D2E/DX2                !
 ! D146  D(46,14,16,18)       -146.5204         estimate D2E/DX2                !
 ! D147  D(12,14,46,4)        -158.5666         estimate D2E/DX2                !
 ! D148  D(12,14,46,42)         -2.6954         estimate D2E/DX2                !
 ! D149  D(16,14,46,4)          -7.4503         estimate D2E/DX2                !
 ! D150  D(16,14,46,42)        148.421          estimate D2E/DX2                !
 ! D151  D(6,15,17,1)          151.8761         estimate D2E/DX2                !
 ! D152  D(6,15,17,19)           8.9697         estimate D2E/DX2                !
 ! D153  D(13,15,17,1)           9.948          estimate D2E/DX2                !
 ! D154  D(13,15,17,19)       -132.9584         estimate D2E/DX2                !
 ! D155  D(8,16,18,3)         -154.224          estimate D2E/DX2                !
 ! D156  D(8,16,18,20)          -3.8422         estimate D2E/DX2                !
 ! D157  D(14,16,18,3)          -9.6589         estimate D2E/DX2                !
 ! D158  D(14,16,18,20)        140.7229         estimate D2E/DX2                !
 ! D159  D(1,17,19,21)          -7.4988         estimate D2E/DX2                !
 ! D160  D(1,17,19,53)        -152.7219         estimate D2E/DX2                !
 ! D161  D(15,17,19,21)        139.5193         estimate D2E/DX2                !
 ! D162  D(15,17,19,53)         -5.7039         estimate D2E/DX2                !
 ! D163  D(3,18,20,22)           2.1418         estimate D2E/DX2                !
 ! D164  D(3,18,20,54)         151.7455         estimate D2E/DX2                !
 ! D165  D(16,18,20,22)       -147.491          estimate D2E/DX2                !
 ! D166  D(16,18,20,54)          2.1127         estimate D2E/DX2                !
 ! D167  D(17,19,21,23)          4.8294         estimate D2E/DX2                !
 ! D168  D(17,19,21,57)       -140.5599         estimate D2E/DX2                !
 ! D169  D(53,19,21,23)        149.9767         estimate D2E/DX2                !
 ! D170  D(53,19,21,57)          4.5874         estimate D2E/DX2                !
 ! D171  D(17,19,53,10)         -0.571          estimate D2E/DX2                !
 ! D172  D(17,19,53,55)        141.6218         estimate D2E/DX2                !
 ! D173  D(21,19,53,10)       -142.3348         estimate D2E/DX2                !
 ! D174  D(21,19,53,55)         -0.142          estimate D2E/DX2                !
 ! D175  D(18,20,22,24)         -3.9164         estimate D2E/DX2                !
 ! D176  D(18,20,22,58)        140.5295         estimate D2E/DX2                !
 ! D177  D(54,20,22,24)       -154.2087         estimate D2E/DX2                !
 ! D178  D(54,20,22,58)         -9.7627         estimate D2E/DX2                !
 ! D179  D(18,20,54,11)          1.0975         estimate D2E/DX2                !
 ! D180  D(18,20,54,56)       -144.068          estimate D2E/DX2                !
 ! D181  D(22,20,54,11)        151.1435         estimate D2E/DX2                !
 ! D182  D(22,20,54,56)          5.978          estimate D2E/DX2                !
 ! D183  D(19,21,23,1)          -0.4364         estimate D2E/DX2                !
 ! D184  D(19,21,23,25)       -157.0386         estimate D2E/DX2                !
 ! D185  D(57,21,23,1)         145.2313         estimate D2E/DX2                !
 ! D186  D(57,21,23,25)        -11.3708         estimate D2E/DX2                !
 ! D187  D(19,21,57,59)        151.9206         estimate D2E/DX2                !
 ! D188  D(19,21,57,83)         -5.1832         estimate D2E/DX2                !
 ! D189  D(23,21,57,59)         11.2281         estimate D2E/DX2                !
 ! D190  D(23,21,57,83)       -145.8757         estimate D2E/DX2                !
 ! D191  D(20,22,24,26)          2.3858         estimate D2E/DX2                !
 ! D192  D(20,22,24,62)        152.6876         estimate D2E/DX2                !
 ! D193  D(58,22,24,26)       -145.957          estimate D2E/DX2                !
 ! D194  D(58,22,24,62)          4.3447         estimate D2E/DX2                !
 ! D195  D(20,22,58,60)       -146.0815         estimate D2E/DX2                !
 ! D196  D(20,22,58,84)          4.1948         estimate D2E/DX2                !
 ! D197  D(24,22,58,60)          2.5382         estimate D2E/DX2                !
 ! D198  D(24,22,58,84)        152.8145         estimate D2E/DX2                !
 ! D199  D(1,23,25,27)          -5.1094         estimate D2E/DX2                !
 ! D200  D(1,23,25,61)        -157.7637         estimate D2E/DX2                !
 ! D201  D(21,23,25,27)        148.5933         estimate D2E/DX2                !
 ! D202  D(21,23,25,61)         -4.0609         estimate D2E/DX2                !
 ! D203  D(22,24,26,3)           0.9576         estimate D2E/DX2                !
 ! D204  D(22,24,26,28)        148.7417         estimate D2E/DX2                !
 ! D205  D(62,24,26,3)        -145.8134         estimate D2E/DX2                !
 ! D206  D(62,24,26,28)          1.9707         estimate D2E/DX2                !
 ! D207  D(22,24,62,60)         -8.7824         estimate D2E/DX2                !
 ! D208  D(22,24,62,64)       -124.7478         estimate D2E/DX2                !
 ! D209  D(22,24,62,94)        111.7891         estimate D2E/DX2                !
 ! D210  D(26,24,62,60)        140.8388         estimate D2E/DX2                !
 ! D211  D(26,24,62,64)         24.8734         estimate D2E/DX2                !
 ! D212  D(26,24,62,94)        -98.5897         estimate D2E/DX2                !
 ! D213  D(23,25,27,29)        -20.2306         estimate D2E/DX2                !
 ! D214  D(23,25,27,65)       -134.2384         estimate D2E/DX2                !
 ! D215  D(23,25,27,93)        105.8639         estimate D2E/DX2                !
 ! D216  D(61,25,27,29)        134.5782         estimate D2E/DX2                !
 ! D217  D(61,25,27,65)         20.5704         estimate D2E/DX2                !
 ! D218  D(61,25,27,93)        -99.3272         estimate D2E/DX2                !
 ! D219  D(23,25,61,59)         17.3431         estimate D2E/DX2                !
 ! D220  D(23,25,61,63)        134.0473         estimate D2E/DX2                !
 ! D221  D(23,25,61,95)       -108.1348         estimate D2E/DX2                !
 ! D222  D(27,25,61,59)       -137.6342         estimate D2E/DX2                !
 ! D223  D(27,25,61,63)        -20.9299         estimate D2E/DX2                !
 ! D224  D(27,25,61,95)         96.8879         estimate D2E/DX2                !
 ! D225  D(3,26,28,30)           4.6643         estimate D2E/DX2                !
 ! D226  D(3,26,28,66)         119.9251         estimate D2E/DX2                !
 ! D227  D(3,26,28,89)        -117.5548         estimate D2E/DX2                !
 ! D228  D(24,26,28,30)       -145.5708         estimate D2E/DX2                !
 ! D229  D(24,26,28,66)        -30.3099         estimate D2E/DX2                !
 ! D230  D(24,26,28,89)         92.2101         estimate D2E/DX2                !
 ! D231  D(25,27,29,5)          17.307          estimate D2E/DX2                !
 ! D232  D(25,27,29,31)       -147.0084         estimate D2E/DX2                !
 ! D233  D(65,27,29,5)         126.545          estimate D2E/DX2                !
 ! D234  D(65,27,29,31)        -37.7703         estimate D2E/DX2                !
 ! D235  D(93,27,29,5)        -110.074          estimate D2E/DX2                !
 ! D236  D(93,27,29,31)         85.6106         estimate D2E/DX2                !
 ! D237  D(25,27,65,63)        -11.7513         estimate D2E/DX2                !
 ! D238  D(25,27,65,67)        150.8467         estimate D2E/DX2                !
 ! D239  D(29,27,65,63)       -128.7955         estimate D2E/DX2                !
 ! D240  D(29,27,65,67)         33.8026         estimate D2E/DX2                !
 ! D241  D(93,27,65,63)        108.7575         estimate D2E/DX2                !
 ! D242  D(93,27,65,67)        -88.6445         estimate D2E/DX2                !
 ! D243  D(26,28,30,7)          -2.9477         estimate D2E/DX2                !
 ! D244  D(26,28,30,32)        147.5025         estimate D2E/DX2                !
 ! D245  D(66,28,30,7)        -118.8604         estimate D2E/DX2                !
 ! D246  D(66,28,30,32)         31.5899         estimate D2E/DX2                !
 ! D247  D(89,28,30,7)         118.8608         estimate D2E/DX2                !
 ! D248  D(89,28,30,32)        -90.689          estimate D2E/DX2                !
 ! D249  D(26,28,66,64)         30.8385         estimate D2E/DX2                !
 ! D250  D(26,28,66,68)       -140.1608         estimate D2E/DX2                !
 ! D251  D(30,28,66,64)        140.8621         estimate D2E/DX2                !
 ! D252  D(30,28,66,68)        -30.1371         estimate D2E/DX2                !
 ! D253  D(89,28,66,64)        -94.0756         estimate D2E/DX2                !
 ! D254  D(89,28,66,68)         94.9251         estimate D2E/DX2                !
 ! D255  D(5,29,31,33)          -4.2114         estimate D2E/DX2                !
 ! D256  D(5,29,31,69)        -159.0815         estimate D2E/DX2                !
 ! D257  D(27,29,31,33)        160.7997         estimate D2E/DX2                !
 ! D258  D(27,29,31,69)          5.9297         estimate D2E/DX2                !
 ! D259  D(7,30,32,34)          -0.4927         estimate D2E/DX2                !
 ! D260  D(7,30,32,70)         148.171          estimate D2E/DX2                !
 ! D261  D(28,30,32,34)       -148.7031         estimate D2E/DX2                !
 ! D262  D(28,30,32,70)         -0.0395         estimate D2E/DX2                !
 ! D263  D(29,31,33,35)         -4.9839         estimate D2E/DX2                !
 ! D264  D(29,31,33,73)       -156.4705         estimate D2E/DX2                !
 ! D265  D(69,31,33,35)        153.1689         estimate D2E/DX2                !
 ! D266  D(69,31,33,73)          1.6823         estimate D2E/DX2                !
 ! D267  D(29,31,69,67)         33.5398         estimate D2E/DX2                !
 ! D268  D(29,31,69,71)        149.898          estimate D2E/DX2                !
 ! D269  D(29,31,69,92)        -88.6283         estimate D2E/DX2                !
 ! D270  D(33,31,69,67)       -123.5892         estimate D2E/DX2                !
 ! D271  D(33,31,69,71)         -7.231          estimate D2E/DX2                !
 ! D272  D(33,31,69,92)        114.2427         estimate D2E/DX2                !
 ! D273  D(30,32,34,36)          5.2803         estimate D2E/DX2                !
 ! D274  D(30,32,34,74)        154.0394         estimate D2E/DX2                !
 ! D275  D(70,32,34,36)       -146.281          estimate D2E/DX2                !
 ! D276  D(70,32,34,74)          2.4781         estimate D2E/DX2                !
 ! D277  D(30,32,70,68)        -32.1102         estimate D2E/DX2                !
 ! D278  D(30,32,70,72)       -148.7681         estimate D2E/DX2                !
 ! D279  D(30,32,70,90)         89.3322         estimate D2E/DX2                !
 ! D280  D(34,32,70,68)        119.0006         estimate D2E/DX2                !
 ! D281  D(34,32,70,72)          2.3427         estimate D2E/DX2                !
 ! D282  D(34,32,70,90)       -119.557          estimate D2E/DX2                !
 ! D283  D(31,33,35,9)          10.2782         estimate D2E/DX2                !
 ! D284  D(31,33,35,37)       -148.3967         estimate D2E/DX2                !
 ! D285  D(73,33,35,9)         157.9433         estimate D2E/DX2                !
 ! D286  D(73,33,35,37)         -0.7316         estimate D2E/DX2                !
 ! D287  D(31,33,73,71)          5.0956         estimate D2E/DX2                !
 ! D288  D(31,33,73,75)        150.6494         estimate D2E/DX2                !
[...]
 Alpha virt. eigenvalues --    1.38258   1.39161   1.39623   1.39838   1.40466
 Alpha virt. eigenvalues --    1.40633   1.41023   1.41793   1.42390   1.42827
 Alpha virt. eigenvalues --    1.43341   1.43583   1.43653   1.44573   1.45185
 Alpha virt. eigenvalues --    1.45686   1.45897   1.46270   1.46542   1.47020
 Alpha virt. eigenvalues --    1.47809   1.48696   1.49019   1.49482   1.49944
 Alpha virt. eigenvalues --    1.50666   1.51225   1.51741   1.52168   1.53015
 Alpha virt. eigenvalues --    1.53729   1.54097   1.55125   1.55245   1.55858
 Alpha virt. eigenvalues --    1.56021   1.56745   1.57298   1.57758   1.58263
 Alpha virt. eigenvalues --    1.58962   1.59484   1.60081   1.60306   1.60688
 Alpha virt. eigenvalues --    1.61081   1.61374   1.61833   1.62316   1.62399
 Alpha virt. eigenvalues --    1.62435   1.62666   1.63273   1.63934   1.64129
 Alpha virt. eigenvalues --    1.64314   1.64526   1.64738   1.64927   1.65045
 Alpha virt. eigenvalues --    1.65107   1.65352   1.65839   1.66144   1.66337
 Alpha virt. eigenvalues --    1.66452   1.66933   1.67238   1.67255   1.67301
 Alpha virt. eigenvalues --    1.67614   1.67923   1.68404   1.68564   1.68733
 Alpha virt. eigenvalues --    1.68966   1.69269   1.69433   1.69595   1.69876
 Alpha virt. eigenvalues --    1.70123   1.70508   1.70679   1.70823   1.71053
 Alpha virt. eigenvalues --    1.71312   1.71477   1.71633   1.72195   1.72431
 Alpha virt. eigenvalues --    1.72650   1.72719   1.72873   1.73102   1.73404
 Alpha virt. eigenvalues --    1.73477   1.74045   1.74151   1.74402   1.74746
 Alpha virt. eigenvalues --    1.75019   1.75070   1.75551   1.75633   1.76103
 Alpha virt. eigenvalues --    1.76124   1.76443   1.76770   1.76823   1.76973
 Alpha virt. eigenvalues --    1.77089   1.77159   1.77309   1.77641   1.77817
 Alpha virt. eigenvalues --    1.78099   1.78265   1.78449   1.78695   1.79028
 Alpha virt. eigenvalues --    1.79206   1.79458   1.79659   1.79777   1.80361
 Alpha virt. eigenvalues --    1.80543   1.80818   1.81011   1.81151   1.81631
 Alpha virt. eigenvalues --    1.81964   1.82119   1.82418   1.82561   1.82941
 Alpha virt. eigenvalues --    1.83409   1.83981   1.84281   1.84495   1.84742
 Alpha virt. eigenvalues --    1.85146   1.85453   1.85944   1.86571   1.86754
 Alpha virt. eigenvalues --    1.87122   1.87262   1.87435   1.87601   1.88088
 Alpha virt. eigenvalues --    1.88444   1.88794   1.89215   1.89369   1.89597
 Alpha virt. eigenvalues --    1.89924   1.90435   1.90729   1.90954   1.91986
 Alpha virt. eigenvalues --    1.92132   1.92304   1.92949   1.93076   1.93276
 Alpha virt. eigenvalues --    1.93545   1.94053   1.94431   1.94819   1.94925
 Alpha virt. eigenvalues --    1.95149   1.95690   1.96050   1.96351   1.96960
 Alpha virt. eigenvalues --    1.97027   1.97558   1.97835   1.98148   1.98434
 Alpha virt. eigenvalues --    1.99127   1.99352   1.99898   2.00079   2.00310
 Alpha virt. eigenvalues --    2.00622   2.00727   2.00874   2.01294   2.01549
 Alpha virt. eigenvalues --    2.01876   2.02083   2.02555   2.02950   2.03079
 Alpha virt. eigenvalues --    2.03459   2.03757   2.03939   2.04064   2.04817
 Alpha virt. eigenvalues --    2.05180   2.06190   2.06585   2.06641   2.06865
 Alpha virt. eigenvalues --    2.07032   2.07301   2.08045   2.08140   2.08405
 Alpha virt. eigenvalues --    2.08857   2.09332   2.09578   2.09794   2.10140
 Alpha virt. eigenvalues --    2.10663   2.11096   2.11325   2.11924   2.12286
 Alpha virt. eigenvalues --    2.12334   2.12731   2.13290   2.13373   2.13938
 Alpha virt. eigenvalues --    2.14615   2.14733   2.15069   2.15402   2.16136
 Alpha virt. eigenvalues --    2.16682   2.17198   2.17516   2.17728   2.18202
 Alpha virt. eigenvalues --    2.18583   2.18769   2.19053   2.19411   2.19850
 Alpha virt. eigenvalues --    2.20241   2.20599   2.20878   2.21214   2.21506
 Alpha virt. eigenvalues --    2.21762   2.22646   2.22830   2.23270   2.23508
 Alpha virt. eigenvalues --    2.24064   2.24257   2.24687   2.25189   2.25479
 Alpha virt. eigenvalues --    2.25997   2.26208   2.26865   2.27369   2.27877
 Alpha virt. eigenvalues --    2.28441   2.28623   2.29273   2.29714   2.29872
 Alpha virt. eigenvalues --    2.30080   2.30917   2.31336   2.31600   2.32138
 Alpha virt. eigenvalues --    2.32312   2.33029   2.33871   2.34160   2.34643
 Alpha virt. eigenvalues --    2.34909   2.35231   2.35649   2.36216   2.36707
 Alpha virt. eigenvalues --    2.37300   2.37863   2.38719   2.39459   2.40075
 Alpha virt. eigenvalues --    2.40472   2.40625   2.41025   2.41583   2.42085
 Alpha virt. eigenvalues --    2.43009   2.43153   2.43429   2.43982   2.44478
 Alpha virt. eigenvalues --    2.44856   2.45843   2.46000   2.46038   2.47076
 Alpha virt. eigenvalues --    2.47462   2.48201   2.48474   2.49113   2.49458
 Alpha virt. eigenvalues --    2.50360   2.50539   2.51057   2.51589   2.51905
 Alpha virt. eigenvalues --    2.51991   2.52419   2.52786   2.53035   2.53870
 Alpha virt. eigenvalues --    2.54045   2.54394   2.54975   2.55033   2.55300
 Alpha virt. eigenvalues --    2.56183   2.56464   2.56695   2.56941   2.57253
 Alpha virt. eigenvalues --    2.57670   2.57961   2.58296   2.58785   2.59078
 Alpha virt. eigenvalues --    2.59606   2.60345   2.60402   2.60662   2.60786
 Alpha virt. eigenvalues --    2.61084   2.61749   2.62037   2.62149   2.62380
 Alpha virt. eigenvalues --    2.63053   2.63381   2.63409   2.64109   2.64188
 Alpha virt. eigenvalues --    2.64620   2.64705   2.65041   2.65382   2.65622
 Alpha virt. eigenvalues --    2.65767   2.66197   2.66944   2.67179   2.67428
 Alpha virt. eigenvalues --    2.67622   2.68488   2.68951   2.69493   2.69588
 Alpha virt. eigenvalues --    2.69883   2.70456   2.70638   2.70910   2.71140
 Alpha virt. eigenvalues --    2.71511   2.71905   2.72365   2.72482   2.73312
 Alpha virt. eigenvalues --    2.73405   2.73743   2.74037   2.74323   2.74554
 Alpha virt. eigenvalues --    2.74876   2.75435   2.75937   2.76575   2.76781
 Alpha virt. eigenvalues --    2.77133   2.77347   2.78016   2.78484   2.78779
 Alpha virt. eigenvalues --    2.79464   2.79975   2.80263   2.80664   2.81454
 Alpha virt. eigenvalues --    2.81635   2.81888   2.82634   2.82939   2.83430
 Alpha virt. eigenvalues --    2.83936   2.84434   2.84741   2.85493   2.85689
 Alpha virt. eigenvalues --    2.86525   2.87022   2.87697   2.87828   2.88431
 Alpha virt. eigenvalues --    2.89080   2.89399   2.89917   2.90219   2.90627
 Alpha virt. eigenvalues --    2.91129   2.91504   2.91824   2.92411   2.92955
 Alpha virt. eigenvalues --    2.94032   2.94941   2.95127   2.95524   2.97743
 Alpha virt. eigenvalues --    2.97920   2.98250   2.99064   2.99815   3.00694
 Alpha virt. eigenvalues --    3.01615   3.02373   3.03379   3.03543   3.05814
 Alpha virt. eigenvalues --    3.07976   3.09840   3.10821   3.11268   3.11668
 Alpha virt. eigenvalues --    3.13085   3.13270   3.15010   3.18071   3.19285
 Alpha virt. eigenvalues --    3.20154   3.20397   3.21706   3.22725   3.24071
 Alpha virt. eigenvalues --    3.25356   3.27053   3.27879   3.29146   3.30293
 Alpha virt. eigenvalues --    3.33877   3.35742   3.38185   3.41408   3.42038
 Alpha virt. eigenvalues --    3.42510   3.43443   3.44986   3.48999   3.49451
 Alpha virt. eigenvalues --    3.53856   3.54890   3.63226   4.00564   4.01375
 Alpha virt. eigenvalues --    4.01733   4.02309   4.03163   4.03801   4.04030
 Alpha virt. eigenvalues --    4.05056   4.05823   4.06399   4.06901   4.08140
 Alpha virt. eigenvalues --    4.08339   4.09191   4.09499   4.10118   4.10156
 Alpha virt. eigenvalues --    4.11334   4.11831   4.12717   4.13799   4.14717
 Alpha virt. eigenvalues --    4.15362   4.16291   4.16595   4.17371   4.18734
 Alpha virt. eigenvalues --    4.19271   4.19789   4.20800   4.21527   4.21929
 Alpha virt. eigenvalues --    4.22278   4.23457   4.24438   4.25658   4.25856
 Alpha virt. eigenvalues --    4.25993   4.26811   4.27226   4.27785   4.27909
 Alpha virt. eigenvalues --    4.28627   4.28774   4.29369   4.29712   4.31134
 Alpha virt. eigenvalues --    4.31993   4.33682   4.33991   4.35000   4.35394
 Alpha virt. eigenvalues --    4.37438   4.38864   4.39005   4.40221   4.41352
 Alpha virt. eigenvalues --    4.41506   4.42434   4.42551   4.43780   4.44437
 Alpha virt. eigenvalues --    4.46626   4.48016   4.48960   4.51452   4.51909
 Alpha virt. eigenvalues --    4.53133   4.53520   4.56572   4.57019   4.57398
 Alpha virt. eigenvalues --    4.59686   4.60415   4.62190   4.63995   4.64428
 Alpha virt. eigenvalues --    4.66656   4.67423   4.71416   4.77885   4.79192
 Alpha virt. eigenvalues --    4.79931   4.80642   4.82132   4.85663   4.86789
 Alpha virt. eigenvalues --    4.90370   4.93894   4.98817   5.02809   5.05167
 Alpha virt. eigenvalues --    5.08048   5.10714   5.14417   5.23764
          Condensed to atoms (all electrons):
 Mulliken charges:
               1
     1  C   -0.361307
     2  C   -0.379600
     3  C    0.005703
     4  C   -0.366299
     5  C    0.096675
     6  C    0.088499
     7  C    0.010421
     8  C    0.092652
     9  C    0.059154
    10  C    0.095004
    11  C    0.091298
    12  C    0.042429
    13  C   -0.018318
    14  C    0.010834
    15  C    0.041474
    16  C    0.007815
    17  C    0.065326
    18  C    0.044951
    19  C    0.020885
    20  C    0.044708
    21  C   -0.025415
    22  C    0.010517
    23  C    0.111377
    24  C    0.091010
    25  C    0.160533
    26  C    0.089357
    27  C   -0.369276
    28  C   -0.380744
    29  C    0.154096
    30  C    0.085929
    31  C    0.081053
    32  C    0.093292
    33  C    0.006311
    34  C    0.005234
    35  C    0.026177
    36  C    0.037473
    37  C    0.070994
    38  C    0.046581
    39  C    0.113469
    40  C    0.087813
    41  C    0.037538
    42  C    0.064865
    43  C    0.086202
    44  C    0.145645
    45  C    0.123040
    46  C    0.045526
    47  C    0.115754
    48  C    0.128629
    49  C   -0.375780
    50  C   -0.380418
    51  C    0.093934
    52  C    0.088027
    53  C    0.015726
    54  C    0.006341
    55  C    0.007410
    56  C    0.012227
    57  C    0.063406
    58  C    0.006592
    59  C    0.120528
    60  C    0.077572
    61  C   -0.361353
    62  C   -0.387164
    63  C    0.116128
    64  C    0.144869
    65  C    0.116620
    66  C    0.126614
    67  C    0.142911
    68  C    0.119673
    69  C   -0.384576
    70  C   -0.376931
    71  C    0.089683
    72  C    0.093911
    73  C    0.029330
    74  C    0.028170
    75  C   -0.010841
    76  C   -0.015889
    77  C   -0.039187
    78  C   -0.024014
    79  C   -0.372845
    80  C   -0.003610
    81  C    0.006741
    82  C    0.076168
    83  C    0.040041
    84  C    0.039004
    85  Cl   0.013815
    86  Cl   0.013095
    87  Cl   0.018941
    88  Cl   0.000911
    89  Cl   0.019518
    90  Cl   0.016960
    91  Cl   0.000825
    92  Cl   0.019835
    93  Cl   0.019328
    94  Cl   0.025393
    95  Cl  -0.005097
    96  Cl  -0.007825
 Sum of Mulliken charges =  -0.00000
 Mulliken charges with hydrogens summed into heavy atoms:
               1
     1  C   -0.361307
     2  C   -0.379600
     3  C    0.005703
     4  C   -0.366299
     5  C    0.096675
     6  C    0.088499
     7  C    0.010421
     8  C    0.092652
     9  C    0.059154
    10  C    0.095004
    11  C    0.091298
    12  C    0.042429
    13  C   -0.018318
    14  C    0.010834
    15  C    0.041474
    16  C    0.007815
    17  C    0.065326
    18  C    0.044951
    19  C    0.020885
    20  C    0.044708
    21  C   -0.025415
    22  C    0.010517
    23  C    0.111377
    24  C    0.091010
    25  C    0.160533
    26  C    0.089357
    27  C   -0.369276
    28  C   -0.380744
    29  C    0.154096
    30  C    0.085929
    31  C    0.081053
    32  C    0.093292
    33  C    0.006311
    34  C    0.005234
    35  C    0.026177
    36  C    0.037473
    37  C    0.070994
    38  C    0.046581
    39  C    0.113469
    40  C    0.087813
    41  C    0.037538
    42  C    0.064865
    43  C    0.086202
    44  C    0.145645
    45  C    0.123040
    46  C    0.045526
    47  C    0.115754
    48  C    0.128629
    49  C   -0.375780
    50  C   -0.380418
    51  C    0.093934
    52  C    0.088027
    53  C    0.015726
    54  C    0.006341
    55  C    0.007410
    56  C    0.012227
    57  C    0.063406
    58  C    0.006592
    59  C    0.120528
    60  C    0.077572
    61  C   -0.361353
    62  C   -0.387164
    63  C    0.116128
    64  C    0.144869
    65  C    0.116620
    66  C    0.126614
    67  C    0.142911
    68  C    0.119673
    69  C   -0.384576
    70  C   -0.376931
    71  C    0.089683
    72  C    0.093911
    73  C    0.029330
    74  C    0.028170
    75  C   -0.010841
    76  C   -0.015889
    77  C   -0.039187
    78  C   -0.024014
    79  C   -0.372845
    80  C   -0.003610
    81  C    0.006741
    82  C    0.076168
    83  C    0.040041
    84  C    0.039004
    85  Cl   0.013815
    86  Cl   0.013095
    87  Cl   0.018941
    88  Cl   0.000911
    89  Cl   0.019518
    90  Cl   0.016960
    91  Cl   0.000825
    92  Cl   0.019835
    93  Cl   0.019328
    94  Cl   0.025393
    95  Cl  -0.005097
    96  Cl  -0.007825
 Electronic spatial extent (au):  <R**2>=          62164.5038
 Charge=             -0.0000 electrons
 Dipole moment (field-independent basis, Debye):
    X=              1.1450    Y=             -3.5285    Z=              0.2903  Tot=              3.7210
 Quadrupole moment (field-independent basis, Debye-Ang):
   XX=           -673.2309   YY=           -625.3150   ZZ=           -612.5815
   XY=              5.3629   XZ=             -8.5234   YZ=             -0.6102
 Traceless Quadrupole moment (field-independent basis, Debye-Ang):
   XX=            -36.1884   YY=             11.7274   ZZ=             24.4610
   XY=              5.3629   XZ=             -8.5234   YZ=             -0.6102
 Octapole moment (field-independent basis, Debye-Ang**2):
  XXX=            -50.1767  YYY=            -48.7837  ZZZ=            -27.7697  XYY=             12.4900
  XXY=              9.1209  XXZ=              4.0069  XZZ=             -2.3549  YZZ=             -3.0195
  YYZ=              2.6789  XYZ=            -21.2002
 Hexadecapole moment (field-independent basis, Debye-Ang**3):
 XXXX=         -38618.8128 YYYY=         -26497.3741 ZZZZ=         -23233.7540 XXXY=            -78.9147
 XXXZ=            121.0628 YYYX=            116.4262 YYYZ=             98.5133 ZZZX=           -111.9563
 ZZZY=             43.3860 XXYY=         -11024.5271 XXZZ=         -10484.5360 YYZZ=          -8179.2684
 XXYZ=            -14.2558 YYXZ=            -37.6988 ZZXY=            -20.3494
 N-N= 2.407724530806D+04 E-N=-6.867330887007D+04  KE= 8.676597011239D+03
 No NMR shielding tensors so no spin-rotation constants.
 Leave Link  601 at Wed Jun 29 18:55:39 2022, MaxMem=  1342177280 cpu:              26.0 elap:               1.3
 (Enter /home/mkliu/g16/l9999.exe)
 1\1\GINC-NODE03\FOpt\RB3LYP\6-31G(d,p)\C84Cl12\MKLIU\29-Jun-2022\0\\#P
  opt b3lyp/6-31G(d, p) empiricaldispersion=GD3\\force\\0,1\C,8.4262735
 886,18.6460842683,10.8077794453\C,12.6090152314,19.9740367434,8.897239
 2715\C,8.2617122355,26.8588347858,10.5191296208\C,12.4992083787,25.746
 5141119,8.9106424197\C,8.0201644564,19.1592878504,9.4311987581\C,12.08
 5437966,19.4922077517,10.2274096558\C,7.9488527997,26.8352848993,9.123
 5772875\C,11.8968569267,26.1915793415,10.221940097\C,8.9990526941,19.2
 619894524,8.3770080122\C,12.3631649048,20.1323570264,11.4002790364\C,1
 2.155115459,25.5426124715,11.3898191935\C,8.9583888888,26.6526021069,8
 .136628849\C,10.3784462228,19.0806710714,8.6897238871\C,10.3009470473,
 26.6888100381,8.6030215237\C,10.8203536876,18.8388171722,10.0486049725
 \C,10.6183153138,26.7863973632,9.9952499883\C,9.9078007001,18.73571153
 79,11.0672773938\C,9.5989757078,26.7695246196,10.9859260277\C,10.15464
 36712,19.4613797003,12.2689428097\C,9.859094316,26.05021158,12.2118305
 475\C,8.943631672,20.0175549648,12.7653934438\C,8.7595184374,25.422700
 4884,12.8620122424\C,7.86784357,19.5438556966,11.906813864\C,7.4242507
 587,25.5608732569,12.3747181166\C,6.7138244409,20.2031175413,11.778117
 6434\C,7.1748392548,26.2705023285,11.2409834502\C,5.9241663016,20.1763
 709576,10.5000942695\C,6.0318542323,25.9353794021,10.2983844457\C,6.77
 17400033,19.7819312405,9.2979833165\C,6.6404432363,26.2943785351,8.959
 1645147\C,6.4349414641,20.3749032172,8.0757128473\C,6.3304027266,25.63
 00329739,7.8172114115\C,7.3550569552,20.4350384329,7.0243635758\C,7.30
 33649257,25.4793095891,6.7793907813\C,8.6944062671,19.9822919711,7.170
 6283011\C,8.6522039851,25.9152387612,6.9339521838\C,9.7445253727,20.63
 85879769,6.4042398577\C,9.7110370692,25.1685348417,6.2618422434\C,11.0
 765700955,20.5821909112,6.8952422008\C,12.8013022115,22.1615522071,7.7
 747245516\C,12.7274940456,23.5609119539,7.7914334365\C,11.0591656044,2
 5.1817235908,6.8341188977\C,11.3731553083,19.7831454423,7.9981142069\C
 ,12.9869880908,21.4482701518,8.9462600698\C,12.9026679921,24.284618449
 5,8.9654391939\C,11.3317546584,25.9760473178,7.9425204807\C,13.1837078
 395,22.1633826767,10.1629749159\C,13.1454471009,23.5794878979,10.16660
 13332\C,13.2107379974,21.3907287564,11.4856953623\C,13.1058327528,24.3
 578036828,11.4876086385\C,12.4721737614,22.1736163124,12.5604464675\C,
 12.4307606993,23.5291301804,12.5591774907\C,11.3662165109,20.151765723
 3,12.4267700978\C,11.1298296696,25.4433798602,12.3864653311\C,11.36756
 68742,21.4174941761,13.0719350262\C,11.276509069,24.1970016975,13.0665
 174854\C,8.9027268476,21.3114548395,13.3282000644\C,8.8969804465,24.14
 38607466,13.4753013262\C,7.6581387166,22.0541615065,13.2238403814\C,7.
 6733175858,23.4204125994,13.3332011978\C,6.421343225,21.4249915395,12.
 6047338285\C,6.5983935381,24.3567303338,12.7661345141\C,5.8344523378,2
 2.3420626874,11.5456898414\C,5.9410202669,23.7299543806,11.5471858327\
 C,5.5497840343,21.6470236912,10.3750094901\C,5.7126623666,24.435869337
 1,10.348167648\C,5.3454200923,22.3204626368,9.1699258891\C,5.403923775
 5,23.7308038658,9.1540844108\C,5.3740260097,21.4727096145,7.9087967162
 \C,5.3461896327,24.4728087421,7.8095154336\C,5.9175566714,22.251101671
 2,6.7339971802\C,5.901622107,23.6172249627,6.6851874584\C,7.0085415184
 ,21.5365896212,6.151437283\C,6.9797258736,24.3049910356,6.030906452\C,
 8.0035430274,22.1720225175,5.4330556726\C,7.9913362503,23.6103859323,5
 .3745362063\C,9.3700165812,21.7187201844,5.5121183045\C,9.3511662189,2
 4.0574488594,5.4631392193\C,12.1033491561,21.6328511555,6.5210072864\C
 ,11.882836975,24.0113416158,6.6786163228\C,10.1888084557,22.8701226227
 ,5.406144199\C,11.4610373735,22.8951542531,5.9894920355\C,10.155746764
 1,22.0333113803,13.4994080967\C,10.1421185606,23.472789438,13.53968447
 32\Cl,14.0413201845,18.9573397214,8.3342244547\Cl,14.9512087867,21.012
 2706836,11.9604672449\Cl,14.8019990846,24.8908932411,11.9602204039\Cl,
 13.3114641691,20.9543214899,5.2882841877\Cl,4.5215466284,26.9140661765
 ,10.6814411914\Cl,3.6164867495,25.0094182208,7.4763658649\Cl,13.953823
 7807,26.792162818,8.4312382872\Cl,3.6988556923,20.8034035946,7.5357777
 819\Cl,4.4358147779,19.0894551148,10.6331318743\Cl,5.3377231884,24.789
 2297324,14.0353256409\Cl,5.1679638674,21.0470733967,13.9342005784\Cl,7
 .8233884191,16.8959908253,11.0056892469\\Version=ES64L-G16RevA.03\Stat
 e=1-A\HF=-8723.4233019\RMSD=7.790e-09\RMSF=2.019e-05\Dipole=0.4982933,
 1.3422401,-0.3053168\Quadrupole=-25.8109527,8.9763859,16.8345668,-1.38
 60556,10.2201337,0.345684\PG=C01 [X(C84Cl12)]\\@


 FRICTION IS A DRAG,
 AND ENTROPY AIN'T WHAT IT USED TO BE.
 Job cpu time:       1 days 13 hours 27 minutes  0.2 seconds.
 Elapsed time:       0 days  1 hours 33 minutes 45.4 seconds.
 File lengths (MBytes):  RWF=   1359 Int=      0 D2E=      0 Chk=    170 Scr=      1
 Normal termination of Gaussian 16 at Wed Jun 29 18:55:41 2022.
