 Entering Gaussian System, Link 0=g16
 Input=12_addons_C84_11_Cl22_rank_6.gjf
 Output=12_addons_C84_11_Cl22_rank_6.log
 Initial command:
 /home/mkliu/g16/l1.exe "/data/scratch/Gau-137524.inp" -scrdir="/data/scratch/"
 Entering Link 1 = /home/mkliu/g16/l1.exe PID=    137525.
  
 Copyright (c) 1988,1990,1992,1993,1995,1998,2003,2009,2016,
            Gaussian, Inc.  All Rights Reserved.
  
 This is part of the Gaussian(R) 16 program.  It is based on
 the Gaussian(R) 09 system (copyright 2009, Gaussian, Inc.),
 the Gaussian(R) 03 system (copyright 2003, Gaussian, Inc.),
 the Gaussian(R) 98 system (copyright 1998, Gaussian, Inc.),
 the Gaussian(R) 94 system (copyright 1995, Gaussian, Inc.),
 the Gaussian 92(TM) system (copyright 1992, Gaussian, Inc.),
 the Gaussian 90(TM) system (copyright 1990, Gaussian, Inc.),
 the Gaussian 88(TM) system (copyright 1988, Gaussian, Inc.),
 the Gaussian 86(TM) system (copyright 1986, Carnegie Mellon
 University), and the Gaussian 82(TM) system (copyright 1983,
 Carnegie Mellon University). Gaussian is a federally registered
 trademark of Gaussian, Inc.
  
 This software contains proprietary and confidential information,
 including trade secrets, belonging to Gaussian, Inc.
  
 This software is provided under written license and may be
 used, copied, transmitted, or stored only in accord with that
 written license.
  
 The following legend is applicable only to US Government
 contracts under FAR:
  
                    RESTRICTED RIGHTS LEGEND
  
 Use, reproduction and disclosure by the US Government is
 subject to restrictions as set forth in subparagraphs (a)
 and (c) of the Commercial Computer Software - Restricted
 Rights clause in FAR 52.227-19.
  
 Gaussian, Inc.
 340 Quinnipiac St., Bldg. 40, Wallingford CT 06492
  
  
 ---------------------------------------------------------------
 Warning -- This program may not be used in any manner that
 competes with the business of Gaussian, Inc. or will provide
 assistance to any competitor of Gaussian, Inc.  The licensee
 of this program is prohibited from giving any competitor of
 Gaussian, Inc. access to this program.  By using this program,
 the user acknowledges that Gaussian, Inc. is engaged in the
 business of creating and licensing software in the field of
 computational chemistry and represents and warrants to the
 licensee that it is not a competitor of Gaussian, Inc. and that
 it will not use this program in any manner prohibited above.
 ---------------------------------------------------------------
  

 Cite this work as:
 Gaussian 16, Revision A.03,
 M. J. Frisch, G. W. Trucks, H. B. Schlegel, G. E. Scuseria, 
 M. A. Robb, J. R. Cheeseman, G. Scalmani, V. Barone, 
 G. A. Petersson, H. Nakatsuji, X. Li, M. Caricato, A. V. Marenich, 
 J. Bloino, B. G. Janesko, R. Gomperts, B. Mennucci, H. P. Hratchian, 
 J. V. Ortiz, A. F. Izmaylov, J. L. Sonnenberg, D. Williams-Young, 
 F. Ding, F. Lipparini, F. Egidi, J. Goings, B. Peng, A. Petrone, 
 T. Henderson, D. Ranasinghe, V. G. Zakrzewski, J. Gao, N. Rega, 
 G. Zheng, W. Liang, M. Hada, M. Ehara, K. Toyota, R. Fukuda, 
 J. Hasegawa, M. Ishida, T. Nakajima, Y. Honda, O. Kitao, H. Nakai, 
 T. Vreven, K. Throssell, J. A. Montgomery, Jr., J. E. Peralta, 
 F. Ogliaro, M. J. Bearpark, J. J. Heyd, E. N. Brothers, K. N. Kudin, 
 V. N. Staroverov, T. A. Keith, R. Kobayashi, J. Normand, 
 K. Raghavachari, A. P. Rendell, J. C. Burant, S. S. Iyengar, 
 J. Tomasi, M. Cossi, J. M. Millam, M. Klene, C. Adamo, R. Cammi, 
 J. W. Ochterski, R. L. Martin, K. Morokuma, O. Farkas, 
 J. B. Foresman, and D. J. Fox, Gaussian, Inc., Wallingford CT, 2016.
 
 ******************************************
 Gaussian 16:  ES64L-G16RevA.03 25-Dec-2016
                29-Jun-2022 
 ******************************************
 %mem=10GB
 %chk=12_addons_C84_11_Cl22_rank_6.chk
 %nprocshared=24
 Will use up to   24 processors via shared memory.
 ------------------------------------------------
 #P opt b3lyp/6-31G(d, p) empiricaldispersion=GD3
 ------------------------------------------------
 1/18=20,19=15,26=3,38=1/1,3;
 2/9=110,12=2,17=6,18=5,40=1/2;
 3/5=1,6=6,7=101,11=2,25=1,30=1,71=1,74=-5,124=31/1,2,3;
 4//1;
 5/5=2,38=5/2;
 6/7=2,8=2,9=2,10=2,28=1/1;
 7//1,2,3,16;
 1/18=20,19=15,26=3/3(2);
 2/9=110/2;
 99//99;
 2/9=110/2;
 3/5=1,6=6,7=101,11=2,25=1,30=1,71=1,74=-5,124=31/1,2,3;
 4/5=5,16=3,69=1/1;
 5/5=2,38=5/2;
 7//1,2,3,16;
 1/18=20,19=15,26=3/3(-5);
 2/9=110/2;
 6/7=2,8=2,9=2,10=2,19=2,28=1/1;
 99/9=1/99;
 Leave Link    1 at Wed Jun 29 03:29:10 2022, MaxMem=  1342177280 cpu:               0.7 elap:               0.1
 (Enter /home/mkliu/g16/l101.exe)
 -----
 force
 -----
 Symbolic Z-matrix:
 Charge =  0 Multiplicity = 1
 C                     8.48685   18.90272   10.74211 
 C                     12.5828   19.99312   8.88541 
 C                     8.2628    26.82881   10.52291 
 C                     12.48699   25.74204   8.91592 
 C                     8.02142   19.14778   9.44125 
 C                     12.07065   19.49966   10.20536 
 C                     7.95615   26.80544   9.13881 
 C                     11.87938   26.16702   10.2202 
 C                     8.99139   19.25025   8.37748 
 C                     12.33474   20.13782   11.37562 
 C                     12.13568   25.51627   11.38273 
 C                     8.96166   26.61863   8.16072 
 C                     10.35664   19.09396   8.69056 
 C                     10.28989   26.65854   8.6248 
 C                     10.80468   18.86089   10.01337 
 C                     10.60416   26.76222   10.0015 
 C                     9.86381   18.79121   11.03362 
 C                     9.59164   26.74228   10.98797 
 C                     10.13864   19.46885   12.27021 
 C                     9.84879   26.02681   12.19949 
 C                     8.9351    20.02967   12.76056 
 C                     8.75745   25.40199   12.84548 
 C                     7.86996   19.57366   11.87866 
 C                     7.42246   25.53849   12.36857 
 C                     6.69845   20.21647   11.77915 
 C                     7.17338   26.24476   11.2373 
 C                     5.922     20.19684   10.49974 
 C                     6.04075   25.91592   10.30111 
 C                     6.74663   19.79367   9.30196 
 C                     6.65312   26.26244   8.97563 
 C                     6.42542   20.37272   8.11079 
 C                     6.35196   25.59449   7.83787 
 C                     7.35617   20.41735   7.03413 
 C                     7.33282   25.4447   6.81385 
 C                     8.68277   19.96441   7.18022 
 C                     8.66951   25.87776   6.97458 
 C                     9.72502   20.62155   6.42868 
 C                     9.72714   25.14509   6.32142 
 C                     11.07823   20.57749   6.90674 
 C                     12.69875   22.18357   7.79 
 C                     12.67932   23.57081   7.79253 
 C                     11.06367   25.18052   6.86205 
 C                     11.37339   19.79855   7.98538 
 C                     12.8923   21.46793   8.95804 
 C                     12.84213   24.2782   8.96932 
 C                     11.32851   25.95016   7.958 
 C                     13.10291   22.16711   10.1551 
 C                     13.07064   23.57301   10.15947 
 C                     13.1672   21.39036   11.4624 
 C                     13.07226   24.34056   11.472 
 C                     12.43525   22.16178   12.52789 
 C                     12.39741   23.51453   12.52757 
 C                     11.34039   20.14968   12.40819 
 C                     11.10955   25.41786   12.37048 
 C                     11.33747   21.41432   13.04684 
 C                     11.2516   24.17805   13.04354 
 C                     8.89141   21.31689   13.31578 
 C                     8.89204   24.12684   13.44603 
 C                     7.65529   22.05203   13.20891 
 C                     7.66812   23.41318   13.31237 
 C                     6.41803   21.43394   12.604 
 C                     6.60383   24.34411   12.76132 
 C                     5.8686    22.34912   11.53955 
 C                     5.97758   23.72747   11.53682 
 C                     5.57833   21.65794   10.37214 
 C                     5.748     24.42444   10.34205 
 C                     5.37835   22.3242   9.17631 
 C                     5.44137   23.72491   9.16126 
 C                     5.38381   21.46585   7.93561 
 C                     5.37073   24.45292   7.82655 
 C                     5.93168   22.2334   6.76995 
 C                     5.92772   23.59146   6.72336 
 C                     7.01949   21.50498   6.19235 
 C                     7.01263   24.27462   6.082 
 C                     8.03501   22.14746   5.49453 
 C                     8.03558   23.58332   5.44762 
 C                     9.36663   21.68807   5.5902 
 C                     9.37199   24.04212   5.53121 
 C                     12.09238   21.62868   6.52761 
 C                     12.08214   24.11952   6.52179 
 C                     10.22391   22.8619   5.49208 
 C                     11.48025   22.87006   5.95802 
 C                     10.13711   22.02744   13.47501 
 C                     10.12761   23.45569   13.50985 
 Cl                    14.02895   19.08832   8.30723 
 Cl                    14.89503   21.07059   11.85818 
 Cl                    14.76218   24.80511   11.87924 
 Cl                    13.35017   20.92356   5.42985 
 Cl                    4.52942   26.82185   10.66531 
 Cl                    3.66794   24.96486   7.53894 
 Cl                    13.93369   26.70986   8.45296 
 Cl                    3.73411   20.80853   7.63447 
 Cl                    4.43772   19.16389   10.61913 
 Cl                    5.33214   24.71939   13.9803 
 Cl                    5.18461   21.12018   13.89799 
 Cl                    13.36515   24.81396   5.4421 
 
 ITRead=  0  0  0  0  0  0  0  0  0  0  0  0  0  0  0  0  0  0  0  0
 ITRead=  0  0  0  0  0  0  0  0  0  0  0  0  0  0  0  0  0  0  0  0
 ITRead=  0  0  0  0  0  0  0  0  0  0  0  0  0  0  0  0  0  0  0  0
 ITRead=  0  0  0  0  0  0  0  0  0  0  0  0  0  0  0  0  0  0  0  0
 ITRead=  0  0  0  0  0  0  0  0  0  0  0  0  0  0  0  0
 MicOpt= -1 -1 -1 -1 -1 -1 -1 -1 -1 -1 -1 -1 -1 -1 -1 -1 -1 -1 -1 -1
 MicOpt= -1 -1 -1 -1 -1 -1 -1 -1 -1 -1 -1 -1 -1 -1 -1 -1 -1 -1 -1 -1
 MicOpt= -1 -1 -1 -1 -1 -1 -1 -1 -1 -1 -1 -1 -1 -1 -1 -1 -1 -1 -1 -1
 MicOpt= -1 -1 -1 -1 -1 -1 -1 -1 -1 -1 -1 -1 -1 -1 -1 -1 -1 -1 -1 -1
 MicOpt= -1 -1 -1 -1 -1 -1 -1 -1 -1 -1 -1 -1 -1 -1 -1 -1
 NAtoms=     96 NQM=       96 NQMF=       0 NMMI=      0 NMMIF=      0
                NMic=       0 NMicF=      0.
                    Isotopes and Nuclear Properties:
 (Nuclear quadrupole moments (NQMom) in fm**2, nuclear magnetic moments (NMagM)
  in nuclear magnetons)

  Atom         1           2           3           4           5           6           7           8           9          10
 IAtWgt=          12          12          12          12          12          12          12          12          12          12
 AtmWgt=  12.0000000  12.0000000  12.0000000  12.0000000  12.0000000  12.0000000  12.0000000  12.0000000  12.0000000  12.0000000
 NucSpn=           0           0           0           0           0           0           0           0           0           0
 AtZEff=  -0.0000000  -0.0000000  -0.0000000  -0.0000000  -0.0000000  -0.0000000  -0.0000000  -0.0000000  -0.0000000  -0.0000000
 NQMom=    0.0000000   0.0000000   0.0000000   0.0000000   0.0000000   0.0000000   0.0000000   0.0000000   0.0000000   0.0000000
 NMagM=    0.0000000   0.0000000   0.0000000   0.0000000   0.0000000   0.0000000   0.0000000   0.0000000   0.0000000   0.0000000
 AtZNuc=   6.0000000   6.0000000   6.0000000   6.0000000   6.0000000   6.0000000   6.0000000   6.0000000   6.0000000   6.0000000

  Atom        11          12          13          14          15          16          17          18          19          20
 IAtWgt=          12          12          12          12          12          12          12          12          12          12
 AtmWgt=  12.0000000  12.0000000  12.0000000  12.0000000  12.0000000  12.0000000  12.0000000  12.0000000  12.0000000  12.0000000
 NucSpn=           0           0           0           0           0           0           0           0           0           0
 AtZEff=  -0.0000000  -0.0000000  -0.0000000  -0.0000000  -0.0000000  -0.0000000  -0.0000000  -0.0000000  -0.0000000  -0.0000000
 NQMom=    0.0000000   0.0000000   0.0000000   0.0000000   0.0000000   0.0000000   0.0000000   0.0000000   0.0000000   0.0000000
 NMagM=    0.0000000   0.0000000   0.0000000   0.0000000   0.0000000   0.0000000   0.0000000   0.0000000   0.0000000   0.0000000
 AtZNuc=   6.0000000   6.0000000   6.0000000   6.0000000   6.0000000   6.0000000   6.0000000   6.0000000   6.0000000   6.0000000

  Atom        21          22          23          24          25          26          27          28          29          30
 IAtWgt=          12          12          12          12          12          12          12          12          12          12
 AtmWgt=  12.0000000  12.0000000  12.0000000  12.0000000  12.0000000  12.0000000  12.0000000  12.0000000  12.0000000  12.0000000
 NucSpn=           0           0           0           0           0           0           0           0           0           0
 AtZEff=  -0.0000000  -0.0000000  -0.0000000  -0.0000000  -0.0000000  -0.0000000  -0.0000000  -0.0000000  -0.0000000  -0.0000000
 NQMom=    0.0000000   0.0000000   0.0000000   0.0000000   0.0000000   0.0000000   0.0000000   0.0000000   0.0000000   0.0000000
 NMagM=    0.0000000   0.0000000   0.0000000   0.0000000   0.0000000   0.0000000   0.0000000   0.0000000   0.0000000   0.0000000
 AtZNuc=   6.0000000   6.0000000   6.0000000   6.0000000   6.0000000   6.0000000   6.0000000   6.0000000   6.0000000   6.0000000

  Atom        31          32          33          34          35          36          37          38          39          40
 IAtWgt=          12          12          12          12          12          12          12          12          12          12
 AtmWgt=  12.0000000  12.0000000  12.0000000  12.0000000  12.0000000  12.0000000  12.0000000  12.0000000  12.0000000  12.0000000
 NucSpn=           0           0           0           0           0           0           0           0           0           0
 AtZEff=  -0.0000000  -0.0000000  -0.0000000  -0.0000000  -0.0000000  -0.0000000  -0.0000000  -0.0000000  -0.0000000  -0.0000000
 NQMom=    0.0000000   0.0000000   0.0000000   0.0000000   0.0000000   0.0000000   0.0000000   0.0000000   0.0000000   0.0000000
 NMagM=    0.0000000   0.0000000   0.0000000   0.0000000   0.0000000   0.0000000   0.0000000   0.0000000   0.0000000   0.0000000
 AtZNuc=   6.0000000   6.0000000   6.0000000   6.0000000   6.0000000   6.0000000   6.0000000   6.0000000   6.0000000   6.0000000

  Atom        41          42          43          44          45          46          47          48          49          50
 IAtWgt=          12          12          12          12          12          12          12          12          12          12
 AtmWgt=  12.0000000  12.0000000  12.0000000  12.0000000  12.0000000  12.0000000  12.0000000  12.0000000  12.0000000  12.0000000
 NucSpn=           0           0           0           0           0           0           0           0           0           0
 AtZEff=  -0.0000000  -0.0000000  -0.0000000  -0.0000000  -0.0000000  -0.0000000  -0.0000000  -0.0000000  -0.0000000  -0.0000000
 NQMom=    0.0000000   0.0000000   0.0000000   0.0000000   0.0000000   0.0000000   0.0000000   0.0000000   0.0000000   0.0000000
 NMagM=    0.0000000   0.0000000   0.0000000   0.0000000   0.0000000   0.0000000   0.0000000   0.0000000   0.0000000   0.0000000
 AtZNuc=   6.0000000   6.0000000   6.0000000   6.0000000   6.0000000   6.0000000   6.0000000   6.0000000   6.0000000   6.0000000

  Atom        51          52          53          54          55          56          57          58          59          60
 IAtWgt=          12          12          12          12          12          12          12          12          12          12
 AtmWgt=  12.0000000  12.0000000  12.0000000  12.0000000  12.0000000  12.0000000  12.0000000  12.0000000  12.0000000  12.0000000
 NucSpn=           0           0           0           0           0           0           0           0           0           0
 AtZEff=  -0.0000000  -0.0000000  -0.0000000  -0.0000000  -0.0000000  -0.0000000  -0.0000000  -0.0000000  -0.0000000  -0.0000000
 NQMom=    0.0000000   0.0000000   0.0000000   0.0000000   0.0000000   0.0000000   0.0000000   0.0000000   0.0000000   0.0000000
 NMagM=    0.0000000   0.0000000   0.0000000   0.0000000   0.0000000   0.0000000   0.0000000   0.0000000   0.0000000   0.0000000
 AtZNuc=   6.0000000   6.0000000   6.0000000   6.0000000   6.0000000   6.0000000   6.0000000   6.0000000   6.0000000   6.0000000

  Atom        61          62          63          64          65          66          67          68          69          70
 IAtWgt=          12          12          12          12          12          12          12          12          12          12
 AtmWgt=  12.0000000  12.0000000  12.0000000  12.0000000  12.0000000  12.0000000  12.0000000  12.0000000  12.0000000  12.0000000
 NucSpn=           0           0           0           0           0           0           0           0           0           0
 AtZEff=  -0.0000000  -0.0000000  -0.0000000  -0.0000000  -0.0000000  -0.0000000  -0.0000000  -0.0000000  -0.0000000  -0.0000000
 NQMom=    0.0000000   0.0000000   0.0000000   0.0000000   0.0000000   0.0000000   0.0000000   0.0000000   0.0000000   0.0000000
 NMagM=    0.0000000   0.0000000   0.0000000   0.0000000   0.0000000   0.0000000   0.0000000   0.0000000   0.0000000   0.0000000
 AtZNuc=   6.0000000   6.0000000   6.0000000   6.0000000   6.0000000   6.0000000   6.0000000   6.0000000   6.0000000   6.0000000

  Atom        71          72          73          74          75          76          77          78          79          80
 IAtWgt=          12          12          12          12          12          12          12          12          12          12
 AtmWgt=  12.0000000  12.0000000  12.0000000  12.0000000  12.0000000  12.0000000  12.0000000  12.0000000  12.0000000  12.0000000
 NucSpn=           0           0           0           0           0           0           0           0           0           0
 AtZEff=  -0.0000000  -0.0000000  -0.0000000  -0.0000000  -0.0000000  -0.0000000  -0.0000000  -0.0000000  -0.0000000  -0.0000000
 NQMom=    0.0000000   0.0000000   0.0000000   0.0000000   0.0000000   0.0000000   0.0000000   0.0000000   0.0000000   0.0000000
 NMagM=    0.0000000   0.0000000   0.0000000   0.0000000   0.0000000   0.0000000   0.0000000   0.0000000   0.0000000   0.0000000
 AtZNuc=   6.0000000   6.0000000   6.0000000   6.0000000   6.0000000   6.0000000   6.0000000   6.0000000   6.0000000   6.0000000

  Atom        81          82          83          84          85          86          87          88          89          90
 IAtWgt=          12          12          12          12          35          35          35          35          35          35
 AtmWgt=  12.0000000  12.0000000  12.0000000  12.0000000  34.9688527  34.9688527  34.9688527  34.9688527  34.9688527  34.9688527
 NucSpn=           0           0           0           0           3           3           3           3           3           3
 AtZEff=  -0.0000000  -0.0000000  -0.0000000  -0.0000000  -0.0000000  -0.0000000  -0.0000000  -0.0000000  -0.0000000  -0.0000000
 NQMom=    0.0000000   0.0000000   0.0000000   0.0000000  -8.1650000  -8.1650000  -8.1650000  -8.1650000  -8.1650000  -8.1650000
 NMagM=    0.0000000   0.0000000   0.0000000   0.0000000   0.8218740   0.8218740   0.8218740   0.8218740   0.8218740   0.8218740
 AtZNuc=   6.0000000   6.0000000   6.0000000   6.0000000  17.0000000  17.0000000  17.0000000  17.0000000  17.0000000  17.0000000

  Atom        91          92          93          94          95          96
 IAtWgt=          35          35          35          35          35          35
 AtmWgt=  34.9688527  34.9688527  34.9688527  34.9688527  34.9688527  34.9688527
 NucSpn=           3           3           3           3           3           3
 AtZEff=  -0.0000000  -0.0000000  -0.0000000  -0.0000000  -0.0000000  -0.0000000
 NQMom=   -8.1650000  -8.1650000  -8.1650000  -8.1650000  -8.1650000  -8.1650000
 NMagM=    0.8218740   0.8218740   0.8218740   0.8218740   0.8218740   0.8218740
 AtZNuc=  17.0000000  17.0000000  17.0000000  17.0000000  17.0000000  17.0000000
 Leave Link  101 at Wed Jun 29 03:29:10 2022, MaxMem=  1342177280 cpu:               6.7 elap:               0.3
 (Enter /home/mkliu/g16/l103.exe)

 GradGradGradGradGradGradGradGradGradGradGradGradGradGradGradGradGradGrad
 Berny optimization.
 Initialization pass.
                           ----------------------------
                           !    Initial Parameters    !
                           ! (Angstroms and Degrees)  !
 --------------------------                            --------------------------
 ! Name  Definition              Value          Derivative Info.                !
 --------------------------------------------------------------------------------
 ! R1    R(1,5)                  1.4032         estimate D2E/DX2                !
 ! R2    R(1,17)                 1.4119         estimate D2E/DX2                !
 ! R3    R(1,23)                 1.4569         estimate D2E/DX2                !
 ! R4    R(2,6)                  1.4994         estimate D2E/DX2                !
 ! R5    R(2,43)                 1.5201         estimate D2E/DX2                !
 ! R6    R(2,44)                 1.5087         estimate D2E/DX2                !
 ! R7    R(2,85)                 1.8012         estimate D2E/DX2                !
 ! R8    R(3,7)                  1.4179         estimate D2E/DX2                !
 ! R9    R(3,18)                 1.4105         estimate D2E/DX2                !
 ! R10   R(3,26)                 1.4277         estimate D2E/DX2                !
 ! R11   R(4,8)                  1.5003         estimate D2E/DX2                !
 ! R12   R(4,45)                 1.5073         estimate D2E/DX2                !
 ! R13   R(4,46)                 1.5176         estimate D2E/DX2                !
 ! R14   R(4,91)                 1.8011         estimate D2E/DX2                !
 ! R15   R(5,9)                  1.4432         estimate D2E/DX2                !
 ! R16   R(5,29)                 1.4359         estimate D2E/DX2                !
 ! R17   R(6,10)                 1.3589         estimate D2E/DX2                !
 ! R18   R(6,15)                 1.4309         estimate D2E/DX2                !
 ! R19   R(7,12)                 1.4151         estimate D2E/DX2                !
 ! R20   R(7,30)                 1.421          estimate D2E/DX2                !
 ! R21   R(8,11)                 1.3567         estimate D2E/DX2                !
 ! R22   R(8,16)                 1.4242         estimate D2E/DX2                !
 ! R23   R(9,13)                 1.4094         estimate D2E/DX2                !
 ! R24   R(9,35)                 1.4278         estimate D2E/DX2                !
 ! R25   R(10,49)                1.5064         estimate D2E/DX2                !
 ! R26   R(10,53)                1.4336         estimate D2E/DX2                !
 ! R27   R(11,50)                1.5058         estimate D2E/DX2                !
 ! R28   R(11,54)                1.4277         estimate D2E/DX2                !
 ! R29   R(12,14)                1.4075         estimate D2E/DX2                !
 ! R30   R(12,36)                1.4287         estimate D2E/DX2                !
 ! R31   R(13,15)                1.4159         estimate D2E/DX2                !
 ! R32   R(13,43)                1.4239         estimate D2E/DX2                !
 ! R33   R(14,16)                1.4159         estimate D2E/DX2                !
 ! R34   R(14,46)                1.4231         estimate D2E/DX2                !
 ! R35   R(15,17)                1.3896         estimate D2E/DX2                !
 ! R36   R(16,18)                1.4138         estimate D2E/DX2                !
 ! R37   R(17,19)                1.4366         estimate D2E/DX2                !
 ! R38   R(18,20)                1.4303         estimate D2E/DX2                !
 ! R39   R(19,21)                1.4154         estimate D2E/DX2                !
 ! R40   R(19,53)                1.3881         estimate D2E/DX2                !
 ! R41   R(20,22)                1.4138         estimate D2E/DX2                !
 ! R42   R(20,54)                1.4105         estimate D2E/DX2                !
 ! R43   R(21,23)                1.4561         estimate D2E/DX2                !
 ! R44   R(21,57)                1.4025         estimate D2E/DX2                !
 ! R45   R(22,24)                1.4242         estimate D2E/DX2                !
 ! R46   R(22,58)                1.4159         estimate D2E/DX2                !
 ! R47   R(23,25)                1.34           estimate D2E/DX2                !
 ! R48   R(24,26)                1.3567         estimate D2E/DX2                !
 ! R49   R(24,62)                1.5003         estimate D2E/DX2                !
 ! R50   R(25,27)                1.4967         estimate D2E/DX2                !
 ! R51   R(25,61)                1.4971         estimate D2E/DX2                !
 ! R52   R(26,28)                1.5058         estimate D2E/DX2                !
 ! R53   R(27,29)                1.509          estimate D2E/DX2                !
 ! R54   R(27,65)                1.5064         estimate D2E/DX2                !
 ! R55   R(27,93)                1.8123         estimate D2E/DX2                !
 ! R56   R(28,30)                1.5007         estimate D2E/DX2                !
 ! R57   R(28,66)                1.5205         estimate D2E/DX2                !
 ! R58   R(28,89)                1.7993         estimate D2E/DX2                !
 ! R59   R(29,31)                1.3628         estimate D2E/DX2                !
 ! R60   R(30,32)                1.3533         estimate D2E/DX2                !
 ! R61   R(31,33)                1.4239         estimate D2E/DX2                !
 ! R62   R(31,69)                1.5201         estimate D2E/DX2                !
 ! R63   R(32,34)                1.4259         estimate D2E/DX2                !
 ! R64   R(32,70)                1.5054         estimate D2E/DX2                !
 ! R65   R(33,35)                1.4094         estimate D2E/DX2                !
 ! R66   R(33,73)                1.4159         estimate D2E/DX2                !
 ! R67   R(34,36)                1.4143         estimate D2E/DX2                !
 ! R68   R(34,74)                1.4168         estimate D2E/DX2                !
 ! R69   R(35,37)                1.4432         estimate D2E/DX2                !
 ! R70   R(36,38)                1.4429         estimate D2E/DX2                !
 ! R71   R(37,39)                1.4359         estimate D2E/DX2                !
 ! R72   R(37,77)                1.4032         estimate D2E/DX2                !
 ! R73   R(38,42)                1.4422         estimate D2E/DX2                !
 ! R74   R(38,78)                1.4025         estimate D2E/DX2                !
 ! R75   R(39,43)                1.3628         estimate D2E/DX2                !
 ! R76   R(39,79)                1.5091         estimate D2E/DX2                !
 ! R77   R(40,41)                1.3874         estimate D2E/DX2                !
 ! R78   R(40,44)                1.3834         estimate D2E/DX2                !
 ! R79   R(40,79)                1.5064         estimate D2E/DX2                !
 ! R80   R(41,45)                1.3827         estimate D2E/DX2                !
 ! R81   R(41,80)                1.5075         estimate D2E/DX2                !
 ! R82   R(42,46)                1.3651         estimate D2E/DX2                !
 ! R83   R(42,80)                1.5096         estimate D2E/DX2                !
 ! R84   R(44,47)                1.4022         estimate D2E/DX2                !
 ! R85   R(45,48)                1.4021         estimate D2E/DX2                !
 ! R86   R(47,48)                1.4063         estimate D2E/DX2                !
 ! R87   R(47,49)                1.522          estimate D2E/DX2                !
 ! R88   R(48,50)                1.5205         estimate D2E/DX2                !
 ! R89   R(49,51)                1.5054         estimate D2E/DX2                !
 ! R90   R(49,86)                1.8012         estimate D2E/DX2                !
 ! R91   R(50,52)                1.5007         estimate D2E/DX2                !
 ! R92   R(50,87)                1.7993         estimate D2E/DX2                !
 ! R93   R(51,52)                1.3533         estimate D2E/DX2                !
 ! R94   R(51,55)                1.4259         estimate D2E/DX2                !
 ! R95   R(52,56)                1.421          estimate D2E/DX2                !
 ! R96   R(53,55)                1.4168         estimate D2E/DX2                !
 ! R97   R(54,56)                1.4179         estimate D2E/DX2                !
 ! R98   R(55,83)                1.4143         estimate D2E/DX2                !
 ! R99   R(56,84)                1.4151         estimate D2E/DX2                !
 ! R100  R(57,59)                1.4422         estimate D2E/DX2                !
 ! R101  R(57,83)                1.4429         estimate D2E/DX2                !
 ! R102  R(58,60)                1.4231         estimate D2E/DX2                !
 ! R103  R(58,84)                1.4075         estimate D2E/DX2                !
 ! R104  R(59,60)                1.3651         estimate D2E/DX2                !
 ! R105  R(59,61)                1.5096         estimate D2E/DX2                !
 ! R106  R(60,62)                1.5176         estimate D2E/DX2                !
 ! R107  R(61,63)                1.5075         estimate D2E/DX2                !
 ! R108  R(61,95)                1.815          estimate D2E/DX2                !
 ! R109  R(62,64)                1.5073         estimate D2E/DX2                !
 ! R110  R(62,94)                1.8011         estimate D2E/DX2                !
 ! R111  R(63,64)                1.3827         estimate D2E/DX2                !
 ! R112  R(63,65)                1.3874         estimate D2E/DX2                !
 ! R113  R(64,66)                1.4021         estimate D2E/DX2                !
 ! R114  R(65,67)                1.3834         estimate D2E/DX2                !
 ! R115  R(66,68)                1.4063         estimate D2E/DX2                !
 ! R116  R(67,68)                1.4022         estimate D2E/DX2                !
 ! R117  R(67,69)                1.5087         estimate D2E/DX2                !
 ! R118  R(68,70)                1.522          estimate D2E/DX2                !
 ! R119  R(69,71)                1.4994         estimate D2E/DX2                !
 ! R120  R(69,92)                1.8012         estimate D2E/DX2                !
 ! R121  R(70,72)                1.5064         estimate D2E/DX2                !
 ! R122  R(70,90)                1.8012         estimate D2E/DX2                !
 ! R123  R(71,72)                1.3589         estimate D2E/DX2                !
 ! R124  R(71,73)                1.4309         estimate D2E/DX2                !
 ! R125  R(72,74)                1.4336         estimate D2E/DX2                !
 ! R126  R(73,75)                1.3896         estimate D2E/DX2                !
 ! R127  R(74,76)                1.3881         estimate D2E/DX2                !
 ! R128  R(75,76)                1.4366         estimate D2E/DX2                !
 ! R129  R(75,77)                1.4119         estimate D2E/DX2                !
 ! R130  R(76,78)                1.4154         estimate D2E/DX2                !
 ! R131  R(77,81)                1.4569         estimate D2E/DX2                !
 ! R132  R(78,81)                1.4561         estimate D2E/DX2                !
 ! R133  R(79,82)                1.4967         estimate D2E/DX2                !
 ! R134  R(79,88)                1.8123         estimate D2E/DX2                !
 ! R135  R(80,82)                1.4971         estimate D2E/DX2                !
 ! R136  R(80,96)                1.815          estimate D2E/DX2                !
 ! R137  R(81,82)                1.34           estimate D2E/DX2                !
 ! R138  R(83,84)                1.4287         estimate D2E/DX2                !
 ! A1    A(5,1,17)             121.9168         estimate D2E/DX2                !
 ! A2    A(5,1,23)             120.1564         estimate D2E/DX2                !
 ! A3    A(17,1,23)            106.754          estimate D2E/DX2                !
 ! A4    A(6,2,43)             101.967          estimate D2E/DX2                !
 ! A5    A(6,2,44)             110.4517         estimate D2E/DX2                !
 ! A6    A(6,2,85)             113.0489         estimate D2E/DX2                !
 ! A7    A(43,2,44)            108.4725         estimate D2E/DX2                !
 ! A8    A(43,2,85)            112.6089         estimate D2E/DX2                !
 ! A9    A(44,2,85)            109.9867         estimate D2E/DX2                !
 ! A10   A(7,3,18)             121.6411         estimate D2E/DX2                !
 ! A11   A(7,3,26)             108.4632         estimate D2E/DX2                !
 ! A12   A(18,3,26)            121.9243         estimate D2E/DX2                !
 ! A13   A(8,4,45)             109.8603         estimate D2E/DX2                !
 ! A14   A(8,4,46)             101.5804         estimate D2E/DX2                !
 ! A15   A(8,4,91)             113.3628         estimate D2E/DX2                !
 ! A16   A(45,4,46)            109.598          estimate D2E/DX2                !
 ! A17   A(45,4,91)            109.9814         estimate D2E/DX2                !
 ! A18   A(46,4,91)            112.1621         estimate D2E/DX2                !
 ! A19   A(1,5,9)              118.216          estimate D2E/DX2                !
 ! A20   A(1,5,29)             117.5796         estimate D2E/DX2                !
 ! A21   A(9,5,29)             119.5547         estimate D2E/DX2                !
 ! A22   A(2,6,10)             122.4939         estimate D2E/DX2                !
 ! A23   A(2,6,15)             109.33           estimate D2E/DX2                !
 ! A24   A(10,6,15)            119.8105         estimate D2E/DX2                !
 ! A25   A(3,7,12)             121.5477         estimate D2E/DX2                !
 ! A26   A(3,7,30)             108.464          estimate D2E/DX2                !
 ! A27   A(12,7,30)            121.4481         estimate D2E/DX2                !
 ! A28   A(4,8,11)             122.1771         estimate D2E/DX2                !
 ! A29   A(4,8,16)             110.3349         estimate D2E/DX2                !
 ! A30   A(11,8,16)            120.0801         estimate D2E/DX2                !
 ! A31   A(5,9,13)             118.6485         estimate D2E/DX2                !
 ! A32   A(5,9,35)             120.5497         estimate D2E/DX2                !
 ! A33   A(13,9,35)            116.815          estimate D2E/DX2                !
 ! A34   A(6,10,49)            123.1944         estimate D2E/DX2                !
 ! A35   A(6,10,53)            119.3008         estimate D2E/DX2                !
 ! A36   A(49,10,53)           109.5683         estimate D2E/DX2                !
 ! A37   A(8,11,50)            122.8756         estimate D2E/DX2                !
 ! A38   A(8,11,54)            119.3481         estimate D2E/DX2                !
 ! A39   A(50,11,54)           110.6222         estimate D2E/DX2                !
 ! A40   A(7,12,14)            116.0325         estimate D2E/DX2                !
 ! A41   A(7,12,36)            119.8004         estimate D2E/DX2                !
 ! A42   A(14,12,36)           118.7774         estimate D2E/DX2                !
 ! A43   A(9,13,15)            122.1607         estimate D2E/DX2                !
 ! A44   A(9,13,43)            121.7909         estimate D2E/DX2                !
 ! A45   A(15,13,43)           108.5524         estimate D2E/DX2                !
 ! A46   A(12,14,16)           122.1476         estimate D2E/DX2                !
 ! A47   A(12,14,46)           121.3395         estimate D2E/DX2                !
 ! A48   A(16,14,46)           109.2715         estimate D2E/DX2                !
 ! A49   A(6,15,13)            109.3787         estimate D2E/DX2                !
 ! A50   A(6,15,17)            121.5273         estimate D2E/DX2                !
 ! A51   A(13,15,17)           118.6799         estimate D2E/DX2                !
 ! A52   A(8,16,14)            108.5089         estimate D2E/DX2                !
 ! A53   A(8,16,18)            121.8861         estimate D2E/DX2                !
 ! A54   A(14,16,18)           121.2282         estimate D2E/DX2                !
 ! A55   A(1,17,15)            120.3172         estimate D2E/DX2                !
 ! A56   A(1,17,19)            109.0892         estimate D2E/DX2                !
 ! A57   A(15,17,19)           118.6063         estimate D2E/DX2                !
 ! A58   A(3,18,16)            116.346          estimate D2E/DX2                !
 ! A59   A(3,18,20)            118.6415         estimate D2E/DX2                !
 ! A60   A(16,18,20)           117.9905         estimate D2E/DX2                !
 ! A61   A(17,19,21)           108.809          estimate D2E/DX2                !
 ! A62   A(17,19,53)           118.852          estimate D2E/DX2                !
 ! A63   A(21,19,53)           120.4893         estimate D2E/DX2                !
 ! A64   A(18,20,22)           117.9905         estimate D2E/DX2                !
 ! A65   A(18,20,54)           118.6414         estimate D2E/DX2                !
 ! A66   A(22,20,54)           116.3459         estimate D2E/DX2                !
 ! A67   A(19,21,23)           106.7436         estimate D2E/DX2                !
 ! A68   A(19,21,57)           121.8211         estimate D2E/DX2                !
 ! A69   A(23,21,57)           120.2917         estimate D2E/DX2                !
 ! A70   A(20,22,24)           121.8861         estimate D2E/DX2                !
 ! A71   A(20,22,58)           121.2282         estimate D2E/DX2                !
 ! A72   A(24,22,58)           108.5088         estimate D2E/DX2                !
 ! A73   A(1,23,21)            107.8773         estimate D2E/DX2                !
 ! A74   A(1,23,25)            122.2218         estimate D2E/DX2                !
 ! A75   A(21,23,25)           122.2946         estimate D2E/DX2                !
 ! A76   A(22,24,26)           120.0801         estimate D2E/DX2                !
 ! A77   A(22,24,62)           110.3349         estimate D2E/DX2                !
 ! A78   A(26,24,62)           122.1771         estimate D2E/DX2                !
 ! A79   A(23,25,27)           120.7124         estimate D2E/DX2                !
 ! A80   A(23,25,61)           120.8618         estimate D2E/DX2                !
 ! A81   A(27,25,61)           112.6111         estimate D2E/DX2                !
 ! A82   A(3,26,24)            119.3481         estimate D2E/DX2                !
 ! A83   A(3,26,28)            110.6222         estimate D2E/DX2                !
 ! A84   A(24,26,28)           122.8755         estimate D2E/DX2                !
 ! A85   A(25,27,29)           113.4854         estimate D2E/DX2                !
 ! A86   A(25,27,65)           100.2556         estimate D2E/DX2                !
 ! A87   A(25,27,93)           112.0885         estimate D2E/DX2                !
 ! A88   A(29,27,65)           108.4559         estimate D2E/DX2                !
 ! A89   A(29,27,93)           110.3387         estimate D2E/DX2                !
 ! A90   A(65,27,93)           111.8121         estimate D2E/DX2                !
 ! A91   A(26,28,30)           101.0565         estimate D2E/DX2                !
 ! A92   A(26,28,66)           110.0175         estimate D2E/DX2                !
 ! A93   A(26,28,89)           113.3285         estimate D2E/DX2                !
 ! A94   A(30,28,66)           109.1994         estimate D2E/DX2                !
 ! A95   A(30,28,89)           113.9081         estimate D2E/DX2                !
 ! A96   A(66,28,89)           109.0693         estimate D2E/DX2                !
 ! A97   A(5,29,27)            121.8935         estimate D2E/DX2                !
 ! A98   A(5,29,31)            119.023          estimate D2E/DX2                !
 ! A99   A(27,29,31)           116.836          estimate D2E/DX2                !
 ! A100  A(7,30,28)            111.1607         estimate D2E/DX2                !
 ! A101  A(7,30,32)            119.2884         estimate D2E/DX2                !
 ! A102  A(28,30,32)           122.5351         estimate D2E/DX2                !
 ! A103  A(29,31,33)           121.3417         estimate D2E/DX2                !
 ! A104  A(29,31,69)           124.5955         estimate D2E/DX2                !
 ! A105  A(33,31,69)           109.7695         estimate D2E/DX2                !
 ! A106  A(30,32,34)           120.1693         estimate D2E/DX2                !
 ! A107  A(30,32,70)           121.714          estimate D2E/DX2                !
 ! A108  A(34,32,70)           111.3044         estimate D2E/DX2                !
 ! A109  A(31,33,35)           121.7909         estimate D2E/DX2                !
 ! A110  A(31,33,73)           108.5524         estimate D2E/DX2                !
 ! A111  A(35,33,73)           122.1607         estimate D2E/DX2                !
 ! A112  A(32,34,36)           122.4382         estimate D2E/DX2                !
 ! A113  A(32,34,74)           107.5942         estimate D2E/DX2                !
 ! A114  A(36,34,74)           121.6824         estimate D2E/DX2                !
 ! A115  A(9,35,33)            116.815          estimate D2E/DX2                !
 ! A116  A(9,35,37)            120.5497         estimate D2E/DX2                !
 ! A117  A(33,35,37)           118.6485         estimate D2E/DX2                !
 ! A118  A(12,36,34)           116.5139         estimate D2E/DX2                !
 ! A119  A(12,36,38)           119.2907         estimate D2E/DX2                !
 ! A120  A(34,36,38)           119.0682         estimate D2E/DX2                !
 ! A121  A(35,37,39)           119.5545         estimate D2E/DX2                !
 ! A122  A(35,37,77)           118.216          estimate D2E/DX2                !
 ! A123  A(39,37,77)           117.5798         estimate D2E/DX2                !
 ! A124  A(36,38,42)           119.8098         estimate D2E/DX2                !
 ! A125  A(36,38,78)           117.953          estimate D2E/DX2                !
 ! A126  A(42,38,78)           117.7235         estimate D2E/DX2                !
 ! A127  A(37,39,43)           119.0232         estimate D2E/DX2                !
 ! A128  A(37,39,79)           121.8935         estimate D2E/DX2                !
 ! A129  A(43,39,79)           116.836          estimate D2E/DX2                !
 ! A130  A(41,40,44)           121.1752         estimate D2E/DX2                !
 ! A131  A(41,40,79)           111.3588         estimate D2E/DX2                !
 ! A132  A(44,40,79)           124.9815         estimate D2E/DX2                !
 ! A133  A(40,41,45)           120.7617         estimate D2E/DX2                !
 ! A134  A(40,41,80)           111.59           estimate D2E/DX2                !
 ! A135  A(45,41,80)           125.3011         estimate D2E/DX2                !
 ! A136  A(38,42,46)           119.6431         estimate D2E/DX2                !
 ! A137  A(38,42,80)           121.5668         estimate D2E/DX2                !
 ! A138  A(46,42,80)           116.508          estimate D2E/DX2                !
 ! A139  A(2,43,13)            109.7696         estimate D2E/DX2                !
 ! A140  A(2,43,39)            124.5955         estimate D2E/DX2                !
 ! A141  A(13,43,39)           121.3417         estimate D2E/DX2                !
 ! A142  A(2,44,40)            115.87           estimate D2E/DX2                !
 ! A143  A(2,44,47)            124.0104         estimate D2E/DX2                !
 ! A144  A(40,44,47)           118.9378         estimate D2E/DX2                !
 ! A145  A(4,45,41)            116.0392         estimate D2E/DX2                !
 ! A146  A(4,45,48)            123.8435         estimate D2E/DX2                !
 ! A147  A(41,45,48)           118.9674         estimate D2E/DX2                !
 ! A148  A(4,46,14)            109.2469         estimate D2E/DX2                !
 ! A149  A(4,46,42)            125.2776         estimate D2E/DX2                !
 ! A150  A(14,46,42)           121.0123         estimate D2E/DX2                !
 ! A151  A(44,47,48)           119.8477         estimate D2E/DX2                !
 ! A152  A(44,47,49)           119.0219         estimate D2E/DX2                !
 ! A153  A(48,47,49)           120.5649         estimate D2E/DX2                !
 ! A154  A(45,48,47)           120.2592         estimate D2E/DX2                !
 ! A155  A(45,48,50)           118.6207         estimate D2E/DX2                !
 ! A156  A(47,48,50)           120.4859         estimate D2E/DX2                !
 ! A157  A(10,49,47)           110.5797         estimate D2E/DX2                !
 ! A158  A(10,49,51)           101.4294         estimate D2E/DX2                !
 ! A159  A(10,49,86)           113.2746         estimate D2E/DX2                !
 ! A160  A(47,49,51)           109.0193         estimate D2E/DX2                !
 ! A161  A(47,49,86)           108.6545         estimate D2E/DX2                !
 ! A162  A(51,49,86)           113.6952         estimate D2E/DX2                !
 ! A163  A(11,50,48)           110.0175         estimate D2E/DX2                !
 ! A164  A(11,50,52)           101.0565         estimate D2E/DX2                !
 ! A165  A(11,50,87)           113.3285         estimate D2E/DX2                !
 ! A166  A(48,50,52)           109.1994         estimate D2E/DX2                !
 ! A167  A(48,50,87)           109.0693         estimate D2E/DX2                !
 ! A168  A(52,50,87)           113.9081         estimate D2E/DX2                !
 ! A169  A(49,51,52)           121.714          estimate D2E/DX2                !
 ! A170  A(49,51,55)           111.3045         estimate D2E/DX2                !
 ! A171  A(52,51,55)           120.1693         estimate D2E/DX2                !
 ! A172  A(50,52,51)           122.5351         estimate D2E/DX2                !
 ! A173  A(50,52,56)           111.1607         estimate D2E/DX2                !
 ! A174  A(51,52,56)           119.2883         estimate D2E/DX2                !
 ! A175  A(10,53,19)           121.6586         estimate D2E/DX2                !
 ! A176  A(10,53,55)           109.4816         estimate D2E/DX2                !
 ! A177  A(19,53,55)           118.7407         estimate D2E/DX2                !
 ! A178  A(11,54,20)           121.9243         estimate D2E/DX2                !
 ! A179  A(11,54,56)           108.4632         estimate D2E/DX2                !
 ! A180  A(20,54,56)           121.6411         estimate D2E/DX2                !
 ! A181  A(51,55,53)           107.5942         estimate D2E/DX2                !
 ! A182  A(51,55,83)           122.4382         estimate D2E/DX2                !
 ! A183  A(53,55,83)           121.6823         estimate D2E/DX2                !
 ! A184  A(52,56,54)           108.4641         estimate D2E/DX2                !
 ! A185  A(52,56,84)           121.4482         estimate D2E/DX2                !
 ! A186  A(54,56,84)           121.5477         estimate D2E/DX2                !
 ! A187  A(21,57,59)           117.7234         estimate D2E/DX2                !
 ! A188  A(21,57,83)           117.953          estimate D2E/DX2                !
 ! A189  A(59,57,83)           119.8099         estimate D2E/DX2                !
 ! A190  A(22,58,60)           109.2715         estimate D2E/DX2                !
 ! A191  A(22,58,84)           122.1476         estimate D2E/DX2                !
 ! A192  A(60,58,84)           121.3395         estimate D2E/DX2                !
 ! A193  A(57,59,60)           119.6431         estimate D2E/DX2                !
 ! A194  A(57,59,61)           121.5667         estimate D2E/DX2                !
 ! A195  A(60,59,61)           116.5081         estimate D2E/DX2                !
 ! A196  A(58,60,59)           121.0123         estimate D2E/DX2                !
 ! A197  A(58,60,62)           109.2469         estimate D2E/DX2                !
 ! A198  A(59,60,62)           125.2776         estimate D2E/DX2                !
 ! A199  A(25,61,59)           113.5933         estimate D2E/DX2                !
 ! A200  A(25,61,63)            99.9583         estimate D2E/DX2                !
 ! A201  A(25,61,95)           112.304          estimate D2E/DX2                !
 ! A202  A(59,61,63)           109.4573         estimate D2E/DX2                !
 ! A203  A(59,61,95)           110.0036         estimate D2E/DX2                !
 ! A204  A(63,61,95)           111.1424         estimate D2E/DX2                !
 ! A205  A(24,62,60)           101.5805         estimate D2E/DX2                !
 ! A206  A(24,62,64)           109.8604         estimate D2E/DX2                !
 ! A207  A(24,62,94)           113.3627         estimate D2E/DX2                !
 ! A208  A(60,62,64)           109.5982         estimate D2E/DX2                !
 ! A209  A(60,62,94)           112.1621         estimate D2E/DX2                !
 ! A210  A(64,62,94)           109.9813         estimate D2E/DX2                !
 ! A211  A(61,63,64)           125.3011         estimate D2E/DX2                !
 ! A212  A(61,63,65)           111.5899         estimate D2E/DX2                !
 ! A213  A(64,63,65)           120.7617         estimate D2E/DX2                !
 ! A214  A(62,64,63)           116.0391         estimate D2E/DX2                !
 ! A215  A(62,64,66)           123.8434         estimate D2E/DX2                !
 ! A216  A(63,64,66)           118.9675         estimate D2E/DX2                !
 ! A217  A(27,65,63)           111.3587         estimate D2E/DX2                !
 ! A218  A(27,65,67)           124.9816         estimate D2E/DX2                !
 ! A219  A(63,65,67)           121.1751         estimate D2E/DX2                !
 ! A220  A(28,66,64)           118.6208         estimate D2E/DX2                !
 ! A221  A(28,66,68)           120.4859         estimate D2E/DX2                !
 ! A222  A(64,66,68)           120.2591         estimate D2E/DX2                !
 ! A223  A(65,67,68)           118.9378         estimate D2E/DX2                !
 ! A224  A(65,67,69)           115.8699         estimate D2E/DX2                !
 ! A225  A(68,67,69)           124.0103         estimate D2E/DX2                !
 ! A226  A(66,68,67)           119.8477         estimate D2E/DX2                !
 ! A227  A(66,68,70)           120.5649         estimate D2E/DX2                !
 ! A228  A(67,68,70)           119.0219         estimate D2E/DX2                !
 ! A229  A(31,69,67)           108.4725         estimate D2E/DX2                !
 ! A230  A(31,69,71)           101.967          estimate D2E/DX2                !
 ! A231  A(31,69,92)           112.609          estimate D2E/DX2                !
 ! A232  A(67,69,71)           110.4517         estimate D2E/DX2                !
 ! A233  A(67,69,92)           109.9867         estimate D2E/DX2                !
 ! A234  A(71,69,92)           113.0487         estimate D2E/DX2                !
 ! A235  A(32,70,68)           109.0194         estimate D2E/DX2                !
 ! A236  A(32,70,72)           101.4295         estimate D2E/DX2                !
 ! A237  A(32,70,90)           113.6954         estimate D2E/DX2                !
 ! A238  A(68,70,72)           110.5798         estimate D2E/DX2                !
 ! A239  A(68,70,90)           108.6542         estimate D2E/DX2                !
 ! A240  A(72,70,90)           113.2744         estimate D2E/DX2                !
 ! A241  A(69,71,72)           122.4938         estimate D2E/DX2                !
 ! A242  A(69,71,73)           109.33           estimate D2E/DX2                !
 ! A243  A(72,71,73)           119.8106         estimate D2E/DX2                !
 ! A244  A(70,72,71)           123.1944         estimate D2E/DX2                !
 ! A245  A(70,72,74)           109.5683         estimate D2E/DX2                !
 ! A246  A(71,72,74)           119.3008         estimate D2E/DX2                !
 ! A247  A(33,73,71)           109.3787         estimate D2E/DX2                !
 ! A248  A(33,73,75)           118.6799         estimate D2E/DX2                !
 ! A249  A(71,73,75)           121.5272         estimate D2E/DX2                !
 ! A250  A(34,74,72)           109.4815         estimate D2E/DX2                !
 ! A251  A(34,74,76)           118.7406         estimate D2E/DX2                !
 ! A252  A(72,74,76)           121.6586         estimate D2E/DX2                !
 ! A253  A(73,75,76)           118.6063         estimate D2E/DX2                !
 ! A254  A(73,75,77)           120.3172         estimate D2E/DX2                !
 ! A255  A(76,75,77)           109.0893         estimate D2E/DX2                !
 ! A256  A(74,76,75)           118.8519         estimate D2E/DX2                !
 ! A257  A(74,76,78)           120.4894         estimate D2E/DX2                !
 ! A258  A(75,76,78)           108.8091         estimate D2E/DX2                !
 ! A259  A(37,77,75)           121.9168         estimate D2E/DX2                !
 ! A260  A(37,77,81)           120.1564         estimate D2E/DX2                !
 ! A261  A(75,77,81)           106.7539         estimate D2E/DX2                !
 ! A262  A(38,78,76)           121.8211         estimate D2E/DX2                !
 ! A263  A(38,78,81)           120.2917         estimate D2E/DX2                !
 ! A264  A(76,78,81)           106.7436         estimate D2E/DX2                !
 ! A265  A(39,79,40)           108.4556         estimate D2E/DX2                !
 ! A266  A(39,79,82)           113.4848         estimate D2E/DX2                !
 ! A267  A(39,79,88)           110.3392         estimate D2E/DX2                !
 ! A268  A(40,79,82)           100.2553         estimate D2E/DX2                !
 ! A269  A(40,79,88)           111.8125         estimate D2E/DX2                !
 ! A270  A(82,79,88)           112.0886         estimate D2E/DX2                !
 ! A271  A(41,80,42)           109.4569         estimate D2E/DX2                !
 ! A272  A(41,80,82)            99.9578         estimate D2E/DX2                !
 ! A273  A(41,80,96)           111.143          estimate D2E/DX2                !
 ! A274  A(42,80,82)           113.5925         estimate D2E/DX2                !
 ! A275  A(42,80,96)           110.0043         estimate D2E/DX2                !
 ! A276  A(82,80,96)           112.3042         estimate D2E/DX2                !
 ! A277  A(77,81,78)           107.8774         estimate D2E/DX2                !
 ! A278  A(77,81,82)           122.2215         estimate D2E/DX2                !
 ! A279  A(78,81,82)           122.2945         estimate D2E/DX2                !
 ! A280  A(79,82,80)           112.6111         estimate D2E/DX2                !
 ! A281  A(79,82,81)           120.7128         estimate D2E/DX2                !
 ! A282  A(80,82,81)           120.8622         estimate D2E/DX2                !
 ! A283  A(55,83,57)           119.0681         estimate D2E/DX2                !
 ! A284  A(55,83,84)           116.5139         estimate D2E/DX2                !
 ! A285  A(57,83,84)           119.2906         estimate D2E/DX2                !
 ! A286  A(56,84,58)           116.0325         estimate D2E/DX2                !
 ! A287  A(56,84,83)           119.8003         estimate D2E/DX2                !
 ! A288  A(58,84,83)           118.7774         estimate D2E/DX2                !
 ! D1    D(17,1,5,9)             1.6803         estimate D2E/DX2                !
 ! D2    D(17,1,5,29)         -154.0741         estimate D2E/DX2                !
 ! D3    D(23,1,5,9)           140.6739         estimate D2E/DX2                !
 ! D4    D(23,1,5,29)          -15.0805         estimate D2E/DX2                !
 ! D5    D(5,1,17,15)           -3.0324         estimate D2E/DX2                !
 ! D6    D(5,1,17,19)          139.0858         estimate D2E/DX2                !
 ! D7    D(23,1,17,15)        -146.6985         estimate D2E/DX2                !
 ! D8    D(23,1,17,19)          -4.5804         estimate D2E/DX2                !
 ! D9    D(5,1,23,21)         -136.3285         estimate D2E/DX2                !
 ! D10   D(5,1,23,25)           13.7684         estimate D2E/DX2                !
 ! D11   D(17,1,23,21)           8.1059         estimate D2E/DX2                !
 ! D12   D(17,1,23,25)         158.2028         estimate D2E/DX2                !
 ! D13   D(43,2,6,10)         -138.0096         estimate D2E/DX2                !
 ! D14   D(43,2,6,15)            9.9892         estimate D2E/DX2                !
 ! D15   D(44,2,6,10)          -22.8766         estimate D2E/DX2                !
 ! D16   D(44,2,6,15)          125.1222         estimate D2E/DX2                !
 ! D17   D(85,2,6,10)          100.8421         estimate D2E/DX2                !
 ! D18   D(85,2,6,15)         -111.1591         estimate D2E/DX2                !
 ! D19   D(6,2,43,13)           -7.429          estimate D2E/DX2                !
 ! D20   D(6,2,43,39)          149.402          estimate D2E/DX2                !
 ! D21   D(44,2,43,13)        -124.0053         estimate D2E/DX2                !
 ! D22   D(44,2,43,39)          32.8258         estimate D2E/DX2                !
 ! D23   D(85,2,43,13)         114.0239         estimate D2E/DX2                !
 ! D24   D(85,2,43,39)         -89.1451         estimate D2E/DX2                !
 ! D25   D(6,2,44,40)         -147.7834         estimate D2E/DX2                !
 ! D26   D(6,2,44,47)           19.6216         estimate D2E/DX2                !
 ! D27   D(43,2,44,40)         -36.8122         estimate D2E/DX2                !
 ! D28   D(43,2,44,47)         130.5928         estimate D2E/DX2                !
 ! D29   D(85,2,44,40)          86.7471         estimate D2E/DX2                !
 ! D30   D(85,2,44,47)        -105.8479         estimate D2E/DX2                !
 ! D31   D(18,3,7,12)            3.6096         estimate D2E/DX2                !
 ! D32   D(18,3,7,30)          151.8679         estimate D2E/DX2                !
 ! D33   D(26,3,7,12)         -145.7709         estimate D2E/DX2                !
 ! D34   D(26,3,7,30)            2.4874         estimate D2E/DX2                !
 ! D35   D(7,3,18,16)            5.9313         estimate D2E/DX2                !
 ! D36   D(7,3,18,20)         -144.2055         estimate D2E/DX2                !
 ! D37   D(26,3,18,16)         151.2359         estimate D2E/DX2                !
 ! D38   D(26,3,18,20)           1.0992         estimate D2E/DX2                !
 ! D39   D(7,3,26,24)          146.5563         estimate D2E/DX2                !
 ! D40   D(7,3,26,28)           -4.7226         estimate D2E/DX2                !
 ! D41   D(18,3,26,24)          -2.72           estimate D2E/DX2                !
 ! D42   D(18,3,26,28)        -153.999          estimate D2E/DX2                !
 ! D43   D(45,4,8,11)           24.9741         estimate D2E/DX2                !
 ! D44   D(45,4,8,16)         -124.8739         estimate D2E/DX2                !
 ! D45   D(46,4,8,11)          140.9542         estimate D2E/DX2                !
 ! D46   D(46,4,8,16)           -8.8938         estimate D2E/DX2                !
 ! D47   D(91,4,8,11)          -98.5168         estimate D2E/DX2                !
 ! D48   D(91,4,8,16)          111.6352         estimate D2E/DX2                !
 ! D49   D(8,4,45,41)          144.5029         estimate D2E/DX2                !
 ! D50   D(8,4,45,48)          -23.0781         estimate D2E/DX2                !
 ! D51   D(46,4,45,41)          33.699          estimate D2E/DX2                !
 ! D52   D(46,4,45,48)        -133.882          estimate D2E/DX2                !
 ! D53   D(91,4,45,41)         -90.0484         estimate D2E/DX2                !
 ! D54   D(91,4,45,48)         102.3706         estimate D2E/DX2                !
 ! D55   D(8,4,46,14)           10.2639         estimate D2E/DX2                !
 ! D56   D(8,4,46,42)         -146.0118         estimate D2E/DX2                !
 ! D57   D(45,4,46,14)         126.4362         estimate D2E/DX2                !
 ! D58   D(45,4,46,42)         -29.8396         estimate D2E/DX2                !
 ! D59   D(91,4,46,14)        -111.1053         estimate D2E/DX2                !
 ! D60   D(91,4,46,42)          92.619          estimate D2E/DX2                !
 ! D61   D(1,5,9,13)             0.2937         estimate D2E/DX2                !
 ! D62   D(1,5,9,35)          -156.5362         estimate D2E/DX2                !
 ! D63   D(29,5,9,13)          155.5582         estimate D2E/DX2                !
 ! D64   D(29,5,9,35)           -1.2717         estimate D2E/DX2                !
 ! D65   D(1,5,29,27)           -0.204          estimate D2E/DX2                !
 ! D66   D(1,5,29,31)          162.2235         estimate D2E/DX2                !
 ! D67   D(9,5,29,27)         -155.6232         estimate D2E/DX2                !
 ! D68   D(9,5,29,31)            6.8043         estimate D2E/DX2                !
 ! D69   D(2,6,10,49)           -0.3082         estimate D2E/DX2                !
 ! D70   D(2,6,10,53)          145.3937         estimate D2E/DX2                !
 ! D71   D(15,6,10,49)        -145.1156         estimate D2E/DX2                !
 ! D72   D(15,6,10,53)           0.5863         estimate D2E/DX2                !
 ! D73   D(2,6,15,13)           -9.3423         estimate D2E/DX2                !
 ! D74   D(2,6,15,17)         -153.6941         estimate D2E/DX2                !
 ! D75   D(10,6,15,13)         139.6508         estimate D2E/DX2                !
 ! D76   D(10,6,15,17)          -4.701          estimate D2E/DX2                !
 ! D77   D(3,7,12,14)           -9.129          estimate D2E/DX2                !
 ! D78   D(3,7,12,36)          144.6558         estimate D2E/DX2                !
 ! D79   D(30,7,12,14)        -153.3312         estimate D2E/DX2                !
 ! D80   D(30,7,12,36)           0.4537         estimate D2E/DX2                !
 ! D81   D(3,7,30,28)            0.6556         estimate D2E/DX2                !
 ! D82   D(3,7,30,32)         -150.788          estimate D2E/DX2                !
 ! D83   D(12,7,30,28)         148.9516         estimate D2E/DX2                !
 ! D84   D(12,7,30,32)          -2.492          estimate D2E/DX2                !
 ! D85   D(4,8,11,50)            1.5706         estimate D2E/DX2                !
 ! D86   D(4,8,11,54)         -146.0506         estimate D2E/DX2                !
 ! D87   D(16,8,11,50)         148.5941         estimate D2E/DX2                !
 ! D88   D(16,8,11,54)           0.973          estimate D2E/DX2                !
 ! D89   D(4,8,16,14)            4.5026         estimate D2E/DX2                !
 ! D90   D(4,8,16,18)          152.9492         estimate D2E/DX2                !
 ! D91   D(11,8,16,14)        -146.0704         estimate D2E/DX2                !
 ! D92   D(11,8,16,18)           2.3762         estimate D2E/DX2                !
 ! D93   D(5,9,13,15)           -0.9758         estimate D2E/DX2                !
 ! D94   D(5,9,13,43)         -147.27           estimate D2E/DX2                !
 ! D95   D(35,9,13,15)         156.7108         estimate D2E/DX2                !
 ! D96   D(35,9,13,43)          10.4167         estimate D2E/DX2                !
 ! D97   D(5,9,35,33)           -7.1064         estimate D2E/DX2                !
 ! D98   D(5,9,35,37)          150.1321         estimate D2E/DX2                !
 ! D99   D(13,9,35,33)        -164.3448         estimate D2E/DX2                !
 ! D100  D(13,9,35,37)          -7.1063         estimate D2E/DX2                !
 ! D101  D(6,10,49,47)          26.5668         estimate D2E/DX2                !
 ! D102  D(6,10,49,51)         142.1012         estimate D2E/DX2                !
 ! D103  D(6,10,49,86)         -95.6712         estimate D2E/DX2                !
 ! D104  D(53,10,49,47)       -121.9985         estimate D2E/DX2                !
 ! D105  D(53,10,49,51)         -6.4641         estimate D2E/DX2                !
 ! D106  D(53,10,49,86)        115.7635         estimate D2E/DX2                !
 ! D107  D(6,10,53,19)           3.2757         estimate D2E/DX2                !
 ! D108  D(6,10,53,55)        -141.5444         estimate D2E/DX2                !
 ! D109  D(49,10,53,19)        153.246          estimate D2E/DX2                !
 ! D110  D(49,10,53,55)          8.4259         estimate D2E/DX2                !
 ! D111  D(8,11,50,48)         -29.9762         estimate D2E/DX2                !
 ! D112  D(8,11,50,52)        -145.3048         estimate D2E/DX2                !
 ! D113  D(8,11,50,87)          92.4212         estimate D2E/DX2                !
 ! D114  D(54,11,50,48)        120.1068         estimate D2E/DX2                !
 ! D115  D(54,11,50,52)          4.7782         estimate D2E/DX2                !
 ! D116  D(54,11,50,87)       -117.4957         estimate D2E/DX2                !
 ! D117  D(8,11,54,20)          -2.7202         estimate D2E/DX2                !
 ! D118  D(8,11,54,56)         146.5564         estimate D2E/DX2                !
 ! D119  D(50,11,54,20)       -153.9992         estimate D2E/DX2                !
 ! D120  D(50,11,54,56)         -4.7226         estimate D2E/DX2                !
 ! D121  D(7,12,14,16)           5.3167         estimate D2E/DX2                !
 ! D122  D(7,12,14,46)         152.362          estimate D2E/DX2                !
 ! D123  D(36,12,14,16)       -148.749          estimate D2E/DX2                !
 ! D124  D(36,12,14,46)         -1.7037         estimate D2E/DX2                !
 ! D125  D(7,12,36,34)           4.1493         estimate D2E/DX2                !
 ! D126  D(7,12,36,38)        -150.3263         estimate D2E/DX2                !
 ! D127  D(14,12,36,34)        157.2223         estimate D2E/DX2                !
 ! D128  D(14,12,36,38)          2.7466         estimate D2E/DX2                !
 ! D129  D(9,13,15,6)         -145.8245         estimate D2E/DX2                !
 ! D130  D(9,13,15,17)          -0.3136         estimate D2E/DX2                !
 ! D131  D(43,13,15,6)           4.3387         estimate D2E/DX2                !
 ! D132  D(43,13,15,17)        149.8495         estimate D2E/DX2                !
 ! D133  D(9,13,43,2)          152.5562         estimate D2E/DX2                !
 ! D134  D(9,13,43,39)          -5.1591         estimate D2E/DX2                !
 ! D135  D(15,13,43,2)           2.261          estimate D2E/DX2                !
 ! D136  D(15,13,43,39)       -155.4543         estimate D2E/DX2                !
 ! D137  D(12,14,16,8)         152.913          estimate D2E/DX2                !
 ! D138  D(12,14,16,18)          4.2195         estimate D2E/DX2                !
 ! D139  D(46,14,16,8)           2.3976         estimate D2E/DX2                !
 ! D140  D(46,14,16,18)       -146.2959         estimate D2E/DX2                !
 ! D141  D(12,14,46,4)        -159.0692         estimate D2E/DX2                !
 ! D142  D(12,14,46,42)         -1.6033         estimate D2E/DX2                !
 ! D143  D(16,14,46,4)          -8.2728         estimate D2E/DX2                !
 ! D144  D(16,14,46,42)        149.1932         estimate D2E/DX2                !
 ! D145  D(6,15,17,1)          143.4774         estimate D2E/DX2                !
 ! D146  D(6,15,17,19)           4.8499         estimate D2E/DX2                !
 ! D147  D(13,15,17,1)           2.2824         estimate D2E/DX2                !
 ! D148  D(13,15,17,19)       -136.3451         estimate D2E/DX2                !
 ! D149  D(8,16,18,3)         -154.2594         estimate D2E/DX2                !
 ! D150  D(8,16,18,20)          -3.922          estimate D2E/DX2                !
 ! D151  D(14,16,18,3)          -9.7315         estimate D2E/DX2                !
 ! D152  D(14,16,18,20)        140.6059         estimate D2E/DX2                !
 ! D153  D(1,17,19,21)          -0.7531         estimate D2E/DX2                !
 ! D154  D(1,17,19,53)        -143.8465         estimate D2E/DX2                !
 ! D155  D(15,17,19,21)        142.107          estimate D2E/DX2                !
 ! D156  D(15,17,19,53)         -0.9863         estimate D2E/DX2                !
 ! D157  D(3,18,20,22)           2.1434         estimate D2E/DX2                !
 ! D158  D(3,18,20,54)         151.7905         estimate D2E/DX2                !
 ! D159  D(16,18,20,22)       -147.504          estimate D2E/DX2                !
 ! D160  D(16,18,20,54)          2.1432         estimate D2E/DX2                !
 ! D161  D(17,19,21,23)          5.7676         estimate D2E/DX2                !
 ! D162  D(17,19,21,57)       -137.9966         estimate D2E/DX2                !
 ! D163  D(53,19,21,23)        148.1512         estimate D2E/DX2                !
 ! D164  D(53,19,21,57)          4.3871         estimate D2E/DX2                !
 ! D165  D(17,19,53,10)         -3.0575         estimate D2E/DX2                !
 ! D166  D(17,19,53,55)        138.6645         estimate D2E/DX2                !
 ! D167  D(21,19,53,10)       -141.7836         estimate D2E/DX2                !
 ! D168  D(21,19,53,55)         -0.0615         estimate D2E/DX2                !
 ! D169  D(18,20,22,24)         -3.922          estimate D2E/DX2                !
 ! D170  D(18,20,22,58)        140.6057         estimate D2E/DX2                !
 ! D171  D(54,20,22,24)       -154.2592         estimate D2E/DX2                !
 ! D172  D(54,20,22,58)         -9.7315         estimate D2E/DX2                !
 ! D173  D(18,20,54,11)          1.0994         estimate D2E/DX2                !
 ! D174  D(18,20,54,56)       -144.2054         estimate D2E/DX2                !
 ! D175  D(22,20,54,11)        151.2361         estimate D2E/DX2                !
 ! D176  D(22,20,54,56)          5.9313         estimate D2E/DX2                !
 ! D177  D(19,21,23,1)          -8.5595         estimate D2E/DX2                !
 ! D178  D(19,21,23,25)       -158.6299         estimate D2E/DX2                !
 ! D179  D(57,21,23,1)         135.8715         estimate D2E/DX2                !
 ! D180  D(57,21,23,25)        -14.199          estimate D2E/DX2                !
 ! D181  D(19,21,57,59)        151.311          estimate D2E/DX2                !
 ! D182  D(19,21,57,83)         -4.8442         estimate D2E/DX2                !
 ! D183  D(23,21,57,59)         12.2725         estimate D2E/DX2                !
 ! D184  D(23,21,57,83)       -143.8827         estimate D2E/DX2                !
 ! D185  D(20,22,24,26)          2.376          estimate D2E/DX2                !
 ! D186  D(20,22,24,62)        152.949          estimate D2E/DX2                !
 ! D187  D(58,22,24,26)       -146.0704         estimate D2E/DX2                !
 ! D188  D(58,22,24,62)          4.5026         estimate D2E/DX2                !
 ! D189  D(20,22,58,60)       -146.2958         estimate D2E/DX2                !
 ! D190  D(20,22,58,84)          4.2195         estimate D2E/DX2                !
 ! D191  D(24,22,58,60)          2.3975         estimate D2E/DX2                !
 ! D192  D(24,22,58,84)        152.9129         estimate D2E/DX2                !
 ! D193  D(1,23,25,27)           3.9973         estimate D2E/DX2                !
 ! D194  D(1,23,25,61)        -147.161          estimate D2E/DX2                !
 ! D195  D(21,23,25,27)        149.8524         estimate D2E/DX2                !
 ! D196  D(21,23,25,61)         -1.3059         estimate D2E/DX2                !
 ! D197  D(22,24,26,3)           0.973          estimate D2E/DX2                !
 ! D198  D(22,24,26,28)        148.5941         estimate D2E/DX2                !
 ! D199  D(62,24,26,3)        -146.0505         estimate D2E/DX2                !
 ! D200  D(62,24,26,28)          1.5706         estimate D2E/DX2                !
 ! D201  D(22,24,62,60)         -8.8937         estimate D2E/DX2                !
 ! D202  D(22,24,62,64)       -124.874          estimate D2E/DX2                !
 ! D203  D(22,24,62,94)        111.6353         estimate D2E/DX2                !
 ! D204  D(26,24,62,60)        140.9543         estimate D2E/DX2                !
 ! D205  D(26,24,62,64)         24.974          estimate D2E/DX2                !
 ! D206  D(26,24,62,94)        -98.5167         estimate D2E/DX2                !
 ! D207  D(23,25,27,29)        -17.8631         estimate D2E/DX2                !
 ! D208  D(23,25,27,65)       -133.2918         estimate D2E/DX2                !
 ! D209  D(23,25,27,93)        107.9619         estimate D2E/DX2                !
 ! D210  D(61,25,27,29)        135.4851         estimate D2E/DX2                !
 ! D211  D(61,25,27,65)         20.0565         estimate D2E/DX2                !
 ! D212  D(61,25,27,93)        -98.6898         estimate D2E/DX2                !
 ! D213  D(23,25,61,59)         16.2522         estimate D2E/DX2                !
 ! D214  D(23,25,61,63)        132.7224         estimate D2E/DX2                !
 ! D215  D(23,25,61,95)       -109.3834         estimate D2E/DX2                !
 ! D216  D(27,25,61,59)       -137.0513         estimate D2E/DX2                !
 ! D217  D(27,25,61,63)        -20.5811         estimate D2E/DX2                !
 ! D218  D(27,25,61,95)         97.3131         estimate D2E/DX2                !
 ! D219  D(3,26,28,30)           4.7783         estimate D2E/DX2                !
 ! D220  D(3,26,28,66)         120.1069         estimate D2E/DX2                !
 ! D221  D(3,26,28,89)        -117.4956         estimate D2E/DX2                !
 ! D222  D(24,26,28,30)       -145.3048         estimate D2E/DX2                !
 ! D223  D(24,26,28,66)        -29.9762         estimate D2E/DX2                !
 ! D224  D(24,26,28,89)         92.4213         estimate D2E/DX2                !
 ! D225  D(25,27,29,5)          16.1019         estimate D2E/DX2                !
 ! D226  D(25,27,29,31)       -146.6888         estimate D2E/DX2                !
 ! D227  D(65,27,29,5)         126.5683         estimate D2E/DX2                !
 ! D228  D(65,27,29,31)        -36.2224         estimate D2E/DX2                !
 ! D229  D(93,27,29,5)        -110.6482         estimate D2E/DX2                !
 ! D230  D(93,27,29,31)         86.5611         estimate D2E/DX2                !
 ! D231  D(25,27,65,63)        -11.1323         estimate D2E/DX2                !
 ! D232  D(25,27,65,67)        151.0492         estimate D2E/DX2                !
 ! D233  D(29,27,65,63)       -130.2973         estimate D2E/DX2                !
 ! D234  D(29,27,65,67)         31.8842         estimate D2E/DX2                !
 ! D235  D(93,27,65,63)        107.8162         estimate D2E/DX2                !
 ! D236  D(93,27,65,67)        -90.0023         estimate D2E/DX2                !
 ! D237  D(26,28,30,7)          -3.2571         estimate D2E/DX2                !
 ! D238  D(26,28,30,32)        147.1044         estimate D2E/DX2                !
 ! D239  D(66,28,30,7)        -119.1931         estimate D2E/DX2                !
 ! D240  D(66,28,30,32)         31.1683         estimate D2E/DX2                !
 ! D241  D(89,28,30,7)         118.6124         estimate D2E/DX2                !
 ! D242  D(89,28,30,32)        -91.0262         estimate D2E/DX2                !
 ! D243  D(26,28,66,64)         30.8143         estimate D2E/DX2                !
 ! D244  D(26,28,66,68)       -140.0818         estimate D2E/DX2                !
 ! D245  D(30,28,66,64)        140.8736         estimate D2E/DX2                !
 ! D246  D(30,28,66,68)        -30.0225         estimate D2E/DX2                !
 ! D247  D(89,28,66,64)        -94.0667         estimate D2E/DX2                !
 ! D248  D(89,28,66,68)         95.0373         estimate D2E/DX2                !
 ! D249  D(5,29,31,33)          -3.7313         estimate D2E/DX2                !
 ! D250  D(5,29,31,69)        -158.0405         estimate D2E/DX2                !
 ! D251  D(27,29,31,33)        159.5741         estimate D2E/DX2                !
 ! D252  D(27,29,31,69)          5.2648         estimate D2E/DX2                !
 ! D253  D(7,30,32,34)          -0.2779         estimate D2E/DX2                !
 ! D254  D(7,30,32,70)         148.2863         estimate D2E/DX2                !
 ! D255  D(28,30,32,34)       -148.3551         estimate D2E/DX2                !
 ! D256  D(28,30,32,70)          0.209          estimate D2E/DX2                !
 ! D257  D(29,31,33,35)         -5.159          estimate D2E/DX2                !
 ! D258  D(29,31,33,73)       -155.4543         estimate D2E/DX2                !
 ! D259  D(69,31,33,35)        152.5562         estimate D2E/DX2                !
 ! D260  D(69,31,33,73)          2.2609         estimate D2E/DX2                !
 ! D261  D(29,31,69,67)         32.8257         estimate D2E/DX2                !
 ! D262  D(29,31,69,71)        149.402          estimate D2E/DX2                !
 ! D263  D(29,31,69,92)        -89.1452         estimate D2E/DX2                !
 ! D264  D(33,31,69,67)       -124.0053         estimate D2E/DX2                !
 ! D265  D(33,31,69,71)         -7.4289         estimate D2E/DX2                !
 ! D266  D(33,31,69,92)        114.0238         estimate D2E/DX2                !
 ! D267  D(30,32,34,36)          5.2494         estimate D2E/DX2                !
 ! D268  D(30,32,34,74)        153.9413         estimate D2E/DX2                !
 ! D269  D(70,32,34,36)       -146.3124         estimate D2E/DX2                !
 ! D270  D(70,32,34,74)          2.3796         estimate D2E/DX2                !
 ! D271  D(30,32,70,68)        -31.8917         estimate D2E/DX2                !
 ! D272  D(30,32,70,72)       -148.5727         estimate D2E/DX2                !
 ! D273  D(30,32,70,90)         89.4913         estimate D2E/DX2                !
 ! D274  D(34,32,70,68)        119.1632         estimate D2E/DX2                !
 ! D275  D(34,32,70,72)          2.4823         estimate D2E/DX2                !
 ! D276  D(34,32,70,90)       -119.4537         estimate D2E/DX2                !
 ! D277  D(31,33,35,9)          10.4167         estimate D2E/DX2                !
 ! D278  D(31,33,35,37)       -147.2701         estimate D2E/DX2                !
 ! D279  D(73,33,35,9)         156.7109         estimate D2E/DX2                !
 ! D280  D(73,33,35,37)         -0.9758         estimate D2E/DX2                !
 ! D281  D(31,33,73,71)          4.3387         estimate D2E/DX2                !
 ! D282  D(31,33,73,75)        149.8495         estimate D2E/DX2                !
 ! D283  D(35,33,73,71)       -145.8245         estimate D2E/DX2                !
 ! D284  D(35,33,73,75)         -0.3137         estimate D2E/DX2                !
 ! D285  D(32,34,36,12)         -7.0489         estimate D2E/DX2                !
 ! D286  D(32,34,36,38)        147.486          estimate D2E/DX2                !
 ! D287  D(74,34,36,12)       -151.4522         estimate D2E/DX2                !
 ! D288  D(74,34,36,38)          3.0827         estimate D2E/DX2                !
[...]
 Alpha virt. eigenvalues --    1.40451   1.41580   1.41842   1.42379   1.42728
 Alpha virt. eigenvalues --    1.43257   1.43645   1.44316   1.44615   1.45303
 Alpha virt. eigenvalues --    1.45375   1.45710   1.46191   1.46720   1.47326
 Alpha virt. eigenvalues --    1.47501   1.48511   1.48836   1.49329   1.50658
 Alpha virt. eigenvalues --    1.50714   1.51809   1.51821   1.52450   1.52765
 Alpha virt. eigenvalues --    1.53593   1.53805   1.54273   1.55165   1.55340
 Alpha virt. eigenvalues --    1.55555   1.56873   1.57218   1.57282   1.57873
 Alpha virt. eigenvalues --    1.58482   1.59188   1.59198   1.59772   1.60421
 Alpha virt. eigenvalues --    1.61056   1.61349   1.61528   1.62142   1.62474
 Alpha virt. eigenvalues --    1.62519   1.62670   1.63141   1.63805   1.63900
 Alpha virt. eigenvalues --    1.64262   1.64278   1.64685   1.64777   1.65066
 Alpha virt. eigenvalues --    1.65128   1.65549   1.65580   1.65769   1.65864
 Alpha virt. eigenvalues --    1.66024   1.66362   1.66587   1.67016   1.67212
 Alpha virt. eigenvalues --    1.67343   1.67750   1.67948   1.68112   1.68288
 Alpha virt. eigenvalues --    1.68475   1.68767   1.68976   1.69434   1.69849
 Alpha virt. eigenvalues --    1.70072   1.70328   1.70580   1.70733   1.70752
 Alpha virt. eigenvalues --    1.71237   1.71478   1.71681   1.72002   1.72107
 Alpha virt. eigenvalues --    1.72818   1.72944   1.73268   1.73317   1.73348
 Alpha virt. eigenvalues --    1.73732   1.73944   1.74106   1.74226   1.74524
 Alpha virt. eigenvalues --    1.74899   1.74981   1.75118   1.75449   1.75676
 Alpha virt. eigenvalues --    1.76332   1.76503   1.76561   1.76644   1.76900
 Alpha virt. eigenvalues --    1.77161   1.77292   1.77819   1.77831   1.78059
 Alpha virt. eigenvalues --    1.78149   1.78608   1.78620   1.78948   1.79037
 Alpha virt. eigenvalues --    1.79225   1.79326   1.79934   1.80071   1.80500
 Alpha virt. eigenvalues --    1.80693   1.80871   1.81446   1.81780   1.81946
 Alpha virt. eigenvalues --    1.82195   1.82382   1.82529   1.82750   1.83017
 Alpha virt. eigenvalues --    1.83063   1.84194   1.84506   1.84658   1.85520
 Alpha virt. eigenvalues --    1.86122   1.86382   1.86607   1.86667   1.87190
 Alpha virt. eigenvalues --    1.87397   1.87435   1.88049   1.88087   1.88489
 Alpha virt. eigenvalues --    1.88997   1.89557   1.89782   1.89908   1.90084
 Alpha virt. eigenvalues --    1.90200   1.90394   1.91124   1.91799   1.91967
 Alpha virt. eigenvalues --    1.92187   1.92581   1.92718   1.92816   1.93593
 Alpha virt. eigenvalues --    1.93838   1.94301   1.94417   1.94541   1.95100
 Alpha virt. eigenvalues --    1.95187   1.95287   1.95607   1.96012   1.96293
 Alpha virt. eigenvalues --    1.96508   1.97729   1.97748   1.98189   1.98444
 Alpha virt. eigenvalues --    1.98664   1.98979   1.99515   1.99797   1.99953
 Alpha virt. eigenvalues --    2.00319   2.00572   2.01020   2.01469   2.01537
 Alpha virt. eigenvalues --    2.01795   2.01921   2.02416   2.02444   2.03094
 Alpha virt. eigenvalues --    2.03245   2.03604   2.03859   2.03933   2.04685
 Alpha virt. eigenvalues --    2.04931   2.05340   2.05684   2.06421   2.06566
 Alpha virt. eigenvalues --    2.07188   2.07556   2.07736   2.07967   2.08334
 Alpha virt. eigenvalues --    2.08653   2.09113   2.09500   2.10017   2.10313
 Alpha virt. eigenvalues --    2.10774   2.11203   2.11496   2.11980   2.12148
 Alpha virt. eigenvalues --    2.12351   2.12884   2.13570   2.13652   2.14360
 Alpha virt. eigenvalues --    2.14667   2.15450   2.15714   2.15777   2.16513
 Alpha virt. eigenvalues --    2.16769   2.16803   2.17272   2.17492   2.18239
 Alpha virt. eigenvalues --    2.18425   2.18839   2.19074   2.19826   2.20031
 Alpha virt. eigenvalues --    2.20511   2.20697   2.21038   2.21196   2.21822
 Alpha virt. eigenvalues --    2.21954   2.22882   2.23069   2.23437   2.23610
 Alpha virt. eigenvalues --    2.23905   2.24930   2.25038   2.25238   2.25789
 Alpha virt. eigenvalues --    2.25879   2.26497   2.27100   2.27467   2.28148
 Alpha virt. eigenvalues --    2.28296   2.28862   2.29468   2.29565   2.29927
 Alpha virt. eigenvalues --    2.30182   2.30194   2.31034   2.31807   2.31985
 Alpha virt. eigenvalues --    2.32647   2.33089   2.34209   2.34512   2.34862
 Alpha virt. eigenvalues --    2.35018   2.35278   2.35302   2.36560   2.36593
 Alpha virt. eigenvalues --    2.36889   2.37325   2.39272   2.39557   2.39885
 Alpha virt. eigenvalues --    2.40974   2.41000   2.41109   2.41672   2.42176
 Alpha virt. eigenvalues --    2.43051   2.43731   2.43833   2.44377   2.44502
 Alpha virt. eigenvalues --    2.44869   2.45073   2.45860   2.46222   2.46828
 Alpha virt. eigenvalues --    2.47096   2.48330   2.48888   2.49197   2.49398
 Alpha virt. eigenvalues --    2.50347   2.50603   2.51530   2.51663   2.51951
 Alpha virt. eigenvalues --    2.51962   2.52428   2.52468   2.53343   2.53712
 Alpha virt. eigenvalues --    2.53744   2.54430   2.55262   2.55575   2.55934
 Alpha virt. eigenvalues --    2.56043   2.56551   2.57060   2.57259   2.57577
 Alpha virt. eigenvalues --    2.58322   2.58359   2.58492   2.58797   2.59386
 Alpha virt. eigenvalues --    2.59623   2.60022   2.60150   2.60929   2.60970
 Alpha virt. eigenvalues --    2.61190   2.61907   2.62045   2.62117   2.62254
 Alpha virt. eigenvalues --    2.62478   2.63061   2.63457   2.63638   2.64368
 Alpha virt. eigenvalues --    2.64386   2.64734   2.64881   2.64886   2.65258
 Alpha virt. eigenvalues --    2.65524   2.65884   2.66151   2.66865   2.67294
 Alpha virt. eigenvalues --    2.67678   2.67933   2.68590   2.69015   2.69306
 Alpha virt. eigenvalues --    2.69613   2.69874   2.70788   2.70829   2.71486
 Alpha virt. eigenvalues --    2.71570   2.71926   2.71939   2.72191   2.72336
 Alpha virt. eigenvalues --    2.73046   2.73238   2.74205   2.74340   2.74892
 Alpha virt. eigenvalues --    2.75170   2.75429   2.76014   2.76709   2.76797
 Alpha virt. eigenvalues --    2.76901   2.77428   2.78254   2.78926   2.79026
 Alpha virt. eigenvalues --    2.79308   2.79833   2.80821   2.81057   2.81626
 Alpha virt. eigenvalues --    2.81724   2.81992   2.82411   2.83106   2.83373
 Alpha virt. eigenvalues --    2.83634   2.83943   2.84949   2.85425   2.86326
 Alpha virt. eigenvalues --    2.86851   2.87202   2.87603   2.87884   2.88369
 Alpha virt. eigenvalues --    2.88944   2.89820   2.90124   2.90208   2.90702
 Alpha virt. eigenvalues --    2.90909   2.92012   2.92118   2.92366   2.92551
 Alpha virt. eigenvalues --    2.93944   2.94620   2.94888   2.95851   2.97150
 Alpha virt. eigenvalues --    2.97414   2.99131   2.99407   3.00518   3.00668
 Alpha virt. eigenvalues --    3.00786   3.02830   3.03416   3.04491   3.06418
 Alpha virt. eigenvalues --    3.07336   3.09509   3.10472   3.10901   3.12068
 Alpha virt. eigenvalues --    3.13470   3.14328   3.17475   3.18100   3.19147
 Alpha virt. eigenvalues --    3.20028   3.20154   3.21966   3.22272   3.24044
 Alpha virt. eigenvalues --    3.25200   3.26147   3.28562   3.29011   3.29618
 Alpha virt. eigenvalues --    3.34589   3.35388   3.40498   3.41516   3.42201
 Alpha virt. eigenvalues --    3.42425   3.44403   3.44764   3.49465   3.49494
 Alpha virt. eigenvalues --    3.53767   3.55050   3.63175   4.00868   4.01473
 Alpha virt. eigenvalues --    4.01476   4.02537   4.02945   4.03348   4.04019
 Alpha virt. eigenvalues --    4.04682   4.05095   4.06836   4.06839   4.07768
 Alpha virt. eigenvalues --    4.08417   4.09333   4.09582   4.09932   4.10238
 Alpha virt. eigenvalues --    4.10964   4.11723   4.13180   4.13975   4.14226
 Alpha virt. eigenvalues --    4.15527   4.15972   4.16553   4.18610   4.18689
 Alpha virt. eigenvalues --    4.19327   4.19753   4.21267   4.21388   4.21775
 Alpha virt. eigenvalues --    4.22075   4.23622   4.24759   4.25707   4.25862
 Alpha virt. eigenvalues --    4.26174   4.26731   4.27173   4.27423   4.28557
 Alpha virt. eigenvalues --    4.28571   4.29004   4.29076   4.30222   4.31571
 Alpha virt. eigenvalues --    4.31685   4.33238   4.33918   4.34657   4.36239
 Alpha virt. eigenvalues --    4.37834   4.38735   4.39506   4.39876   4.40616
 Alpha virt. eigenvalues --    4.41206   4.42153   4.42884   4.43937   4.44610
 Alpha virt. eigenvalues --    4.46529   4.47807   4.48920   4.51274   4.51613
 Alpha virt. eigenvalues --    4.53499   4.54386   4.56667   4.57308   4.57687
 Alpha virt. eigenvalues --    4.59616   4.59658   4.63380   4.63936   4.64083
 Alpha virt. eigenvalues --    4.66621   4.67133   4.70587   4.78010   4.79660
 Alpha virt. eigenvalues --    4.80157   4.80884   4.83284   4.84660   4.85664
 Alpha virt. eigenvalues --    4.91550   4.93933   4.99021   5.02894   5.05969
 Alpha virt. eigenvalues --    5.06608   5.13626   5.14228   5.24432
          Condensed to atoms (all electrons):
 Mulliken charges:
               1
     1  C   -0.040772
     2  C   -0.382556
     3  C    0.004983
     4  C   -0.385665
     5  C    0.072198
     6  C    0.089811
     7  C    0.010210
     8  C    0.090242
     9  C    0.027733
    10  C    0.091377
    11  C    0.089612
    12  C    0.039511
    13  C    0.010788
    14  C    0.006730
    15  C    0.019576
    16  C    0.009878
    17  C   -0.007115
    18  C    0.044983
    19  C   -0.007149
    20  C    0.044982
    21  C   -0.040776
    22  C    0.009877
    23  C    0.033966
    24  C    0.090242
    25  C    0.145008
    26  C    0.089612
    27  C   -0.356748
    28  C   -0.380234
    29  C    0.117951
    30  C    0.086759
    31  C    0.080125
    32  C    0.091142
    33  C    0.010788
    34  C    0.007746
    35  C    0.027733
    36  C    0.036515
    37  C    0.072197
    38  C    0.069744
    39  C    0.117949
    40  C    0.119056
    41  C    0.115117
    42  C    0.118501
    43  C    0.080125
    44  C    0.143824
    45  C    0.144449
    46  C    0.078205
    47  C    0.121495
    48  C    0.125989
    49  C   -0.376134
    50  C   -0.380234
    51  C    0.091142
    52  C    0.086758
    53  C    0.019084
    54  C    0.004982
    55  C    0.007746
    56  C    0.010210
    57  C    0.069745
    58  C    0.006730
    59  C    0.118501
    60  C    0.078204
    61  C   -0.356715
    62  C   -0.385665
    63  C    0.115117
    64  C    0.144449
    65  C    0.119056
    66  C    0.125989
    67  C    0.143824
    68  C    0.121495
    69  C   -0.382556
    70  C   -0.376134
    71  C    0.089811
    72  C    0.091377
    73  C    0.019575
    74  C    0.019084
    75  C   -0.007116
    76  C   -0.007149
    77  C   -0.040773
    78  C   -0.040776
    79  C   -0.356748
    80  C   -0.356715
    81  C    0.033966
    82  C    0.145007
    83  C    0.036515
    84  C    0.039511
    85  Cl   0.020018
    86  Cl   0.013433
    87  Cl   0.018357
    88  Cl   0.001348
    89  Cl   0.018357
    90  Cl   0.013433
    91  Cl   0.022791
    92  Cl   0.020017
    93  Cl   0.001347
    94  Cl   0.022791
    95  Cl  -0.004389
    96  Cl  -0.004389
 Sum of Mulliken charges =  -0.00000
 Mulliken charges with hydrogens summed into heavy atoms:
               1
     1  C   -0.040772
     2  C   -0.382556
     3  C    0.004983
     4  C   -0.385665
     5  C    0.072198
     6  C    0.089811
     7  C    0.010210
     8  C    0.090242
     9  C    0.027733
    10  C    0.091377
    11  C    0.089612
    12  C    0.039511
    13  C    0.010788
    14  C    0.006730
    15  C    0.019576
    16  C    0.009878
    17  C   -0.007115
    18  C    0.044983
    19  C   -0.007149
    20  C    0.044982
    21  C   -0.040776
    22  C    0.009877
    23  C    0.033966
    24  C    0.090242
    25  C    0.145008
    26  C    0.089612
    27  C   -0.356748
    28  C   -0.380234
    29  C    0.117951
    30  C    0.086759
    31  C    0.080125
    32  C    0.091142
    33  C    0.010788
    34  C    0.007746
    35  C    0.027733
    36  C    0.036515
    37  C    0.072197
    38  C    0.069744
    39  C    0.117949
    40  C    0.119056
    41  C    0.115117
    42  C    0.118501
    43  C    0.080125
    44  C    0.143824
    45  C    0.144449
    46  C    0.078205
    47  C    0.121495
    48  C    0.125989
    49  C   -0.376134
    50  C   -0.380234
    51  C    0.091142
    52  C    0.086758
    53  C    0.019084
    54  C    0.004982
    55  C    0.007746
    56  C    0.010210
    57  C    0.069745
    58  C    0.006730
    59  C    0.118501
    60  C    0.078204
    61  C   -0.356715
    62  C   -0.385665
    63  C    0.115117
    64  C    0.144449
    65  C    0.119056
    66  C    0.125989
    67  C    0.143824
    68  C    0.121495
    69  C   -0.382556
    70  C   -0.376134
    71  C    0.089811
    72  C    0.091377
    73  C    0.019575
    74  C    0.019084
    75  C   -0.007116
    76  C   -0.007149
    77  C   -0.040773
    78  C   -0.040776
    79  C   -0.356748
    80  C   -0.356715
    81  C    0.033966
    82  C    0.145007
    83  C    0.036515
    84  C    0.039511
    85  Cl   0.020018
    86  Cl   0.013433
    87  Cl   0.018357
    88  Cl   0.001348
    89  Cl   0.018357
    90  Cl   0.013433
    91  Cl   0.022791
    92  Cl   0.020017
    93  Cl   0.001347
    94  Cl   0.022791
    95  Cl  -0.004389
    96  Cl  -0.004389
 Electronic spatial extent (au):  <R**2>=          62337.9230
 Charge=              0.0000 electrons
 Dipole moment (field-independent basis, Debye):
    X=             -0.0000    Y=             -0.0001    Z=              0.8153  Tot=              0.8153
 Quadrupole moment (field-independent basis, Debye-Ang):
   XX=           -683.5181   YY=           -616.0182   ZZ=           -613.0331
   XY=             -9.1692   XZ=              0.0001   YZ=              0.0002
 Traceless Quadrupole moment (field-independent basis, Debye-Ang):
   XX=            -45.9950   YY=             21.5049   ZZ=             24.4900
   XY=             -9.1692   XZ=              0.0001   YZ=              0.0002
 Octapole moment (field-independent basis, Debye-Ang**2):
  XXX=             -0.0002  YYY=             -0.0011  ZZZ=             17.4104  XYY=             -0.0004
  XXY=             -0.0003  XXZ=             15.8991  XZZ=             -0.0003  YZZ=             -0.0004
  YYZ=             -0.3932  XYZ=             12.3459
 Hexadecapole moment (field-independent basis, Debye-Ang**3):
 XXXX=         -40412.1617 YYYY=         -24479.7423 ZZZZ=         -23307.7964 XXXY=            -16.6346
 XXXZ=              0.0005 YYYX=            -75.1094 YYYZ=              0.0024 ZZZX=              0.0004
 ZZZY=              0.0022 XXYY=         -11149.7296 XXZZ=         -10865.1954 YYZZ=          -7950.6734
 XXYZ=              0.0007 YYXZ=              0.0004 ZZXY=            -17.2257
 N-N= 2.408308007856D+04 E-N=-6.868523823556D+04  KE= 8.676598077734D+03
 No NMR shielding tensors so no spin-rotation constants.
 Leave Link  601 at Wed Jun 29 04:56:46 2022, MaxMem=  1342177280 cpu:              26.0 elap:               1.3
 (Enter /home/mkliu/g16/l9999.exe)
 1\1\GINC-NODE02\FOpt\RB3LYP\6-31G(d,p)\C84Cl12\MKLIU\29-Jun-2022\0\\#P
  opt b3lyp/6-31G(d, p) empiricaldispersion=GD3\\force\\0,1\C,8.4823063
 222,18.8791236207,10.7482432405\C,12.6031839672,19.9793932404,8.884719
 189\C,8.2553652883,26.854351032,10.5277296895\C,12.5072614242,25.75613
 18341,8.912951486\C,8.0110117248,19.1158965076,9.4393694154\C,12.07903
 30772,19.487446669,10.2111246088\C,7.9442416738,26.8328590248,9.137720
 1447\C,11.8920774998,26.1833212533,10.224978354\C,8.9899367528,19.2150
 297221,8.3637110141\C,12.3457063058,20.1215792886,11.3841782493\C,12.1
 491424711,25.5350334177,11.389486938\C,8.9601395368,26.6505001863,8.15
 36220805\C,10.3647887266,19.064239924,8.6822334791\C,10.2974375537,26.
 6906434927,8.6156549886\C,10.8070632753,18.8409289394,10.0130262237\C,
 10.6125878699,26.7848555843,9.9995457395\C,9.8626463126,18.7701217495,
 11.0385576815\C,9.5928906067,26.76464841,10.9918767945\C,10.1409716076
 ,19.4541960008,12.2890832936\C,9.852368779,26.041524792,12.21645423\C,
 8.933489747,20.0126701437,12.7840864266\C,8.7534411732,25.413299645,12
 .8665336007\C,7.8580648133,19.5586597802,11.8932430573\C,7.4137890754,
 25.5531428086,12.3812161188\C,6.6887828589,20.2054188829,11.7900422461
 \C,7.1646782904,26.2624710672,11.2510672153\C,5.9007045763,20.17887443
 14,10.5108443186\C,6.0231539914,25.9283816559,10.3071516371\C,6.724650
 4421,19.7686968029,9.2963793872\C,6.6362876826,26.2833921752,8.9692043
 222\C,6.407219501,20.3484706957,8.1006303052\C,6.3339214845,25.6146249
 188,7.8309522846\C,7.3415112555,20.3970706092,7.0143097838\C,7.3172771
 394,25.4610442181,6.7965347501\C,8.6757881488,19.9349051201,7.15755968
 8\C,8.6635639419,25.9029548175,6.9571022783\C,9.7287251131,20.60200813
 03,6.4016093117\C,9.730058667,25.1656161146,6.2939334586\C,11.09415910
 36,20.5560104294,6.8861670618\C,12.7610711135,22.182288903,7.760867374
 4\C,12.7412370434,23.573733417,7.7641035866\C,11.0802051636,25.2015143
 111,6.8428134909\C,11.3852755915,19.774301068,7.9682480746\C,12.952014
 0601,21.4602955082,8.9374442966\C,12.9002597431,24.2876847585,8.949498
 4029\C,11.33876204,25.9737326773,7.9427841794\C,13.1593725169,22.16076
 80268,10.1437813486\C,13.1261784881,23.5816885877,10.1486413474\C,13.1
 879494778,21.3825225309,11.4679936616\C,13.0925077263,24.3484412825,11
 .4774149244\C,12.4560028857,22.1624761532,12.5465273326\C,12.417196906
 9,23.516280686,12.5467757862\C,11.3487010989,20.1356122169,12.42943906
 77\C,11.1223171448,25.4332322432,12.3886885923\C,11.3539060302,21.4048
 323604,13.0680186958\C,11.2684397439,24.1884989314,13.0659433399\C,8.8
 89554812,21.3045095075,13.3478518975\C,8.8899522853,24.1366250873,13.4
 787556883\C,7.6411679331,22.0495147591,13.2385405137\C,7.6610583571,23
 .4141154679,13.3413802545\C,6.3973021987,21.4213344377,12.6235943691\C
 ,6.5864967099,24.3526007847,12.776997294\C,5.805703344,22.3386861236,1
 1.5637510148\C,5.9206038544,23.7268387478,11.5616255149\C,5.5141433295
 ,21.6448913531,10.3932120194\C,5.6943795574,24.4304922711,10.361164178
 5\C,5.3163963755,22.3146743619,9.1872465557\C,5.383861678,23.723215781
 ,9.1680676873\C,5.3611910968,21.4623970864,7.9266313738\C,5.3495932422
 ,24.4577887449,7.8192722285\C,5.9217582801,22.2338114456,6.7575370996\
 C,5.914796365,23.5927179618,6.7063595903\C,7.0132307914,21.495184546,6
 .1759408008\C,7.0041212388,24.2871520242,6.0598922916\C,8.032559392,22
 .140869197,5.4740048537\C,8.0325210897,23.592384171,5.4255964618\C,9.3
 671230013,21.6805691334,5.5665741526\C,9.372823251,24.0531737009,5.504
 3336259\C,12.1108440074,21.6249213076,6.5042771038\C,12.1020256928,24.
 1257055368,6.4985888558\C,10.2341786008,22.86439785,5.4704573706\C,11.
 488710921,22.8718422076,5.9419075622\C,10.1459026016,22.0241141926,13.
 5047935452\C,10.1345407396,23.4653115067,13.5403116\Cl,14.0568427192,1
 8.987864743,8.3382220049\Cl,14.9354445496,21.0124258288,11.9250411235\
 Cl,14.7966070206,24.8623279551,11.9466413555\Cl,13.3676905206,20.92681
 23925,5.3236009585\Cl,4.5144594552,26.9140412773,10.682015971\Cl,3.624
 5462553,25.0001542183,7.4591950031\Cl,13.9557118509,26.8043960088,8.47
 17201097\Cl,3.690702576,20.7899622895,7.5364889074\Cl,4.4095986288,19.
 0792636219,10.679589426\Cl,5.3312178108,24.7867439975,14.0526720203\Cl
 ,5.1517986028,21.042382737,13.9585303884\Cl,13.3885961462,24.819808838
 ,5.3410513473\\Version=ES64L-G16RevA.03\State=1-A\HF=-8723.4280896\RMS
 D=6.279e-09\RMSF=2.475e-05\Dipole=0.036177,0.2777053,0.15636\Quadrupol
 e=-30.744852,17.8102879,12.9345641,-1.6956911,14.3448863,1.0988143\PG=
 C01 [X(C84Cl12)]\\@


 REVOLUTIONS HAVE NEVER LIGHTENED THE BURDEN OF TYRANNY:
 THEY HAVE MERELY SHIFTED IT TO OTHER SHOULDERS.
                                   -- G. B. SHAW (1903)
 Job cpu time:       1 days 10 hours 51 minutes 14.7 seconds.
 Elapsed time:       0 days  1 hours 27 minutes 15.5 seconds.
 File lengths (MBytes):  RWF=   1359 Int=      0 D2E=      0 Chk=    170 Scr=      1
 Normal termination of Gaussian 16 at Wed Jun 29 04:56:48 2022.
