 Entering Gaussian System, Link 0=g16
 Input=14_addons_C84_11_Cl22_rank_8.gjf
 Output=14_addons_C84_11_Cl22_rank_8.log
 Initial command:
 /home/mkliu/g16/l1.exe "/data/scratch/Gau-215725.inp" -scrdir="/data/scratch/"
 Entering Link 1 = /home/mkliu/g16/l1.exe PID=    215726.
  
 Copyright (c) 1988,1990,1992,1993,1995,1998,2003,2009,2016,
            Gaussian, Inc.  All Rights Reserved.
  
 This is part of the Gaussian(R) 16 program.  It is based on
 the Gaussian(R) 09 system (copyright 2009, Gaussian, Inc.),
 the Gaussian(R) 03 system (copyright 2003, Gaussian, Inc.),
 the Gaussian(R) 98 system (copyright 1998, Gaussian, Inc.),
 the Gaussian(R) 94 system (copyright 1995, Gaussian, Inc.),
 the Gaussian 92(TM) system (copyright 1992, Gaussian, Inc.),
 the Gaussian 90(TM) system (copyright 1990, Gaussian, Inc.),
 the Gaussian 88(TM) system (copyright 1988, Gaussian, Inc.),
 the Gaussian 86(TM) system (copyright 1986, Carnegie Mellon
 University), and the Gaussian 82(TM) system (copyright 1983,
 Carnegie Mellon University). Gaussian is a federally registered
 trademark of Gaussian, Inc.
  
 This software contains proprietary and confidential information,
 including trade secrets, belonging to Gaussian, Inc.
  
 This software is provided under written license and may be
 used, copied, transmitted, or stored only in accord with that
 written license.
  
 The following legend is applicable only to US Government
 contracts under FAR:
  
                    RESTRICTED RIGHTS LEGEND
  
 Use, reproduction and disclosure by the US Government is
 subject to restrictions as set forth in subparagraphs (a)
 and (c) of the Commercial Computer Software - Restricted
 Rights clause in FAR 52.227-19.
  
 Gaussian, Inc.
 340 Quinnipiac St., Bldg. 40, Wallingford CT 06492
  
  
 ---------------------------------------------------------------
 Warning -- This program may not be used in any manner that
 competes with the business of Gaussian, Inc. or will provide
 assistance to any competitor of Gaussian, Inc.  The licensee
 of this program is prohibited from giving any competitor of
 Gaussian, Inc. access to this program.  By using this program,
 the user acknowledges that Gaussian, Inc. is engaged in the
 business of creating and licensing software in the field of
 computational chemistry and represents and warrants to the
 licensee that it is not a competitor of Gaussian, Inc. and that
 it will not use this program in any manner prohibited above.
 ---------------------------------------------------------------
  

 Cite this work as:
 Gaussian 16, Revision A.03,
 M. J. Frisch, G. W. Trucks, H. B. Schlegel, G. E. Scuseria, 
 M. A. Robb, J. R. Cheeseman, G. Scalmani, V. Barone, 
 G. A. Petersson, H. Nakatsuji, X. Li, M. Caricato, A. V. Marenich, 
 J. Bloino, B. G. Janesko, R. Gomperts, B. Mennucci, H. P. Hratchian, 
 J. V. Ortiz, A. F. Izmaylov, J. L. Sonnenberg, D. Williams-Young, 
 F. Ding, F. Lipparini, F. Egidi, J. Goings, B. Peng, A. Petrone, 
 T. Henderson, D. Ranasinghe, V. G. Zakrzewski, J. Gao, N. Rega, 
 G. Zheng, W. Liang, M. Hada, M. Ehara, K. Toyota, R. Fukuda, 
 J. Hasegawa, M. Ishida, T. Nakajima, Y. Honda, O. Kitao, H. Nakai, 
 T. Vreven, K. Throssell, J. A. Montgomery, Jr., J. E. Peralta, 
 F. Ogliaro, M. J. Bearpark, J. J. Heyd, E. N. Brothers, K. N. Kudin, 
 V. N. Staroverov, T. A. Keith, R. Kobayashi, J. Normand, 
 K. Raghavachari, A. P. Rendell, J. C. Burant, S. S. Iyengar, 
 J. Tomasi, M. Cossi, J. M. Millam, M. Klene, C. Adamo, R. Cammi, 
 J. W. Ochterski, R. L. Martin, K. Morokuma, O. Farkas, 
 J. B. Foresman, and D. J. Fox, Gaussian, Inc., Wallingford CT, 2016.
 
 ******************************************
 Gaussian 16:  ES64L-G16RevA.03 25-Dec-2016
                27-Jun-2022 
 ******************************************
 %mem=10GB
 %chk=14_addons_C84_11_Cl22_rank_8.chk
 %nprocshared=24
 Will use up to   24 processors via shared memory.
 ------------------------------------------------
 #P opt b3lyp/6-31G(d, p) empiricaldispersion=GD3
 ------------------------------------------------
 1/18=20,19=15,26=3,38=1/1,3;
 2/9=110,12=2,17=6,18=5,40=1/2;
 3/5=1,6=6,7=101,11=2,25=1,30=1,71=1,74=-5,124=31/1,2,3;
 4//1;
 5/5=2,38=5/2;
 6/7=2,8=2,9=2,10=2,28=1/1;
 7//1,2,3,16;
 1/18=20,19=15,26=3/3(2);
 2/9=110/2;
 99//99;
 2/9=110/2;
 3/5=1,6=6,7=101,11=2,25=1,30=1,71=1,74=-5,124=31/1,2,3;
 4/5=5,16=3,69=1/1;
 5/5=2,38=5/2;
 7//1,2,3,16;
 1/18=20,19=15,26=3/3(-5);
 2/9=110/2;
 6/7=2,8=2,9=2,10=2,19=2,28=1/1;
 99/9=1/99;
 Leave Link    1 at Mon Jun 27 17:52:29 2022, MaxMem=  1342177280 cpu:               0.7 elap:               0.1
 (Enter /home/mkliu/g16/l101.exe)
 -----
 force
 -----
 Symbolic Z-matrix:
 Charge =  0 Multiplicity = 1
 C                     8.42996   18.65393   10.81232 
 C                     12.57717   19.99146   8.91251 
 C                     8.2724    26.81636   10.50037 
 C                     12.50503   25.73845   8.91878 
 C                     8.03056   19.16668   9.44511 
 C                     12.07888   19.49465   10.23473 
 C                     7.97027   26.79994   9.13208 
 C                     11.89851   26.1679   10.22402 
 C                     8.9857    19.26206   8.40182 
 C                     12.35691   20.1405   11.40076 
 C                     12.15402   25.51846   11.38934 
 C                     8.97337   26.56371   8.16003 
 C                     10.37429   19.08928   8.70369 
 C                     10.29532   26.60936   8.62963 
 C                     10.81822   18.84738   10.05786 
 C                     10.61982   26.75262   10.01018 
 C                     9.90277   18.75136   11.06878 
 C                     9.60821   26.73723   10.98293 
 C                     10.15686   19.47097   12.26283 
 C                     9.86254   26.02884   12.19779 
 C                     8.94959   20.03851   12.74158 
 C                     8.76938   25.40331   12.84118 
 C                     7.88164   19.5549   11.89288 
 C                     7.43157   25.53484   12.35533 
 C                     6.72421   20.20626   11.77839 
 C                     7.18111   26.23284   11.22326 
 C                     5.9318    20.17897   10.50848 
 C                     6.05215   25.8946   10.28768 
 C                     6.78109   19.79021   9.32287 
 C                     6.66086   26.23112   8.956 
 C                     6.43801   20.37536   8.11575 
 C                     6.33497   25.60549   7.8236 
 C                     7.35282   20.42082   7.05825 
 C                     7.2315    25.63673   6.61379 
 C                     8.67819   19.968    7.19862 
 C                     8.69254   25.82138   6.9789 
 C                     9.71126   20.62745   6.43704 
 C                     9.71115   25.09911   6.36547 
 C                     11.05298   20.59826   6.92214 
 C                     12.70129   22.18204   7.81635 
 C                     12.72841   23.57859   7.79828 
 C                     11.03623   25.12344   6.88866 
 C                     11.3602   19.77709   8.03018 
 C                     12.90653   21.46279   8.98609 
 C                     12.89032   24.28201   8.97426 
 C                     11.32507   25.90841   7.97822 
 C                     13.13659   22.1669   10.1753 
 C                     13.10915   23.57499   10.17195 
 C                     13.19443   21.3923   11.48492 
 C                     13.09468   24.34551   11.48321 
 C                     12.45709   22.16761   12.54416 
 C                     12.41661   23.52103   12.53846 
 C                     11.36143   20.1568   12.41816 
 C                     11.12557   25.42344   12.37217 
 C                     11.35501   21.42275   13.05492 
 C                     11.26774   24.18272   13.04886 
 C                     8.90971   21.32329   13.29895 
 C                     8.9046    24.13311   13.44091 
 C                     7.67349   22.05593   13.19915 
 C                     7.68115   23.41548   13.30774 
 C                     6.44201   21.42806   12.60019 
 C                     6.61433   24.3415   12.75619 
 C                     5.88149   22.33808   11.54101 
 C                     5.98549   23.71661   11.53717 
 C                     5.59036   21.64345   10.37616 
 C                     5.75236   24.41012   10.34235 
 C                     5.38386   22.31332   9.18195 
 C                     5.44574   23.71421   9.16209 
 C                     5.38629   21.46006   7.94308 
 C                     5.38068   24.44939   7.82921 
 C                     5.9359    22.23543   6.78237 
 C                     5.95209   23.60368   6.73081 
 C                     7.00713   21.52282   6.20683 
 C                     6.98672   24.28073   6.04094 
 C                     8.00624   22.18441   5.52016 
 C                     7.98466   23.59104   5.40793 
 C                     9.35904   21.72654   5.61908 
 C                     9.38767   24.11182   5.25534 
 C                     11.87083   21.72172   6.72077 
 C                     12.08184   24.10011   6.53028 
 C                     10.19449   22.84857   5.44113 
 C                     11.44014   22.84929   6.00935 
 C                     10.15269   22.03499   13.47194 
 C                     10.14296   23.46215   13.51035 
 Cl                    4.54635   26.8184   10.6276 
 Cl                    3.66599   24.93306   7.52861 
 Cl                    13.29008   24.80787   5.39811 
 Cl                    13.91686   26.73989   8.42522 
 Cl                    14.77862   24.82324   11.90579 
 Cl                    14.91767   21.06894   11.89018 
 Cl                    14.02435   19.08737   8.31614 
 Cl                    3.7418    20.79999   7.63418 
 Cl                    4.462     19.13962   10.60903 
 Cl                    5.34603   24.72211   13.97658 
 Cl                    7.82222   16.95475   10.9845 
 Cl                    5.21968   21.09935   13.90025 
 Cl                    9.68213   24.91544   3.67009 
 Cl                    6.75348   26.97212   5.47775 
 
 ITRead=  0  0  0  0  0  0  0  0  0  0  0  0  0  0  0  0  0  0  0  0
 ITRead=  0  0  0  0  0  0  0  0  0  0  0  0  0  0  0  0  0  0  0  0
 ITRead=  0  0  0  0  0  0  0  0  0  0  0  0  0  0  0  0  0  0  0  0
 ITRead=  0  0  0  0  0  0  0  0  0  0  0  0  0  0  0  0  0  0  0  0
 ITRead=  0  0  0  0  0  0  0  0  0  0  0  0  0  0  0  0  0  0
 MicOpt= -1 -1 -1 -1 -1 -1 -1 -1 -1 -1 -1 -1 -1 -1 -1 -1 -1 -1 -1 -1
 MicOpt= -1 -1 -1 -1 -1 -1 -1 -1 -1 -1 -1 -1 -1 -1 -1 -1 -1 -1 -1 -1
 MicOpt= -1 -1 -1 -1 -1 -1 -1 -1 -1 -1 -1 -1 -1 -1 -1 -1 -1 -1 -1 -1
 MicOpt= -1 -1 -1 -1 -1 -1 -1 -1 -1 -1 -1 -1 -1 -1 -1 -1 -1 -1 -1 -1
 MicOpt= -1 -1 -1 -1 -1 -1 -1 -1 -1 -1 -1 -1 -1 -1 -1 -1 -1 -1
 NAtoms=     98 NQM=       98 NQMF=       0 NMMI=      0 NMMIF=      0
                NMic=       0 NMicF=      0.
                    Isotopes and Nuclear Properties:
 (Nuclear quadrupole moments (NQMom) in fm**2, nuclear magnetic moments (NMagM)
  in nuclear magnetons)

  Atom         1           2           3           4           5           6           7           8           9          10
 IAtWgt=          12          12          12          12          12          12          12          12          12          12
 AtmWgt=  12.0000000  12.0000000  12.0000000  12.0000000  12.0000000  12.0000000  12.0000000  12.0000000  12.0000000  12.0000000
 NucSpn=           0           0           0           0           0           0           0           0           0           0
 AtZEff=  -0.0000000  -0.0000000  -0.0000000  -0.0000000  -0.0000000  -0.0000000  -0.0000000  -0.0000000  -0.0000000  -0.0000000
 NQMom=    0.0000000   0.0000000   0.0000000   0.0000000   0.0000000   0.0000000   0.0000000   0.0000000   0.0000000   0.0000000
 NMagM=    0.0000000   0.0000000   0.0000000   0.0000000   0.0000000   0.0000000   0.0000000   0.0000000   0.0000000   0.0000000
 AtZNuc=   6.0000000   6.0000000   6.0000000   6.0000000   6.0000000   6.0000000   6.0000000   6.0000000   6.0000000   6.0000000

  Atom        11          12          13          14          15          16          17          18          19          20
 IAtWgt=          12          12          12          12          12          12          12          12          12          12
 AtmWgt=  12.0000000  12.0000000  12.0000000  12.0000000  12.0000000  12.0000000  12.0000000  12.0000000  12.0000000  12.0000000
 NucSpn=           0           0           0           0           0           0           0           0           0           0
 AtZEff=  -0.0000000  -0.0000000  -0.0000000  -0.0000000  -0.0000000  -0.0000000  -0.0000000  -0.0000000  -0.0000000  -0.0000000
 NQMom=    0.0000000   0.0000000   0.0000000   0.0000000   0.0000000   0.0000000   0.0000000   0.0000000   0.0000000   0.0000000
 NMagM=    0.0000000   0.0000000   0.0000000   0.0000000   0.0000000   0.0000000   0.0000000   0.0000000   0.0000000   0.0000000
 AtZNuc=   6.0000000   6.0000000   6.0000000   6.0000000   6.0000000   6.0000000   6.0000000   6.0000000   6.0000000   6.0000000

  Atom        21          22          23          24          25          26          27          28          29          30
 IAtWgt=          12          12          12          12          12          12          12          12          12          12
 AtmWgt=  12.0000000  12.0000000  12.0000000  12.0000000  12.0000000  12.0000000  12.0000000  12.0000000  12.0000000  12.0000000
 NucSpn=           0           0           0           0           0           0           0           0           0           0
 AtZEff=  -0.0000000  -0.0000000  -0.0000000  -0.0000000  -0.0000000  -0.0000000  -0.0000000  -0.0000000  -0.0000000  -0.0000000
 NQMom=    0.0000000   0.0000000   0.0000000   0.0000000   0.0000000   0.0000000   0.0000000   0.0000000   0.0000000   0.0000000
 NMagM=    0.0000000   0.0000000   0.0000000   0.0000000   0.0000000   0.0000000   0.0000000   0.0000000   0.0000000   0.0000000
 AtZNuc=   6.0000000   6.0000000   6.0000000   6.0000000   6.0000000   6.0000000   6.0000000   6.0000000   6.0000000   6.0000000

  Atom        31          32          33          34          35          36          37          38          39          40
 IAtWgt=          12          12          12          12          12          12          12          12          12          12
 AtmWgt=  12.0000000  12.0000000  12.0000000  12.0000000  12.0000000  12.0000000  12.0000000  12.0000000  12.0000000  12.0000000
 NucSpn=           0           0           0           0           0           0           0           0           0           0
 AtZEff=  -0.0000000  -0.0000000  -0.0000000  -0.0000000  -0.0000000  -0.0000000  -0.0000000  -0.0000000  -0.0000000  -0.0000000
 NQMom=    0.0000000   0.0000000   0.0000000   0.0000000   0.0000000   0.0000000   0.0000000   0.0000000   0.0000000   0.0000000
 NMagM=    0.0000000   0.0000000   0.0000000   0.0000000   0.0000000   0.0000000   0.0000000   0.0000000   0.0000000   0.0000000
 AtZNuc=   6.0000000   6.0000000   6.0000000   6.0000000   6.0000000   6.0000000   6.0000000   6.0000000   6.0000000   6.0000000

  Atom        41          42          43          44          45          46          47          48          49          50
 IAtWgt=          12          12          12          12          12          12          12          12          12          12
 AtmWgt=  12.0000000  12.0000000  12.0000000  12.0000000  12.0000000  12.0000000  12.0000000  12.0000000  12.0000000  12.0000000
 NucSpn=           0           0           0           0           0           0           0           0           0           0
 AtZEff=  -0.0000000  -0.0000000  -0.0000000  -0.0000000  -0.0000000  -0.0000000  -0.0000000  -0.0000000  -0.0000000  -0.0000000
 NQMom=    0.0000000   0.0000000   0.0000000   0.0000000   0.0000000   0.0000000   0.0000000   0.0000000   0.0000000   0.0000000
 NMagM=    0.0000000   0.0000000   0.0000000   0.0000000   0.0000000   0.0000000   0.0000000   0.0000000   0.0000000   0.0000000
 AtZNuc=   6.0000000   6.0000000   6.0000000   6.0000000   6.0000000   6.0000000   6.0000000   6.0000000   6.0000000   6.0000000

  Atom        51          52          53          54          55          56          57          58          59          60
 IAtWgt=          12          12          12          12          12          12          12          12          12          12
 AtmWgt=  12.0000000  12.0000000  12.0000000  12.0000000  12.0000000  12.0000000  12.0000000  12.0000000  12.0000000  12.0000000
 NucSpn=           0           0           0           0           0           0           0           0           0           0
 AtZEff=  -0.0000000  -0.0000000  -0.0000000  -0.0000000  -0.0000000  -0.0000000  -0.0000000  -0.0000000  -0.0000000  -0.0000000
 NQMom=    0.0000000   0.0000000   0.0000000   0.0000000   0.0000000   0.0000000   0.0000000   0.0000000   0.0000000   0.0000000
 NMagM=    0.0000000   0.0000000   0.0000000   0.0000000   0.0000000   0.0000000   0.0000000   0.0000000   0.0000000   0.0000000
 AtZNuc=   6.0000000   6.0000000   6.0000000   6.0000000   6.0000000   6.0000000   6.0000000   6.0000000   6.0000000   6.0000000

  Atom        61          62          63          64          65          66          67          68          69          70
 IAtWgt=          12          12          12          12          12          12          12          12          12          12
 AtmWgt=  12.0000000  12.0000000  12.0000000  12.0000000  12.0000000  12.0000000  12.0000000  12.0000000  12.0000000  12.0000000
 NucSpn=           0           0           0           0           0           0           0           0           0           0
 AtZEff=  -0.0000000  -0.0000000  -0.0000000  -0.0000000  -0.0000000  -0.0000000  -0.0000000  -0.0000000  -0.0000000  -0.0000000
 NQMom=    0.0000000   0.0000000   0.0000000   0.0000000   0.0000000   0.0000000   0.0000000   0.0000000   0.0000000   0.0000000
 NMagM=    0.0000000   0.0000000   0.0000000   0.0000000   0.0000000   0.0000000   0.0000000   0.0000000   0.0000000   0.0000000
 AtZNuc=   6.0000000   6.0000000   6.0000000   6.0000000   6.0000000   6.0000000   6.0000000   6.0000000   6.0000000   6.0000000

  Atom        71          72          73          74          75          76          77          78          79          80
 IAtWgt=          12          12          12          12          12          12          12          12          12          12
 AtmWgt=  12.0000000  12.0000000  12.0000000  12.0000000  12.0000000  12.0000000  12.0000000  12.0000000  12.0000000  12.0000000
 NucSpn=           0           0           0           0           0           0           0           0           0           0
 AtZEff=  -0.0000000  -0.0000000  -0.0000000  -0.0000000  -0.0000000  -0.0000000  -0.0000000  -0.0000000  -0.0000000  -0.0000000
 NQMom=    0.0000000   0.0000000   0.0000000   0.0000000   0.0000000   0.0000000   0.0000000   0.0000000   0.0000000   0.0000000
 NMagM=    0.0000000   0.0000000   0.0000000   0.0000000   0.0000000   0.0000000   0.0000000   0.0000000   0.0000000   0.0000000
 AtZNuc=   6.0000000   6.0000000   6.0000000   6.0000000   6.0000000   6.0000000   6.0000000   6.0000000   6.0000000   6.0000000

  Atom        81          82          83          84          85          86          87          88          89          90
 IAtWgt=          12          12          12          12          35          35          35          35          35          35
 AtmWgt=  12.0000000  12.0000000  12.0000000  12.0000000  34.9688527  34.9688527  34.9688527  34.9688527  34.9688527  34.9688527
 NucSpn=           0           0           0           0           3           3           3           3           3           3
 AtZEff=  -0.0000000  -0.0000000  -0.0000000  -0.0000000  -0.0000000  -0.0000000  -0.0000000  -0.0000000  -0.0000000  -0.0000000
 NQMom=    0.0000000   0.0000000   0.0000000   0.0000000  -8.1650000  -8.1650000  -8.1650000  -8.1650000  -8.1650000  -8.1650000
 NMagM=    0.0000000   0.0000000   0.0000000   0.0000000   0.8218740   0.8218740   0.8218740   0.8218740   0.8218740   0.8218740
 AtZNuc=   6.0000000   6.0000000   6.0000000   6.0000000  17.0000000  17.0000000  17.0000000  17.0000000  17.0000000  17.0000000

  Atom        91          92          93          94          95          96          97          98
 IAtWgt=          35          35          35          35          35          35          35          35
 AtmWgt=  34.9688527  34.9688527  34.9688527  34.9688527  34.9688527  34.9688527  34.9688527  34.9688527
 NucSpn=           3           3           3           3           3           3           3           3
 AtZEff=  -0.0000000  -0.0000000  -0.0000000  -0.0000000  -0.0000000  -0.0000000  -0.0000000  -0.0000000
 NQMom=   -8.1650000  -8.1650000  -8.1650000  -8.1650000  -8.1650000  -8.1650000  -8.1650000  -8.1650000
 NMagM=    0.8218740   0.8218740   0.8218740   0.8218740   0.8218740   0.8218740   0.8218740   0.8218740
 AtZNuc=  17.0000000  17.0000000  17.0000000  17.0000000  17.0000000  17.0000000  17.0000000  17.0000000
 Leave Link  101 at Mon Jun 27 17:52:29 2022, MaxMem=  1342177280 cpu:               6.7 elap:               0.3
 (Enter /home/mkliu/g16/l103.exe)

 GradGradGradGradGradGradGradGradGradGradGradGradGradGradGradGradGradGrad
 Berny optimization.
 Initialization pass.
                           ----------------------------
                           !    Initial Parameters    !
                           ! (Angstroms and Degrees)  !
 --------------------------                            --------------------------
 ! Name  Definition              Value          Derivative Info.                !
 --------------------------------------------------------------------------------
 ! R1    R(1,5)                  1.5138         estimate D2E/DX2                !
 ! R2    R(1,17)                 1.4981         estimate D2E/DX2                !
 ! R3    R(1,23)                 1.51           estimate D2E/DX2                !
 ! R4    R(1,95)                 1.8128         estimate D2E/DX2                !
 ! R5    R(2,6)                  1.4978         estimate D2E/DX2                !
 ! R6    R(2,43)                 1.5184         estimate D2E/DX2                !
 ! R7    R(2,44)                 1.5095         estimate D2E/DX2                !
 ! R8    R(2,91)                 1.8076         estimate D2E/DX2                !
 ! R9    R(3,7)                  1.4013         estimate D2E/DX2                !
 ! R10   R(3,18)                 1.4225         estimate D2E/DX2                !
 ! R11   R(3,26)                 1.4332         estimate D2E/DX2                !
 ! R12   R(4,8)                  1.502          estimate D2E/DX2                !
 ! R13   R(4,45)                 1.5076         estimate D2E/DX2                !
 ! R14   R(4,46)                 1.5185         estimate D2E/DX2                !
 ! R15   R(4,88)                 1.7999         estimate D2E/DX2                !
 ! R16   R(5,9)                  1.4177         estimate D2E/DX2                !
 ! R17   R(5,29)                 1.4018         estimate D2E/DX2                !
 ! R18   R(6,10)                 1.3616         estimate D2E/DX2                !
 ! R19   R(6,15)                 1.4281         estimate D2E/DX2                !
 ! R20   R(7,12)                 1.4166         estimate D2E/DX2                !
 ! R21   R(7,30)                 1.4384         estimate D2E/DX2                !
 ! R22   R(8,11)                 1.3583         estimate D2E/DX2                !
 ! R23   R(8,16)                 1.4222         estimate D2E/DX2                !
 ! R24   R(9,13)                 1.4315         estimate D2E/DX2                !
 ! R25   R(9,35)                 1.4285         estimate D2E/DX2                !
 ! R26   R(10,49)                1.5085         estimate D2E/DX2                !
 ! R27   R(10,53)                1.4235         estimate D2E/DX2                !
 ! R28   R(11,50)                1.5065         estimate D2E/DX2                !
 ! R29   R(11,54)                1.4257         estimate D2E/DX2                !
 ! R30   R(12,14)                1.4036         estimate D2E/DX2                !
 ! R31   R(12,36)                1.423          estimate D2E/DX2                !
 ! R32   R(13,15)                1.4455         estimate D2E/DX2                !
 ! R33   R(13,43)                1.3779         estimate D2E/DX2                !
 ! R34   R(14,16)                1.4254         estimate D2E/DX2                !
 ! R35   R(14,46)                1.4057         estimate D2E/DX2                !
 ! R36   R(15,17)                1.3672         estimate D2E/DX2                !
 ! R37   R(16,18)                1.4035         estimate D2E/DX2                !
 ! R38   R(17,19)                1.4171         estimate D2E/DX2                !
 ! R39   R(18,20)                1.4291         estimate D2E/DX2                !
 ! R40   R(19,21)                1.4173         estimate D2E/DX2                !
 ! R41   R(19,53)                1.3948         estimate D2E/DX2                !
 ! R42   R(20,22)                1.4143         estimate D2E/DX2                !
 ! R43   R(20,54)                1.4114         estimate D2E/DX2                !
 ! R44   R(21,23)                1.4473         estimate D2E/DX2                !
 ! R45   R(21,57)                1.401          estimate D2E/DX2                !
 ! R46   R(22,24)                1.4294         estimate D2E/DX2                !
 ! R47   R(22,58)                1.4112         estimate D2E/DX2                !
 ! R48   R(23,25)                1.3331         estimate D2E/DX2                !
 ! R49   R(24,26)                1.3533         estimate D2E/DX2                !
 ! R50   R(24,62)                1.5009         estimate D2E/DX2                !
 ! R51   R(25,27)                1.4971         estimate D2E/DX2                !
 ! R52   R(25,61)                1.4993         estimate D2E/DX2                !
 ! R53   R(26,28)                1.5048         estimate D2E/DX2                !
 ! R54   R(27,29)                1.5093         estimate D2E/DX2                !
 ! R55   R(27,65)                1.5096         estimate D2E/DX2                !
 ! R56   R(27,93)                1.803          estimate D2E/DX2                !
 ! R57   R(28,30)                1.5024         estimate D2E/DX2                !
 ! R58   R(28,66)                1.5154         estimate D2E/DX2                !
 ! R59   R(28,85)                1.799          estimate D2E/DX2                !
 ! R60   R(29,31)                1.3846         estimate D2E/DX2                !
 ! R61   R(30,32)                1.3341         estimate D2E/DX2                !
 ! R62   R(31,33)                1.399          estimate D2E/DX2                !
 ! R63   R(31,69)                1.5207         estimate D2E/DX2                !
 ! R64   R(32,34)                1.5061         estimate D2E/DX2                !
 ! R65   R(32,70)                1.4991         estimate D2E/DX2                !
 ! R66   R(33,35)                1.4076         estimate D2E/DX2                !
 ! R67   R(33,73)                1.4349         estimate D2E/DX2                !
 ! R68   R(34,36)                1.5172         estimate D2E/DX2                !
 ! R69   R(34,74)                1.4923         estimate D2E/DX2                !
 ! R70   R(34,98)                1.8172         estimate D2E/DX2                !
 ! R71   R(35,37)                1.443          estimate D2E/DX2                !
 ! R72   R(36,38)                1.3912         estimate D2E/DX2                !
 ! R73   R(37,39)                1.427          estimate D2E/DX2                !
 ! R74   R(37,77)                1.4146         estimate D2E/DX2                !
 ! R75   R(38,42)                1.4248         estimate D2E/DX2                !
 ! R76   R(38,78)                1.5204         estimate D2E/DX2                !
 ! R77   R(39,43)                1.413          estimate D2E/DX2                !
 ! R78   R(39,79)                1.4041         estimate D2E/DX2                !
 ! R79   R(40,41)                1.3969         estimate D2E/DX2                !
 ! R80   R(40,44)                1.3884         estimate D2E/DX2                !
 ! R81   R(40,79)                1.4498         estimate D2E/DX2                !
 ! R82   R(41,45)                1.3798         estimate D2E/DX2                !
 ! R83   R(41,80)                1.5159         estimate D2E/DX2                !
 ! R84   R(42,46)                1.3736         estimate D2E/DX2                !
 ! R85   R(42,80)                1.5063         estimate D2E/DX2                !
 ! R86   R(44,47)                1.401          estimate D2E/DX2                !
 ! R87   R(45,48)                1.4079         estimate D2E/DX2                !
 ! R88   R(47,48)                1.4084         estimate D2E/DX2                !
 ! R89   R(47,49)                1.5226         estimate D2E/DX2                !
 ! R90   R(48,50)                1.521          estimate D2E/DX2                !
 ! R91   R(49,51)                1.5056         estimate D2E/DX2                !
 ! R92   R(49,90)                1.7995         estimate D2E/DX2                !
 ! R93   R(50,52)                1.501          estimate D2E/DX2                !
 ! R94   R(50,89)                1.8007         estimate D2E/DX2                !
 ! R95   R(51,52)                1.354          estimate D2E/DX2                !
 ! R96   R(51,55)                1.4249         estimate D2E/DX2                !
 ! R97   R(52,56)                1.4206         estimate D2E/DX2                !
 ! R98   R(53,55)                1.4171         estimate D2E/DX2                !
 ! R99   R(54,56)                1.4204         estimate D2E/DX2                !
 ! R100  R(55,83)                1.4122         estimate D2E/DX2                !
 ! R101  R(56,84)                1.4133         estimate D2E/DX2                !
 ! R102  R(57,59)                1.4405         estimate D2E/DX2                !
 ! R103  R(57,83)                1.4427         estimate D2E/DX2                !
 ! R104  R(58,60)                1.4246         estimate D2E/DX2                !
 ! R105  R(58,84)                1.4102         estimate D2E/DX2                !
 ! R106  R(59,60)                1.3639         estimate D2E/DX2                !
 ! R107  R(59,61)                1.5065         estimate D2E/DX2                !
 ! R108  R(60,62)                1.5165         estimate D2E/DX2                !
 ! R109  R(61,63)                1.5047         estimate D2E/DX2                !
 ! R110  R(61,96)                1.8145         estimate D2E/DX2                !
 ! R111  R(62,64)                1.5073         estimate D2E/DX2                !
 ! R112  R(62,94)                1.8008         estimate D2E/DX2                !
 ! R113  R(63,64)                1.3825         estimate D2E/DX2                !
 ! R114  R(63,65)                1.3871         estimate D2E/DX2                !
 ! R115  R(64,66)                1.401          estimate D2E/DX2                !
 ! R116  R(65,67)                1.3847         estimate D2E/DX2                !
 ! R117  R(66,68)                1.404          estimate D2E/DX2                !
 ! R118  R(67,68)                1.4024         estimate D2E/DX2                !
 ! R119  R(67,69)                1.5043         estimate D2E/DX2                !
 ! R120  R(68,70)                1.5236         estimate D2E/DX2                !
 ! R121  R(69,71)                1.5002         estimate D2E/DX2                !
 ! R122  R(69,92)                1.7987         estimate D2E/DX2                !
 ! R123  R(70,72)                1.4994         estimate D2E/DX2                !
 ! R124  R(70,86)                1.8068         estimate D2E/DX2                !
 ! R125  R(71,72)                1.3693         estimate D2E/DX2                !
 ! R126  R(71,73)                1.4095         estimate D2E/DX2                !
 ! R127  R(72,74)                1.4159         estimate D2E/DX2                !
 ! R128  R(73,75)                1.3811         estimate D2E/DX2                !
 ! R129  R(74,76)                1.3683         estimate D2E/DX2                !
 ! R130  R(75,76)                1.4113         estimate D2E/DX2                !
 ! R131  R(75,77)                1.4316         estimate D2E/DX2                !
 ! R132  R(76,78)                1.5043         estimate D2E/DX2                !
 ! R133  R(77,81)                1.4102         estimate D2E/DX2                !
 ! R134  R(78,81)                1.5104         estimate D2E/DX2                !
 ! R135  R(78,97)                1.8015         estimate D2E/DX2                !
 ! R136  R(79,82)                1.4011         estimate D2E/DX2                !
 ! R137  R(80,82)                1.4992         estimate D2E/DX2                !
 ! R138  R(80,87)                1.8007         estimate D2E/DX2                !
 ! R139  R(81,82)                1.3691         estimate D2E/DX2                !
 ! R140  R(83,84)                1.4277         estimate D2E/DX2                !
 ! A1    A(5,1,17)             113.0759         estimate D2E/DX2                !
 ! A2    A(5,1,23)             110.3893         estimate D2E/DX2                !
 ! A3    A(5,1,95)             108.3493         estimate D2E/DX2                !
 ! A4    A(17,1,23)            101.2847         estimate D2E/DX2                !
 ! A5    A(17,1,95)            111.98           estimate D2E/DX2                !
 ! A6    A(23,1,95)            111.6894         estimate D2E/DX2                !
 ! A7    A(6,2,43)             101.5082         estimate D2E/DX2                !
 ! A8    A(6,2,44)             110.6617         estimate D2E/DX2                !
 ! A9    A(6,2,91)             113.0605         estimate D2E/DX2                !
 ! A10   A(43,2,44)            109.9263         estimate D2E/DX2                !
 ! A11   A(43,2,91)            112.2935         estimate D2E/DX2                !
 ! A12   A(44,2,91)            109.2025         estimate D2E/DX2                !
 ! A13   A(7,3,18)             122.2111         estimate D2E/DX2                !
 ! A14   A(7,3,26)             108.8791         estimate D2E/DX2                !
 ! A15   A(18,3,26)            121.4182         estimate D2E/DX2                !
 ! A16   A(8,4,45)             110.3318         estimate D2E/DX2                !
 ! A17   A(8,4,46)             101.0975         estimate D2E/DX2                !
 ! A18   A(8,4,88)             113.3255         estimate D2E/DX2                !
 ! A19   A(45,4,46)            109.2398         estimate D2E/DX2                !
 ! A20   A(45,4,88)            110.3121         estimate D2E/DX2                !
 ! A21   A(46,4,88)            112.1716         estimate D2E/DX2                !
 ! A22   A(1,5,9)              120.6415         estimate D2E/DX2                !
 ! A23   A(1,5,29)             117.6842         estimate D2E/DX2                !
 ! A24   A(9,5,29)             120.4267         estimate D2E/DX2                !
 ! A25   A(2,6,10)             122.0535         estimate D2E/DX2                !
 ! A26   A(2,6,15)             109.5529         estimate D2E/DX2                !
 ! A27   A(10,6,15)            120.0848         estimate D2E/DX2                !
 ! A28   A(3,7,12)             121.2831         estimate D2E/DX2                !
 ! A29   A(3,7,30)             108.688          estimate D2E/DX2                !
 ! A30   A(12,7,30)            119.6455         estimate D2E/DX2                !
 ! A31   A(4,8,11)             122.1997         estimate D2E/DX2                !
 ! A32   A(4,8,16)             110.4847         estimate D2E/DX2                !
 ! A33   A(11,8,16)            119.6491         estimate D2E/DX2                !
 ! A34   A(5,9,13)             119.3561         estimate D2E/DX2                !
 ! A35   A(5,9,35)             120.5346         estimate D2E/DX2                !
 ! A36   A(13,9,35)            116.4926         estimate D2E/DX2                !
 ! A37   A(6,10,49)            123.6933         estimate D2E/DX2                !
 ! A38   A(6,10,53)            118.3387         estimate D2E/DX2                !
 ! A39   A(49,10,53)           109.8092         estimate D2E/DX2                !
 ! A40   A(8,11,50)            122.9004         estimate D2E/DX2                !
 ! A41   A(8,11,54)            119.1819         estimate D2E/DX2                !
 ! A42   A(50,11,54)           110.8283         estimate D2E/DX2                !
 ! A43   A(7,12,14)            115.5881         estimate D2E/DX2                !
 ! A44   A(7,12,36)            121.1156         estimate D2E/DX2                !
 ! A45   A(14,12,36)           118.7195         estimate D2E/DX2                !
 ! A46   A(9,13,15)            121.0425         estimate D2E/DX2                !
 ! A47   A(9,13,43)            122.0551         estimate D2E/DX2                !
 ! A48   A(15,13,43)           108.7654         estimate D2E/DX2                !
 ! A49   A(12,14,16)           122.8001         estimate D2E/DX2                !
 ! A50   A(12,14,46)           121.243          estimate D2E/DX2                !
 ! A51   A(16,14,46)           109.4009         estimate D2E/DX2                !
 ! A52   A(6,15,13)            108.1371         estimate D2E/DX2                !
 ! A53   A(6,15,17)            122.0954         estimate D2E/DX2                !
 ! A54   A(13,15,17)           119.9217         estimate D2E/DX2                !
 ! A55   A(8,16,14)            107.9979         estimate D2E/DX2                !
 ! A56   A(8,16,18)            122.6373         estimate D2E/DX2                !
 ! A57   A(14,16,18)           120.404          estimate D2E/DX2                !
 ! A58   A(1,17,15)            122.429          estimate D2E/DX2                !
 ! A59   A(1,17,19)            110.704          estimate D2E/DX2                !
 ! A60   A(15,17,19)           117.8593         estimate D2E/DX2                !
 ! A61   A(3,18,16)            116.175          estimate D2E/DX2                !
 ! A62   A(3,18,20)            118.8858         estimate D2E/DX2                !
 ! A63   A(16,18,20)           117.7968         estimate D2E/DX2                !
 ! A64   A(17,19,21)           109.5863         estimate D2E/DX2                !
 ! A65   A(17,19,53)           119.8924         estimate D2E/DX2                !
 ! A66   A(21,19,53)           120.0737         estimate D2E/DX2                !
 ! A67   A(18,20,22)           117.9301         estimate D2E/DX2                !
 ! A68   A(18,20,54)           118.4825         estimate D2E/DX2                !
 ! A69   A(22,20,54)           116.4713         estimate D2E/DX2                !
 ! A70   A(19,21,23)           107.2565         estimate D2E/DX2                !
 ! A71   A(19,21,57)           121.7242         estimate D2E/DX2                !
 ! A72   A(23,21,57)           121.2454         estimate D2E/DX2                !
 ! A73   A(20,22,24)           121.8771         estimate D2E/DX2                !
 ! A74   A(20,22,58)           121.1567         estimate D2E/DX2                !
 ! A75   A(24,22,58)           108.4798         estimate D2E/DX2                !
 ! A76   A(1,23,21)            110.5526         estimate D2E/DX2                !
 ! A77   A(1,23,25)            123.051          estimate D2E/DX2                !
 ! A78   A(21,23,25)           121.8545         estimate D2E/DX2                !
 ! A79   A(22,24,26)           120.3315         estimate D2E/DX2                !
 ! A80   A(22,24,62)           110.2233         estimate D2E/DX2                !
 ! A81   A(26,24,62)           122.1903         estimate D2E/DX2                !
 ! A82   A(23,25,27)           121.5676         estimate D2E/DX2                !
 ! A83   A(23,25,61)           120.9675         estimate D2E/DX2                !
 ! A84   A(27,25,61)           112.345          estimate D2E/DX2                !
 ! A85   A(3,26,24)            119.4074         estimate D2E/DX2                !
 ! A86   A(3,26,28)            110.4378         estimate D2E/DX2                !
 ! A87   A(24,26,28)           122.8891         estimate D2E/DX2                !
 ! A88   A(25,27,29)           111.9118         estimate D2E/DX2                !
 ! A89   A(25,27,65)           100.1593         estimate D2E/DX2                !
 ! A90   A(25,27,93)           113.2466         estimate D2E/DX2                !
 ! A91   A(29,27,65)           107.9568         estimate D2E/DX2                !
 ! A92   A(29,27,93)           110.7345         estimate D2E/DX2                !
 ! A93   A(65,27,93)           112.318          estimate D2E/DX2                !
 ! A94   A(26,28,30)           101.3486         estimate D2E/DX2                !
 ! A95   A(26,28,66)           110.2534         estimate D2E/DX2                !
 ! A96   A(26,28,85)           113.2711         estimate D2E/DX2                !
 ! A97   A(30,28,66)           109.3623         estimate D2E/DX2                !
 ! A98   A(30,28,85)           113.054          estimate D2E/DX2                !
 ! A99   A(66,28,85)           109.3065         estimate D2E/DX2                !
 ! A100  A(5,29,27)            123.2046         estimate D2E/DX2                !
 ! A101  A(5,29,31)            119.0037         estimate D2E/DX2                !
 ! A102  A(27,29,31)           115.8829         estimate D2E/DX2                !
 ! A103  A(7,30,28)            110.4197         estimate D2E/DX2                !
 ! A104  A(7,30,32)            120.7768         estimate D2E/DX2                !
 ! A105  A(28,30,32)           123.2531         estimate D2E/DX2                !
 ! A106  A(29,31,33)           120.7095         estimate D2E/DX2                !
 ! A107  A(29,31,69)           124.8754         estimate D2E/DX2                !
 ! A108  A(33,31,69)           110.0738         estimate D2E/DX2                !
 ! A109  A(30,32,34)           121.7807         estimate D2E/DX2                !
 ! A110  A(30,32,70)           120.9284         estimate D2E/DX2                !
 ! A111  A(34,32,70)           113.4488         estimate D2E/DX2                !
 ! A112  A(31,33,35)           121.9961         estimate D2E/DX2                !
 ! A113  A(31,33,73)           108.4182         estimate D2E/DX2                !
 ! A114  A(35,33,73)           122.2144         estimate D2E/DX2                !
 ! A115  A(32,34,36)           112.4844         estimate D2E/DX2                !
 ! A116  A(32,34,74)           101.062          estimate D2E/DX2                !
 ! A117  A(32,34,98)           111.1506         estimate D2E/DX2                !
 ! A118  A(36,34,74)           111.1567         estimate D2E/DX2                !
 ! A119  A(36,34,98)           108.3192         estimate D2E/DX2                !
 ! A120  A(74,34,98)           112.6201         estimate D2E/DX2                !
 ! A121  A(9,35,33)            116.4658         estimate D2E/DX2                !
 ! A122  A(9,35,37)            121.0835         estimate D2E/DX2                !
 ! A123  A(33,35,37)           118.3241         estimate D2E/DX2                !
 ! A124  A(12,36,34)           116.9531         estimate D2E/DX2                !
 ! A125  A(12,36,38)           119.4921         estimate D2E/DX2                !
 ! A126  A(34,36,38)           122.3951         estimate D2E/DX2                !
 ! A127  A(35,37,39)           118.9712         estimate D2E/DX2                !
 ! A128  A(35,37,77)           118.8164         estimate D2E/DX2                !
 ! A129  A(39,37,77)           116.5236         estimate D2E/DX2                !
 ! A130  A(36,38,42)           120.6726         estimate D2E/DX2                !
 ! A131  A(36,38,78)           120.2166         estimate D2E/DX2                !
 ! A132  A(42,38,78)           118.4927         estimate D2E/DX2                !
 ! A133  A(37,39,43)           118.8752         estimate D2E/DX2                !
 ! A134  A(37,39,79)           118.8498         estimate D2E/DX2                !
 ! A135  A(43,39,79)           116.7967         estimate D2E/DX2                !
 ! A136  A(41,40,44)           121.7303         estimate D2E/DX2                !
 ! A137  A(41,40,79)           108.5886         estimate D2E/DX2                !
 ! A138  A(44,40,79)           123.8383         estimate D2E/DX2                !
 ! A139  A(40,41,45)           120.0595         estimate D2E/DX2                !
 ! A140  A(40,41,80)           110.2727         estimate D2E/DX2                !
 ! A141  A(45,41,80)           125.9844         estimate D2E/DX2                !
 ! A142  A(38,42,46)           119.7743         estimate D2E/DX2                !
 ! A143  A(38,42,80)           123.134          estimate D2E/DX2                !
 ! A144  A(46,42,80)           115.5303         estimate D2E/DX2                !
 ! A145  A(2,43,13)            111.0948         estimate D2E/DX2                !
 ! A146  A(2,43,39)            123.2236         estimate D2E/DX2                !
 ! A147  A(13,43,39)           121.1867         estimate D2E/DX2                !
 ! A148  A(2,44,40)            115.5692         estimate D2E/DX2                !
 ! A149  A(2,44,47)            124.5447         estimate D2E/DX2                !
 ! A150  A(40,44,47)           118.6223         estimate D2E/DX2                !
 ! A151  A(4,45,41)            115.5402         estimate D2E/DX2                !
 ! A152  A(4,45,48)            123.7917         estimate D2E/DX2                !
 ! A153  A(41,45,48)           119.1594         estimate D2E/DX2                !
 ! A154  A(4,46,14)            109.7555         estimate D2E/DX2                !
 ! A155  A(4,46,42)            126.211          estimate D2E/DX2                !
 ! A156  A(14,46,42)           119.9005         estimate D2E/DX2                !
 ! A157  A(44,47,48)           119.8184         estimate D2E/DX2                !
 ! A158  A(44,47,49)           118.7257         estimate D2E/DX2                !
 ! A159  A(48,47,49)           120.7579         estimate D2E/DX2                !
 ! A160  A(45,48,47)           120.4728         estimate D2E/DX2                !
 ! A161  A(45,48,50)           118.5232         estimate D2E/DX2                !
 ! A162  A(47,48,50)           120.3074         estimate D2E/DX2                !
 ! A163  A(10,49,47)           110.6762         estimate D2E/DX2                !
 ! A164  A(10,49,51)           101.2261         estimate D2E/DX2                !
 ! A165  A(10,49,90)           113.2729         estimate D2E/DX2                !
 ! A166  A(47,49,51)           108.9376         estimate D2E/DX2                !
 ! A167  A(47,49,90)           108.7528         estimate D2E/DX2                !
 ! A168  A(51,49,90)           113.7697         estimate D2E/DX2                !
 ! A169  A(11,50,48)           110.2835         estimate D2E/DX2                !
 ! A170  A(11,50,52)           100.9183         estimate D2E/DX2                !
 ! A171  A(11,50,89)           113.0778         estimate D2E/DX2                !
 ! A172  A(48,50,52)           109.398          estimate D2E/DX2                !
 ! A173  A(48,50,89)           109.1367         estimate D2E/DX2                !
 ! A174  A(52,50,89)           113.778          estimate D2E/DX2                !
 ! A175  A(49,51,52)           121.7628         estimate D2E/DX2                !
 ! A176  A(49,51,55)           111.2098         estimate D2E/DX2                !
 ! A177  A(52,51,55)           120.0596         estimate D2E/DX2                !
 ! A178  A(50,52,51)           122.5801         estimate D2E/DX2                !
 ! A179  A(50,52,56)           111.2267         estimate D2E/DX2                !
 ! A180  A(51,52,56)           119.2233         estimate D2E/DX2                !
 ! A181  A(10,53,19)           121.2465         estimate D2E/DX2                !
 ! A182  A(10,53,55)           109.5454         estimate D2E/DX2                !
 ! A183  A(19,53,55)           119.0378         estimate D2E/DX2                !
 ! A184  A(11,54,20)           122.1235         estimate D2E/DX2                !
 ! A185  A(11,54,56)           108.3264         estimate D2E/DX2                !
 ! A186  A(20,54,56)           121.5405         estimate D2E/DX2                !
 ! A187  A(51,55,53)           107.6033         estimate D2E/DX2                !
 ! A188  A(51,55,83)           122.5288         estimate D2E/DX2                !
 ! A189  A(53,55,83)           121.5907         estimate D2E/DX2                !
 ! A190  A(52,56,54)           108.4594         estimate D2E/DX2                !
 ! A191  A(52,56,84)           121.565          estimate D2E/DX2                !
 ! A192  A(54,56,84)           121.4173         estimate D2E/DX2                !
 ! A193  A(21,57,59)           117.5983         estimate D2E/DX2                !
 ! A194  A(21,57,83)           118.3947         estimate D2E/DX2                !
 ! A195  A(59,57,83)           119.7883         estimate D2E/DX2                !
 ! A196  A(22,58,60)           109.3538         estimate D2E/DX2                !
 ! A197  A(22,58,84)           122.2325         estimate D2E/DX2                !
 ! A198  A(60,58,84)           121.2709         estimate D2E/DX2                !
 ! A199  A(57,59,60)           119.7787         estimate D2E/DX2                !
 ! A200  A(57,59,61)           121.1387         estimate D2E/DX2                !
 ! A201  A(60,59,61)           116.8521         estimate D2E/DX2                !
 ! A202  A(58,60,59)           120.957          estimate D2E/DX2                !
 ! A203  A(58,60,62)           109.301          estimate D2E/DX2                !
 ! A204  A(59,60,62)           125.1535         estimate D2E/DX2                !
 ! A205  A(25,61,59)           113.81           estimate D2E/DX2                !
 ! A206  A(25,61,63)           100.2028         estimate D2E/DX2                !
 ! A207  A(25,61,96)           111.833          estimate D2E/DX2                !
 ! A208  A(59,61,63)           109.4094         estimate D2E/DX2                !
 ! A209  A(59,61,96)           109.9573         estimate D2E/DX2                !
 ! A210  A(63,61,96)           111.2824         estimate D2E/DX2                !
 ! A211  A(24,62,60)           101.5135         estimate D2E/DX2                !
 ! A212  A(24,62,64)           109.925          estimate D2E/DX2                !
 ! A213  A(24,62,94)           113.3568         estimate D2E/DX2                !
 ! A214  A(60,62,64)           109.5402         estimate D2E/DX2                !
 ! A215  A(60,62,94)           112.2124         estimate D2E/DX2                !
 ! A216  A(64,62,94)           109.9914         estimate D2E/DX2                !
 ! A217  A(61,63,64)           125.2394         estimate D2E/DX2                !
 ! A218  A(61,63,65)           111.4959         estimate D2E/DX2                !
 ! A219  A(64,63,65)           120.8504         estimate D2E/DX2                !
 ! A220  A(62,64,63)           116.2659         estimate D2E/DX2                !
 ! A221  A(62,64,66)           123.636          estimate D2E/DX2                !
 ! A222  A(63,64,66)           118.9108         estimate D2E/DX2                !
 ! A223  A(27,65,63)           111.391          estimate D2E/DX2                !
 ! A224  A(27,65,67)           125.3541         estimate D2E/DX2                !
 ! A225  A(63,65,67)           120.881          estimate D2E/DX2                !
 ! A226  A(28,66,64)           118.8643         estimate D2E/DX2                !
 ! A227  A(28,66,68)           119.8941         estimate D2E/DX2                !
 ! A228  A(64,66,68)           120.5231         estimate D2E/DX2                !
 ! A229  A(65,67,68)           119.2662         estimate D2E/DX2                !
 ! A230  A(65,67,69)           115.8242         estimate D2E/DX2                !
 ! A231  A(68,67,69)           123.7023         estimate D2E/DX2                !
 ! A232  A(66,68,67)           119.5278         estimate D2E/DX2                !
 ! A233  A(66,68,70)           120.3689         estimate D2E/DX2                !
 ! A234  A(67,68,70)           119.5062         estimate D2E/DX2                !
 ! A235  A(31,69,67)           108.1914         estimate D2E/DX2                !
 ! A236  A(31,69,71)           101.7209         estimate D2E/DX2                !
 ! A237  A(31,69,92)           112.9575         estimate D2E/DX2                !
 ! A238  A(67,69,71)           110.1588         estimate D2E/DX2                !
 ! A239  A(67,69,92)           110.3714         estimate D2E/DX2                !
 ! A240  A(71,69,92)           113.0633         estimate D2E/DX2                !
 ! A241  A(32,70,68)           110.3784         estimate D2E/DX2                !
 ! A242  A(32,70,72)           100.9323         estimate D2E/DX2                !
 ! A243  A(32,70,86)           113.3947         estimate D2E/DX2                !
 ! A244  A(68,70,72)           110.6364         estimate D2E/DX2                !
 ! A245  A(68,70,86)           108.3757         estimate D2E/DX2                !
 ! A246  A(72,70,86)           113.0026         estimate D2E/DX2                !
 ! A247  A(69,71,72)           123.3617         estimate D2E/DX2                !
 ! A248  A(69,71,73)           109.4551         estimate D2E/DX2                !
 ! A249  A(72,71,73)           118.7398         estimate D2E/DX2                !
 ! A250  A(70,72,71)           122.1068         estimate D2E/DX2                !
 ! A251  A(70,72,74)           111.4497         estimate D2E/DX2                !
 ! A252  A(71,72,74)           120.3176         estimate D2E/DX2                !
 ! A253  A(33,73,71)           109.2144         estimate D2E/DX2                !
 ! A254  A(33,73,75)           119.2515         estimate D2E/DX2                !
 ! A255  A(71,73,75)           120.7066         estimate D2E/DX2                !
 ! A256  A(34,74,72)           111.5518         estimate D2E/DX2                !
 ! A257  A(34,74,76)           121.0636         estimate D2E/DX2                !
 ! A258  A(72,74,76)           121.1521         estimate D2E/DX2                !
 ! A259  A(73,75,76)           120.3933         estimate D2E/DX2                !
 ! A260  A(73,75,77)           119.7374         estimate D2E/DX2                !
 ! A261  A(76,75,77)           109.7997         estimate D2E/DX2                !
 ! A262  A(74,76,75)           118.474          estimate D2E/DX2                !
 ! A263  A(74,76,78)           123.5482         estimate D2E/DX2                !
 ! A264  A(75,76,78)           109.8075         estimate D2E/DX2                !
 ! A265  A(37,77,75)           121.5831         estimate D2E/DX2                !
 ! A266  A(37,77,81)           122.9325         estimate D2E/DX2                !
 ! A267  A(75,77,81)           107.2551         estimate D2E/DX2                !
 ! A268  A(38,78,76)           110.4366         estimate D2E/DX2                !
 ! A269  A(38,78,81)           109.8544         estimate D2E/DX2                !
 ! A270  A(38,78,97)           108.5444         estimate D2E/DX2                !
 ! A271  A(76,78,81)           101.3137         estimate D2E/DX2                !
 ! A272  A(76,78,97)           113.3367         estimate D2E/DX2                !
 ! A273  A(81,78,97)           113.2044         estimate D2E/DX2                !
 ! A274  A(39,79,40)           118.6405         estimate D2E/DX2                !
 ! A275  A(39,79,82)           122.5266         estimate D2E/DX2                !
 ! A276  A(40,79,82)           107.7141         estimate D2E/DX2                !
 ! A277  A(41,80,42)           109.3174         estimate D2E/DX2                !
 ! A278  A(41,80,82)           100.7297         estimate D2E/DX2                !
 ! A279  A(41,80,87)           112.0212         estimate D2E/DX2                !
 ! A280  A(42,80,82)           110.6315         estimate D2E/DX2                !
 ! A281  A(42,80,87)           110.3854         estimate D2E/DX2                !
 ! A282  A(82,80,87)           113.3686         estimate D2E/DX2                !
 ! A283  A(77,81,78)           111.3785         estimate D2E/DX2                !
 ! A284  A(77,81,82)           119.1476         estimate D2E/DX2                !
 ! A285  A(78,81,82)           122.4534         estimate D2E/DX2                !
 ! A286  A(79,82,80)           111.3114         estimate D2E/DX2                !
 ! A287  A(79,82,81)           119.3397         estimate D2E/DX2                !
 ! A288  A(80,82,81)           122.28           estimate D2E/DX2                !
 ! A289  A(55,83,57)           118.9625         estimate D2E/DX2                !
 ! A290  A(55,83,84)           116.5591         estimate D2E/DX2                !
 ! A291  A(57,83,84)           119.3712         estimate D2E/DX2                !
 ! A292  A(56,84,58)           116.1192         estimate D2E/DX2                !
 ! A293  A(56,84,83)           119.6992         estimate D2E/DX2                !
 ! A294  A(58,84,83)           118.7039         estimate D2E/DX2                !
 ! D1    D(17,1,5,9)            20.6863         estimate D2E/DX2                !
 ! D2    D(17,1,5,29)         -146.6087         estimate D2E/DX2                !
 ! D3    D(23,1,5,9)           133.347          estimate D2E/DX2                !
 ! D4    D(23,1,5,29)          -33.948          estimate D2E/DX2                !
 ! D5    D(95,1,5,9)          -104.0594         estimate D2E/DX2                !
 ! D6    D(95,1,5,29)           88.6456         estimate D2E/DX2                !
 ! D7    D(5,1,17,15)          -20.9668         estimate D2E/DX2                !
 ! D8    D(5,1,17,19)          125.3362         estimate D2E/DX2                !
 ! D9    D(23,1,17,15)        -139.0776         estimate D2E/DX2                !
 ! D10   D(23,1,17,19)           7.2255         estimate D2E/DX2                !
 ! D11   D(95,1,17,15)         101.7828         estimate D2E/DX2                !
 ! D12   D(95,1,17,19)        -111.9142         estimate D2E/DX2                !
 ! D13   D(5,1,23,21)         -123.8426         estimate D2E/DX2                !
 ! D14   D(5,1,23,25)           32.5643         estimate D2E/DX2                !
 ! D15   D(17,1,23,21)          -3.8056         estimate D2E/DX2                !
 ! D16   D(17,1,23,25)         152.6013         estimate D2E/DX2                !
 ! D17   D(95,1,23,21)         115.542          estimate D2E/DX2                !
 ! D18   D(95,1,23,25)         -88.0511         estimate D2E/DX2                !
 ! D19   D(43,2,6,10)         -138.536          estimate D2E/DX2                !
 ! D20   D(43,2,6,15)            9.6788         estimate D2E/DX2                !
 ! D21   D(44,2,6,10)          -21.8891         estimate D2E/DX2                !
 ! D22   D(44,2,6,15)          126.3257         estimate D2E/DX2                !
 ! D23   D(91,2,6,10)          100.9709         estimate D2E/DX2                !
 ! D24   D(91,2,6,15)         -110.8143         estimate D2E/DX2                !
 ! D25   D(6,2,43,13)           -7.2646         estimate D2E/DX2                !
 ! D26   D(6,2,43,39)          149.1033         estimate D2E/DX2                !
 ! D27   D(44,2,43,13)        -124.4472         estimate D2E/DX2                !
 ! D28   D(44,2,43,39)          31.9206         estimate D2E/DX2                !
 ! D29   D(91,2,43,13)         113.7669         estimate D2E/DX2                !
 ! D30   D(91,2,43,39)         -89.8652         estimate D2E/DX2                !
 ! D31   D(6,2,44,40)         -147.7836         estimate D2E/DX2                !
 ! D32   D(6,2,44,47)           19.1483         estimate D2E/DX2                !
 ! D33   D(43,2,44,40)         -36.4679         estimate D2E/DX2                !
 ! D34   D(43,2,44,47)         130.464          estimate D2E/DX2                !
 ! D35   D(91,2,44,40)          87.1424         estimate D2E/DX2                !
 ! D36   D(91,2,44,47)        -105.9257         estimate D2E/DX2                !
 ! D37   D(18,3,7,12)            6.6432         estimate D2E/DX2                !
 ! D38   D(18,3,7,30)          151.3804         estimate D2E/DX2                !
 ! D39   D(26,3,7,12)         -143.4201         estimate D2E/DX2                !
 ! D40   D(26,3,7,30)            1.3172         estimate D2E/DX2                !
 ! D41   D(7,3,18,16)            5.0774         estimate D2E/DX2                !
 ! D42   D(7,3,18,20)         -144.7638         estimate D2E/DX2                !
 ! D43   D(26,3,18,16)         151.4822         estimate D2E/DX2                !
 ! D44   D(26,3,18,20)           1.6409         estimate D2E/DX2                !
 ! D45   D(7,3,26,24)          147.057          estimate D2E/DX2                !
 ! D46   D(7,3,26,28)           -4.0167         estimate D2E/DX2                !
 ! D47   D(18,3,26,24)          -3.2879         estimate D2E/DX2                !
 ! D48   D(18,3,26,28)        -154.3616         estimate D2E/DX2                !
 ! D49   D(45,4,8,11)           23.6739         estimate D2E/DX2                !
 ! D50   D(45,4,8,16)         -125.5662         estimate D2E/DX2                !
 ! D51   D(46,4,8,11)          139.1919         estimate D2E/DX2                !
 ! D52   D(46,4,8,16)          -10.0482         estimate D2E/DX2                !
 ! D53   D(88,4,8,11)         -100.5843         estimate D2E/DX2                !
 ! D54   D(88,4,8,16)          110.1756         estimate D2E/DX2                !
 ! D55   D(8,4,45,41)          144.5471         estimate D2E/DX2                !
 ! D56   D(8,4,45,48)          -21.281          estimate D2E/DX2                !
 ! D57   D(46,4,45,41)          34.2592         estimate D2E/DX2                !
 ! D58   D(46,4,45,48)        -131.5689         estimate D2E/DX2                !
 ! D59   D(88,4,45,41)         -89.4789         estimate D2E/DX2                !
 ! D60   D(88,4,45,48)         104.693          estimate D2E/DX2                !
 ! D61   D(8,4,46,14)           11.1399         estimate D2E/DX2                !
 ! D62   D(8,4,46,42)         -145.7028         estimate D2E/DX2                !
 ! D63   D(45,4,46,14)         127.4661         estimate D2E/DX2                !
 ! D64   D(45,4,46,42)         -29.3766         estimate D2E/DX2                !
 ! D65   D(88,4,46,14)        -109.901          estimate D2E/DX2                !
 ! D66   D(88,4,46,42)          93.2563         estimate D2E/DX2                !
 ! D67   D(1,5,9,13)           -10.5912         estimate D2E/DX2                !
 ! D68   D(1,5,9,35)          -168.4077         estimate D2E/DX2                !
 ! D69   D(29,5,9,13)          156.3554         estimate D2E/DX2                !
 ! D70   D(29,5,9,35)           -1.4611         estimate D2E/DX2                !
 ! D71   D(1,5,29,27)           10.6526         estimate D2E/DX2                !
 ! D72   D(1,5,29,31)          174.2665         estimate D2E/DX2                !
 ! D73   D(9,5,29,27)         -156.671          estimate D2E/DX2                !
 ! D74   D(9,5,29,31)            6.9429         estimate D2E/DX2                !
 ! D75   D(2,6,10,49)           -0.7476         estimate D2E/DX2                !
 ! D76   D(2,6,10,53)          144.574          estimate D2E/DX2                !
 ! D77   D(15,6,10,49)        -145.7432         estimate D2E/DX2                !
 ! D78   D(15,6,10,53)          -0.4216         estimate D2E/DX2                !
 ! D79   D(2,6,15,13)           -8.9782         estimate D2E/DX2                !
 ! D80   D(2,6,15,17)         -154.5706         estimate D2E/DX2                !
 ! D81   D(10,6,15,13)         139.9613         estimate D2E/DX2                !
 ! D82   D(10,6,15,17)          -5.6311         estimate D2E/DX2                !
 ! D83   D(3,7,12,14)          -11.8485         estimate D2E/DX2                !
 ! D84   D(3,7,12,36)          143.8451         estimate D2E/DX2                !
 ! D85   D(30,7,12,14)        -152.8532         estimate D2E/DX2                !
 ! D86   D(30,7,12,36)           2.8404         estimate D2E/DX2                !
 ! D87   D(3,7,30,28)            1.8593         estimate D2E/DX2                !
 ! D88   D(3,7,30,32)         -152.6611         estimate D2E/DX2                !
 ! D89   D(12,7,30,28)         147.2692         estimate D2E/DX2                !
 ! D90   D(12,7,30,32)          -7.2512         estimate D2E/DX2                !
 ! D91   D(4,8,11,50)            1.9576         estimate D2E/DX2                !
 ! D92   D(4,8,11,54)         -145.8592         estimate D2E/DX2                !
 ! D93   D(16,8,11,50)         148.5027         estimate D2E/DX2                !
 ! D94   D(16,8,11,54)           0.686          estimate D2E/DX2                !
 ! D95   D(4,8,16,14)            5.6407         estimate D2E/DX2                !
 ! D96   D(4,8,16,18)          152.7784         estimate D2E/DX2                !
 ! D97   D(11,8,16,14)        -144.4929         estimate D2E/DX2                !
 ! D98   D(11,8,16,18)           2.6448         estimate D2E/DX2                !
 ! D99   D(5,9,13,15)           -1.3056         estimate D2E/DX2                !
 ! D100  D(5,9,13,43)         -146.3807         estimate D2E/DX2                !
 ! D101  D(35,9,13,15)         157.387          estimate D2E/DX2                !
 ! D102  D(35,9,13,43)          12.312          estimate D2E/DX2                !
 ! D103  D(5,9,35,33)           -6.7181         estimate D2E/DX2                !
 ! D104  D(5,9,35,37)          150.059          estimate D2E/DX2                !
 ! D105  D(13,9,35,33)        -165.1441         estimate D2E/DX2                !
 ! D106  D(13,9,35,37)          -8.367          estimate D2E/DX2                !
 ! D107  D(6,10,49,47)          26.1298         estimate D2E/DX2                !
 ! D108  D(6,10,49,51)         141.5056         estimate D2E/DX2                !
 ! D109  D(6,10,49,90)         -96.3072         estimate D2E/DX2                !
 ! D110  D(53,10,49,47)       -121.7105         estimate D2E/DX2                !
 ! D111  D(53,10,49,51)         -6.3348         estimate D2E/DX2                !
 ! D112  D(53,10,49,90)        115.8524         estimate D2E/DX2                !
 ! D113  D(6,10,53,19)           3.4074         estimate D2E/DX2                !
 ! D114  D(6,10,53,55)        -141.4629         estimate D2E/DX2                !
 ! D115  D(49,10,53,19)        153.1976         estimate D2E/DX2                !
 ! D116  D(49,10,53,55)          8.3273         estimate D2E/DX2                !
 ! D117  D(8,11,50,48)         -29.7238         estimate D2E/DX2                !
 ! D118  D(8,11,50,52)        -145.3124         estimate D2E/DX2                !
 ! D119  D(8,11,50,89)          92.7809         estimate D2E/DX2                !
 ! D120  D(54,11,50,48)        120.4389         estimate D2E/DX2                !
 ! D121  D(54,11,50,52)          4.8503         estimate D2E/DX2                !
 ! D122  D(54,11,50,89)       -117.0564         estimate D2E/DX2                !
 ! D123  D(8,11,54,20)          -2.5684         estimate D2E/DX2                !
 ! D124  D(8,11,54,56)         146.595          estimate D2E/DX2                !
 ! D125  D(50,11,54,20)       -153.9828         estimate D2E/DX2                !
 ! D126  D(50,11,54,56)         -4.8194         estimate D2E/DX2                !
 ! D127  D(7,12,14,16)           5.9072         estimate D2E/DX2                !
 ! D128  D(7,12,14,46)         154.4654         estimate D2E/DX2                !
 ! D129  D(36,12,14,16)       -150.4003         estimate D2E/DX2                !
 ! D130  D(36,12,14,46)         -1.8421         estimate D2E/DX2                !
 ! D131  D(7,12,36,34)          16.7714         estimate D2E/DX2                !
 ! D132  D(7,12,36,38)        -151.2198         estimate D2E/DX2                !
 ! D133  D(14,12,36,34)        171.7269         estimate D2E/DX2                !
 ! D134  D(14,12,36,38)          3.7357         estimate D2E/DX2                !
 ! D135  D(9,13,15,6)         -145.0258         estimate D2E/DX2                !
 ! D136  D(9,13,15,17)           1.4468         estimate D2E/DX2                !
 ! D137  D(43,13,15,6)           4.1465         estimate D2E/DX2                !
 ! D138  D(43,13,15,17)        150.6191         estimate D2E/DX2                !
 ! D139  D(9,13,43,2)          151.0532         estimate D2E/DX2                !
 ! D140  D(9,13,43,39)          -5.8687         estimate D2E/DX2                !
 ! D141  D(15,13,43,2)           2.2547         estimate D2E/DX2                !
 ! D142  D(15,13,43,39)       -154.6672         estimate D2E/DX2                !
 ! D143  D(12,14,16,8)         153.6427         estimate D2E/DX2                !
 ! D144  D(12,14,16,18)          5.6348         estimate D2E/DX2                !
 ! D145  D(46,14,16,8)           1.8609         estimate D2E/DX2                !
 ! D146  D(46,14,16,18)       -146.147          estimate D2E/DX2                !
 ! D147  D(12,14,46,4)        -160.8469         estimate D2E/DX2                !
 ! D148  D(12,14,46,42)         -2.3171         estimate D2E/DX2                !
 ! D149  D(16,14,46,4)          -8.5481         estimate D2E/DX2                !
 ! D150  D(16,14,46,42)        149.9817         estimate D2E/DX2                !
 ! D151  D(6,15,17,1)          152.3798         estimate D2E/DX2                !
 ! D152  D(6,15,17,19)           8.3247         estimate D2E/DX2                !
 ! D153  D(13,15,17,1)          10.6658         estimate D2E/DX2                !
 ! D154  D(13,15,17,19)       -133.3894         estimate D2E/DX2                !
 ! D155  D(8,16,18,3)         -154.1749         estimate D2E/DX2                !
 ! D156  D(8,16,18,20)          -3.9947         estimate D2E/DX2                !
 ! D157  D(14,16,18,3)         -10.9273         estimate D2E/DX2                !
 ! D158  D(14,16,18,20)        139.2529         estimate D2E/DX2                !
 ! D159  D(1,17,19,21)          -8.3087         estimate D2E/DX2                !
 ! D160  D(1,17,19,53)        -153.1987         estimate D2E/DX2                !
 ! D161  D(15,17,19,21)        139.7079         estimate D2E/DX2                !
 ! D162  D(15,17,19,53)         -5.1821         estimate D2E/DX2                !
 ! D163  D(3,18,20,22)           1.9028         estimate D2E/DX2                !
 ! D164  D(3,18,20,54)         151.4024         estimate D2E/DX2                !
 ! D165  D(16,18,20,22)       -147.4538         estimate D2E/DX2                !
 ! D166  D(16,18,20,54)          2.0458         estimate D2E/DX2                !
 ! D167  D(17,19,21,23)          5.5308         estimate D2E/DX2                !
 ! D168  D(17,19,21,57)       -140.629          estimate D2E/DX2                !
 ! D169  D(53,19,21,23)        150.3472         estimate D2E/DX2                !
 ! D170  D(53,19,21,57)          4.1874         estimate D2E/DX2                !
 ! D171  D(17,19,53,10)         -0.6084         estimate D2E/DX2                !
 ! D172  D(17,19,53,55)        141.0583         estimate D2E/DX2                !
 ! D173  D(21,19,53,10)       -141.8409         estimate D2E/DX2                !
 ! D174  D(21,19,53,55)         -0.1742         estimate D2E/DX2                !
 ! D175  D(18,20,22,24)         -3.9567         estimate D2E/DX2                !
 ! D176  D(18,20,22,58)        140.3517         estimate D2E/DX2                !
 ! D177  D(54,20,22,24)       -154.0651         estimate D2E/DX2                !
 ! D178  D(54,20,22,58)         -9.7566         estimate D2E/DX2                !
 ! D179  D(18,20,54,11)          1.1487         estimate D2E/DX2                !
 ! D180  D(18,20,54,56)       -144.0357         estimate D2E/DX2                !
 ! D181  D(22,20,54,11)        151.0862         estimate D2E/DX2                !
 ! D182  D(22,20,54,56)          5.9018         estimate D2E/DX2                !
 ! D183  D(19,21,23,1)          -0.8109         estimate D2E/DX2                !
 ! D184  D(19,21,23,25)       -157.5474         estimate D2E/DX2                !
 ! D185  D(57,21,23,1)         145.5448         estimate D2E/DX2                !
 ! D186  D(57,21,23,25)        -11.1918         estimate D2E/DX2                !
 ! D187  D(19,21,57,59)        152.3423         estimate D2E/DX2                !
 ! D188  D(19,21,57,83)         -4.5596         estimate D2E/DX2                !
 ! D189  D(23,21,57,59)         10.8072         estimate D2E/DX2                !
 ! D190  D(23,21,57,83)       -146.0947         estimate D2E/DX2                !
 ! D191  D(20,22,24,26)          2.3923         estimate D2E/DX2                !
 ! D192  D(20,22,24,62)        153.238          estimate D2E/DX2                !
 ! D193  D(58,22,24,26)       -145.8444         estimate D2E/DX2                !
 ! D194  D(58,22,24,62)          5.0012         estimate D2E/DX2                !
 ! D195  D(20,22,58,60)       -146.4129         estimate D2E/DX2                !
 ! D196  D(20,22,58,84)          4.265          estimate D2E/DX2                !
 ! D197  D(24,22,58,60)          2.0959         estimate D2E/DX2                !
 ! D198  D(24,22,58,84)        152.7738         estimate D2E/DX2                !
 ! D199  D(1,23,25,27)          -5.2096         estimate D2E/DX2                !
 ! D200  D(1,23,25,61)        -157.9696         estimate D2E/DX2                !
 ! D201  D(21,23,25,27)        148.609          estimate D2E/DX2                !
 ! D202  D(21,23,25,61)         -4.151          estimate D2E/DX2                !
 ! D203  D(22,24,26,3)           1.2666         estimate D2E/DX2                !
 ! D204  D(22,24,26,28)        148.6003         estimate D2E/DX2                !
 ! D205  D(62,24,26,3)        -146.0387         estimate D2E/DX2                !
 ! D206  D(62,24,26,28)          1.295          estimate D2E/DX2                !
 ! D207  D(22,24,62,60)         -9.3647         estimate D2E/DX2                !
 ! D208  D(22,24,62,64)       -125.2716         estimate D2E/DX2                !
 ! D209  D(22,24,62,94)        111.1798         estimate D2E/DX2                !
 ! D210  D(26,24,62,60)        140.8432         estimate D2E/DX2                !
 ! D211  D(26,24,62,64)         24.9363         estimate D2E/DX2                !
 ! D212  D(26,24,62,94)        -98.6123         estimate D2E/DX2                !
 ! D213  D(23,25,27,29)        -20.1035         estimate D2E/DX2                !
 ! D214  D(23,25,27,65)       -134.288          estimate D2E/DX2                !
 ! D215  D(23,25,27,93)        105.9195         estimate D2E/DX2                !
 ! D216  D(61,25,27,29)        134.7877         estimate D2E/DX2                !
 ! D217  D(61,25,27,65)         20.6032         estimate D2E/DX2                !
 ! D218  D(61,25,27,93)        -99.1892         estimate D2E/DX2                !
 ! D219  D(23,25,61,59)         17.5455         estimate D2E/DX2                !
 ! D220  D(23,25,61,63)        134.1919         estimate D2E/DX2                !
 ! D221  D(23,25,61,96)       -107.8127         estimate D2E/DX2                !
 ! D222  D(27,25,61,59)       -137.5158         estimate D2E/DX2                !
 ! D223  D(27,25,61,63)        -20.8694         estimate D2E/DX2                !
 ! D224  D(27,25,61,96)         97.126          estimate D2E/DX2                !
 ! D225  D(3,26,28,30)           4.7922         estimate D2E/DX2                !
 ! D226  D(3,26,28,66)         120.5454         estimate D2E/DX2                !
 ! D227  D(3,26,28,85)        -116.6136         estimate D2E/DX2                !
 ! D228  D(24,26,28,30)       -145.0895         estimate D2E/DX2                !
 ! D229  D(24,26,28,66)        -29.3364         estimate D2E/DX2                !
 ! D230  D(24,26,28,85)         93.5047         estimate D2E/DX2                !
 ! D231  D(25,27,29,5)          17.0844         estimate D2E/DX2                !
 ! D232  D(25,27,29,31)       -146.9989         estimate D2E/DX2                !
 ! D233  D(65,27,29,5)         126.3662         estimate D2E/DX2                !
 ! D234  D(65,27,29,31)        -37.7172         estimate D2E/DX2                !
 ! D235  D(93,27,29,5)        -110.2996         estimate D2E/DX2                !
 ! D236  D(93,27,29,31)         85.617          estimate D2E/DX2                !
 ! D237  D(25,27,65,63)        -11.886          estimate D2E/DX2                !
 ! D238  D(25,27,65,67)        150.6239         estimate D2E/DX2                !
 ! D239  D(29,27,65,63)       -129.0546         estimate D2E/DX2                !
 ! D240  D(29,27,65,67)         33.4553         estimate D2E/DX2                !
 ! D241  D(93,27,65,63)        108.5785         estimate D2E/DX2                !
 ! D242  D(93,27,65,67)        -88.9116         estimate D2E/DX2                !
 ! D243  D(26,28,30,7)          -3.9866         estimate D2E/DX2                !
 ! D244  D(26,28,30,32)        149.7834         estimate D2E/DX2                !
 ! D245  D(66,28,30,7)        -120.3955         estimate D2E/DX2                !
 ! D246  D(66,28,30,32)         33.3746         estimate D2E/DX2                !
 ! D247  D(85,28,30,7)         117.5708         estimate D2E/DX2                !
 ! D248  D(85,28,30,32)        -88.6591         estimate D2E/DX2                !
 ! D249  D(26,28,66,64)         30.0854         estimate D2E/DX2                !
 ! D250  D(26,28,66,68)       -140.2554         estimate D2E/DX2                !
 ! D251  D(30,28,66,64)        140.6945         estimate D2E/DX2                !
 ! D252  D(30,28,66,68)        -29.6464         estimate D2E/DX2                !
 ! D253  D(85,28,66,64)        -95.0477         estimate D2E/DX2                !
 ! D254  D(85,28,66,68)         94.6114         estimate D2E/DX2                !
 ! D255  D(5,29,31,33)          -4.011          estimate D2E/DX2                !
 ! D256  D(5,29,31,69)        -158.2478         estimate D2E/DX2                !
 ! D257  D(27,29,31,33)        160.7786         estimate D2E/DX2                !
 ! D258  D(27,29,31,69)          6.5418         estimate D2E/DX2                !
 ! D259  D(7,30,32,34)          -9.0658         estimate D2E/DX2                !
 ! D260  D(7,30,32,70)         147.4146         estimate D2E/DX2                !
 ! D261  D(28,30,32,34)       -160.2433         estimate D2E/DX2                !
 ! D262  D(28,30,32,70)         -3.7629         estimate D2E/DX2                !
 ! D263  D(29,31,33,35)         -4.6277         estimate D2E/DX2                !
 ! D264  D(29,31,33,73)       -155.1528         estimate D2E/DX2                !
 ! D265  D(69,31,33,35)        153.0603         estimate D2E/DX2                !
 ! D266  D(69,31,33,73)          2.5351         estimate D2E/DX2                !
 ! D267  D(29,31,69,67)         32.6309         estimate D2E/DX2                !
 ! D268  D(29,31,69,71)        148.6491         estimate D2E/DX2                !
 ! D269  D(29,31,69,92)        -89.8582         estimate D2E/DX2                !
 ! D270  D(33,31,69,67)       -123.924          estimate D2E/DX2                !
 ! D271  D(33,31,69,71)         -7.9058         estimate D2E/DX2                !
 ! D272  D(33,31,69,92)        113.5869         estimate D2E/DX2                !
 ! D273  D(30,32,34,36)         27.3016         estimate D2E/DX2                !
 ! D274  D(30,32,34,74)        145.9168         estimate D2E/DX2                !
 ! D275  D(30,32,34,98)        -94.3578         estimate D2E/DX2                !
 ! D276  D(70,32,34,36)       -130.7893         estimate D2E/DX2                !
[...]
 Alpha virt. eigenvalues --    1.49309   1.49953   1.50328   1.50716   1.51420
 Alpha virt. eigenvalues --    1.52242   1.53194   1.53636   1.54122   1.55062
 Alpha virt. eigenvalues --    1.55339   1.55803   1.56138   1.56892   1.57770
 Alpha virt. eigenvalues --    1.58194   1.58595   1.58823   1.59505   1.59941
 Alpha virt. eigenvalues --    1.60383   1.60688   1.61032   1.61196   1.61961
 Alpha virt. eigenvalues --    1.62041   1.62189   1.62786   1.62973   1.63355
 Alpha virt. eigenvalues --    1.63652   1.63768   1.64207   1.64263   1.64446
 Alpha virt. eigenvalues --    1.64698   1.64932   1.65096   1.65351   1.65639
 Alpha virt. eigenvalues --    1.65910   1.66221   1.66315   1.66514   1.66612
 Alpha virt. eigenvalues --    1.67134   1.67350   1.67433   1.67893   1.68129
 Alpha virt. eigenvalues --    1.68326   1.68523   1.68658   1.68940   1.69078
 Alpha virt. eigenvalues --    1.69401   1.69609   1.69937   1.69958   1.70150
 Alpha virt. eigenvalues --    1.70703   1.70801   1.71009   1.71076   1.71303
 Alpha virt. eigenvalues --    1.71888   1.72131   1.72366   1.72480   1.72782
 Alpha virt. eigenvalues --    1.72897   1.73099   1.73485   1.73768   1.73982
 Alpha virt. eigenvalues --    1.74287   1.74472   1.74640   1.74815   1.75095
 Alpha virt. eigenvalues --    1.75357   1.75593   1.75841   1.75939   1.76016
 Alpha virt. eigenvalues --    1.76196   1.76479   1.76631   1.77020   1.77105
 Alpha virt. eigenvalues --    1.77223   1.77339   1.77602   1.77708   1.77875
 Alpha virt. eigenvalues --    1.77969   1.78527   1.78717   1.78827   1.79241
 Alpha virt. eigenvalues --    1.79297   1.79560   1.79840   1.80197   1.80401
 Alpha virt. eigenvalues --    1.80447   1.80827   1.81075   1.81441   1.81746
 Alpha virt. eigenvalues --    1.82032   1.82436   1.82637   1.82859   1.83112
 Alpha virt. eigenvalues --    1.83628   1.83789   1.84379   1.84707   1.84979
 Alpha virt. eigenvalues --    1.85428   1.85633   1.85759   1.86306   1.86443
 Alpha virt. eigenvalues --    1.86830   1.87131   1.87666   1.87873   1.88033
 Alpha virt. eigenvalues --    1.88100   1.88922   1.88958   1.89108   1.89692
 Alpha virt. eigenvalues --    1.90186   1.90456   1.90809   1.91150   1.91244
 Alpha virt. eigenvalues --    1.91443   1.91908   1.92235   1.92429   1.93080
 Alpha virt. eigenvalues --    1.93609   1.93713   1.93957   1.94389   1.94511
 Alpha virt. eigenvalues --    1.95227   1.95373   1.96108   1.96272   1.96816
 Alpha virt. eigenvalues --    1.97117   1.97415   1.97698   1.98088   1.98382
 Alpha virt. eigenvalues --    1.98849   1.99130   1.99733   2.00084   2.00196
 Alpha virt. eigenvalues --    2.00712   2.00776   2.01096   2.01657   2.01773
 Alpha virt. eigenvalues --    2.02092   2.02340   2.02712   2.02960   2.03234
 Alpha virt. eigenvalues --    2.03891   2.03990   2.04345   2.04650   2.05151
 Alpha virt. eigenvalues --    2.05581   2.06145   2.06675   2.07000   2.07230
 Alpha virt. eigenvalues --    2.07324   2.07624   2.07866   2.08275   2.08938
 Alpha virt. eigenvalues --    2.09136   2.09548   2.09608   2.09819   2.10455
 Alpha virt. eigenvalues --    2.11167   2.11759   2.11877   2.11992   2.12336
 Alpha virt. eigenvalues --    2.12571   2.12870   2.13159   2.13863   2.14092
 Alpha virt. eigenvalues --    2.14358   2.14770   2.15247   2.15688   2.16274
 Alpha virt. eigenvalues --    2.16471   2.16754   2.17487   2.17606   2.18279
 Alpha virt. eigenvalues --    2.18409   2.19012   2.19104   2.19575   2.20001
 Alpha virt. eigenvalues --    2.20154   2.20504   2.20811   2.21090   2.21451
 Alpha virt. eigenvalues --    2.22121   2.22972   2.23233   2.23412   2.23794
 Alpha virt. eigenvalues --    2.24153   2.24561   2.24808   2.25290   2.25830
 Alpha virt. eigenvalues --    2.25987   2.26836   2.26969   2.27200   2.27912
 Alpha virt. eigenvalues --    2.28386   2.28632   2.29040   2.29320   2.29872
 Alpha virt. eigenvalues --    2.30143   2.30356   2.31135   2.31597   2.31702
 Alpha virt. eigenvalues --    2.32423   2.32958   2.33134   2.33919   2.34180
 Alpha virt. eigenvalues --    2.34699   2.35262   2.35769   2.36282   2.36697
 Alpha virt. eigenvalues --    2.37598   2.38236   2.38906   2.39196   2.40068
 Alpha virt. eigenvalues --    2.40486   2.40842   2.41041   2.41932   2.42296
 Alpha virt. eigenvalues --    2.42503   2.42915   2.43768   2.44100   2.44711
 Alpha virt. eigenvalues --    2.44859   2.45897   2.46155   2.46596   2.46918
 Alpha virt. eigenvalues --    2.47418   2.48066   2.48455   2.49102   2.49330
 Alpha virt. eigenvalues --    2.49882   2.50111   2.50398   2.51305   2.51563
 Alpha virt. eigenvalues --    2.51934   2.52402   2.52885   2.53195   2.53559
 Alpha virt. eigenvalues --    2.53759   2.53991   2.54772   2.55257   2.55507
 Alpha virt. eigenvalues --    2.55804   2.56021   2.56423   2.56956   2.57405
 Alpha virt. eigenvalues --    2.57667   2.57975   2.58407   2.58558   2.59300
 Alpha virt. eigenvalues --    2.59517   2.59568   2.59962   2.60355   2.60480
 Alpha virt. eigenvalues --    2.60766   2.61242   2.61514   2.61744   2.62314
 Alpha virt. eigenvalues --    2.62531   2.62623   2.63144   2.63677   2.64410
 Alpha virt. eigenvalues --    2.64449   2.64861   2.65195   2.65487   2.65723
 Alpha virt. eigenvalues --    2.66304   2.66394   2.66555   2.67095   2.67508
 Alpha virt. eigenvalues --    2.68381   2.68474   2.69087   2.69292   2.69501
 Alpha virt. eigenvalues --    2.69803   2.70118   2.70504   2.70843   2.71090
 Alpha virt. eigenvalues --    2.71287   2.71510   2.71728   2.72128   2.73174
 Alpha virt. eigenvalues --    2.73350   2.73380   2.73995   2.74080   2.74852
 Alpha virt. eigenvalues --    2.74899   2.75362   2.75656   2.76277   2.76426
 Alpha virt. eigenvalues --    2.76945   2.77359   2.77998   2.78096   2.78774
 Alpha virt. eigenvalues --    2.78955   2.79587   2.79901   2.80010   2.80405
 Alpha virt. eigenvalues --    2.81308   2.81433   2.82237   2.82562   2.83095
 Alpha virt. eigenvalues --    2.83344   2.84141   2.84715   2.85219   2.85820
 Alpha virt. eigenvalues --    2.86382   2.86471   2.87069   2.87796   2.88139
 Alpha virt. eigenvalues --    2.88411   2.88916   2.89375   2.89903   2.90960
 Alpha virt. eigenvalues --    2.91309   2.91874   2.92048   2.92963   2.93180
 Alpha virt. eigenvalues --    2.93385   2.94859   2.95462   2.96136   2.96969
 Alpha virt. eigenvalues --    2.97489   2.98409   2.99440   3.00835   3.01326
 Alpha virt. eigenvalues --    3.01914   3.02460   3.04928   3.05461   3.08263
 Alpha virt. eigenvalues --    3.08640   3.09646   3.10448   3.11904   3.12240
 Alpha virt. eigenvalues --    3.13174   3.15464   3.16324   3.16864   3.18385
 Alpha virt. eigenvalues --    3.18891   3.20929   3.21761   3.23147   3.23883
 Alpha virt. eigenvalues --    3.25293   3.27305   3.28090   3.29548   3.32328
 Alpha virt. eigenvalues --    3.33964   3.35928   3.40072   3.41221   3.41884
 Alpha virt. eigenvalues --    3.42468   3.45082   3.48204   3.49696   3.53202
 Alpha virt. eigenvalues --    3.53566   3.59539   4.00742   4.01101   4.01861
 Alpha virt. eigenvalues --    4.02879   4.03375   4.04006   4.04201   4.05131
 Alpha virt. eigenvalues --    4.05932   4.06831   4.07394   4.07867   4.08351
 Alpha virt. eigenvalues --    4.09156   4.10013   4.11087   4.11250   4.11855
 Alpha virt. eigenvalues --    4.12517   4.12815   4.14050   4.14200   4.15242
 Alpha virt. eigenvalues --    4.16395   4.17550   4.18226   4.18667   4.18955
 Alpha virt. eigenvalues --    4.19721   4.20444   4.20949   4.21846   4.22510
 Alpha virt. eigenvalues --    4.23562   4.24720   4.25210   4.25685   4.26399
 Alpha virt. eigenvalues --    4.26499   4.27041   4.27316   4.27753   4.28228
 Alpha virt. eigenvalues --    4.28307   4.28921   4.29139   4.30051   4.31129
 Alpha virt. eigenvalues --    4.31786   4.33300   4.33668   4.34841   4.35938
 Alpha virt. eigenvalues --    4.37018   4.37576   4.39118   4.39842   4.40924
 Alpha virt. eigenvalues --    4.41703   4.42110   4.42253   4.42897   4.43526
 Alpha virt. eigenvalues --    4.44699   4.46302   4.47872   4.48346   4.51195
 Alpha virt. eigenvalues --    4.52244   4.53784   4.54423   4.55685   4.56701
 Alpha virt. eigenvalues --    4.57678   4.58928   4.59612   4.62276   4.63691
 Alpha virt. eigenvalues --    4.64157   4.66163   4.67754   4.71155   4.77137
 Alpha virt. eigenvalues --    4.77736   4.79483   4.80799   4.81781   4.83042
 Alpha virt. eigenvalues --    4.85819   4.91009   4.93325   4.97865   4.98352
 Alpha virt. eigenvalues --    5.04060   5.06387   5.11697   5.13228   5.21150
          Condensed to atoms (all electrons):
 Mulliken charges:
               1
     1  C   -0.360512
     2  C   -0.364581
     3  C    0.013737
     4  C   -0.385025
     5  C    0.090931
     6  C    0.088195
     7  C   -0.010312
     8  C    0.090745
     9  C    0.056510
    10  C    0.096976
    11  C    0.091273
    12  C    0.074745
    13  C   -0.003153
    14  C    0.010055
    15  C    0.036053
    16  C    0.011015
    17  C    0.068236
    18  C    0.045297
    19  C    0.022439
    20  C    0.044034
    21  C   -0.022455
    22  C    0.010321
    23  C    0.112613
    24  C    0.088566
    25  C    0.160055
    26  C    0.092766
    27  C   -0.369493
    28  C   -0.385965
    29  C    0.153672
    30  C    0.115313
    31  C    0.082289
    32  C    0.149408
    33  C    0.006675
    34  C   -0.347271
    35  C    0.034065
    36  C    0.099613
    37  C    0.044754
    38  C    0.122416
    39  C    0.061770
    40  C    0.042895
    41  C    0.080814
    42  C    0.150304
    43  C    0.050656
    44  C    0.120147
    45  C    0.149894
    46  C    0.077615
    47  C    0.124085
    48  C    0.120438
    49  C   -0.377915
    50  C   -0.377280
    51  C    0.091611
    52  C    0.088968
    53  C    0.012448
    54  C    0.008526
    55  C    0.008659
    56  C    0.009872
    57  C    0.064658
    58  C    0.009176
    59  C    0.119950
    60  C    0.078616
    61  C   -0.362046
    62  C   -0.386915
    63  C    0.113860
    64  C    0.146959
    65  C    0.117339
    66  C    0.124424
    67  C    0.144488
    68  C    0.122766
    69  C   -0.387477
    70  C   -0.365272
    71  C    0.085662
    72  C    0.124340
    73  C    0.013922
    74  C    0.124740
    75  C    0.017680
    76  C    0.087923
    77  C    0.005854
    78  C   -0.379568
    79  C   -0.007397
    80  C   -0.385156
    81  C    0.090725
    82  C    0.094223
    83  C    0.040789
    84  C    0.039247
    85  Cl   0.025119
    86  Cl   0.013325
    87  Cl   0.021463
    88  Cl   0.023371
    89  Cl   0.017760
    90  Cl   0.018564
    91  Cl  -0.001957
    92  Cl   0.025705
    93  Cl   0.021432
    94  Cl   0.025788
    95  Cl  -0.002493
    96  Cl  -0.000637
    97  Cl   0.019088
    98  Cl  -0.007542
 Sum of Mulliken charges =  -0.00000
 Mulliken charges with hydrogens summed into heavy atoms:
               1
     1  C   -0.360512
     2  C   -0.364581
     3  C    0.013737
     4  C   -0.385025
     5  C    0.090931
     6  C    0.088195
     7  C   -0.010312
     8  C    0.090745
     9  C    0.056510
    10  C    0.096976
    11  C    0.091273
    12  C    0.074745
    13  C   -0.003153
    14  C    0.010055
    15  C    0.036053
    16  C    0.011015
    17  C    0.068236
    18  C    0.045297
    19  C    0.022439
    20  C    0.044034
    21  C   -0.022455
    22  C    0.010321
    23  C    0.112613
    24  C    0.088566
    25  C    0.160055
    26  C    0.092766
    27  C   -0.369493
    28  C   -0.385965
    29  C    0.153672
    30  C    0.115313
    31  C    0.082289
    32  C    0.149408
    33  C    0.006675
    34  C   -0.347271
    35  C    0.034065
    36  C    0.099613
    37  C    0.044754
    38  C    0.122416
    39  C    0.061770
    40  C    0.042895
    41  C    0.080814
    42  C    0.150304
    43  C    0.050656
    44  C    0.120147
    45  C    0.149894
    46  C    0.077615
    47  C    0.124085
    48  C    0.120438
    49  C   -0.377915
    50  C   -0.377280
    51  C    0.091611
    52  C    0.088968
    53  C    0.012448
    54  C    0.008526
    55  C    0.008659
    56  C    0.009872
    57  C    0.064658
    58  C    0.009176
    59  C    0.119950
    60  C    0.078616
    61  C   -0.362046
    62  C   -0.386915
    63  C    0.113860
    64  C    0.146959
    65  C    0.117339
    66  C    0.124424
    67  C    0.144488
    68  C    0.122766
    69  C   -0.387477
    70  C   -0.365272
    71  C    0.085662
    72  C    0.124340
    73  C    0.013922
    74  C    0.124740
    75  C    0.017680
    76  C    0.087923
    77  C    0.005854
    78  C   -0.379568
    79  C   -0.007397
    80  C   -0.385156
    81  C    0.090725
    82  C    0.094223
    83  C    0.040789
    84  C    0.039247
    85  Cl   0.025119
    86  Cl   0.013325
    87  Cl   0.021463
    88  Cl   0.023371
    89  Cl   0.017760
    90  Cl   0.018564
    91  Cl  -0.001957
    92  Cl   0.025705
    93  Cl   0.021432
    94  Cl   0.025788
    95  Cl  -0.002493
    96  Cl  -0.000637
    97  Cl   0.019088
    98  Cl  -0.007542
 Electronic spatial extent (au):  <R**2>=          67323.5660
 Charge=              0.0000 electrons
 Dipole moment (field-independent basis, Debye):
    X=              2.2250    Y=             -1.0910    Z=              1.0657  Tot=              2.6975
 Quadrupole moment (field-independent basis, Debye-Ang):
   XX=           -696.5938   YY=           -670.0821   ZZ=           -634.6829
   XY=             -4.9309   XZ=              3.9313   YZ=             -2.6493
 Traceless Quadrupole moment (field-independent basis, Debye-Ang):
   XX=            -29.4742   YY=             -2.9625   ZZ=             32.4367
   XY=             -4.9309   XZ=              3.9313   YZ=             -2.6493
 Octapole moment (field-independent basis, Debye-Ang**2):
  XXX=            -48.4449  YYY=            -46.3775  ZZZ=             -4.8168  XYY=             40.7549
  XXY=             30.0320  XXZ=            -18.8059  XZZ=              4.3788  YZZ=             34.1842
  YYZ=             55.5979  XYZ=              5.0264
 Hexadecapole moment (field-independent basis, Debye-Ang**3):
 XXXX=         -38993.7689 YYYY=         -32580.3787 ZZZZ=         -23441.1278 XXXY=            181.9900
 XXXZ=            -86.5199 YYYX=             14.3737 YYYZ=              6.1631 ZZZX=             75.7544
 ZZZY=            -22.6182 XXYY=         -12115.6961 XXZZ=         -10555.1981 YYZZ=          -9346.5769
 XXYZ=            -33.9189 YYXZ=             36.1901 ZZXY=             -4.9728
 N-N= 2.598051114861D+04 E-N=-7.466477571398D+04  KE= 9.594211258998D+03
 No NMR shielding tensors so no spin-rotation constants.
 Leave Link  601 at Mon Jun 27 19:25:03 2022, MaxMem=  1342177280 cpu:              27.7 elap:               1.4
 (Enter /home/mkliu/g16/l9999.exe)
 1\1\GINC-NODE03\FOpt\RB3LYP\6-31G(d,p)\C84Cl14\MKLIU\27-Jun-2022\0\\#P
  opt b3lyp/6-31G(d, p) empiricaldispersion=GD3\\force\\0,1\C,8.4294262
 541,18.6354829375,10.8183321524\C,12.5957906861,19.9788199447,8.910518
 0348\C,8.2678118225,26.8366222889,10.5011614825\C,12.5275134636,25.754
 1886919,8.919267915\C,8.0187076343,19.1396553249,9.4388902709\C,12.097
 0823451,19.4749062851,10.2421935816\C,7.9634341598,26.823157307,9.1295
 555375\C,11.914520043,26.1855000286,10.2335019814\C,8.9823618265,19.23
 97340197,8.3878674221\C,12.3729555078,20.1203498736,11.412023819\C,12.
 1698382472,25.5364876535,11.4015035985\C,8.9786631157,26.6016031203,8.
 1511707989\C,10.3823146154,19.0743788845,8.6990489001\C,10.3086532066,
 26.646597077,8.6180280854\C,10.8284227317,18.8266433136,10.0629861237\
 C,10.6320084599,26.7731670322,10.0123110095\C,9.9127683532,18.73501476
 85,11.0756649967\C,9.6152275466,26.756414341,10.9875952144\C,10.164501
 3367,19.4549817319,12.2822202362\C,9.8693707206,26.041008065,12.215586
 2615\C,8.9516007853,20.0183980705,12.7670866854\C,8.7684133448,25.4115
 890079,12.8621823434\C,7.8724201574,19.5380077101,11.9122624678\C,7.42
 55537093,25.5457223749,12.3658101783\C,6.7154884917,20.1917787914,11.7
 896654243\C,7.1748617089,26.2451329742,11.2347686707\C,5.9170438997,20
 .1596390268,10.5164653301\C,6.0378685918,25.9024707219,10.292338396\C,
 6.7575050695,19.7609005561,9.3094737269\C,6.6512287718,26.2434124827,8
 .9493438508\C,6.4139253067,20.3465271524,8.0952910223\C,6.3144246605,2
 5.6240159979,7.8143796703\C,7.3323819276,20.4029314387,7.0352115548\C,
 7.216158565,25.6557694405,6.5954095212\C,8.6660352758,19.9485608476,7.
 177501685\C,8.6907520409,25.8538172676,6.9620002691\C,9.7127470974,20.
 6219650784,6.4135270099\C,9.7168622734,25.1267921242,6.3422048954\C,11
 .0639001249,20.58853543,6.9027240113\C,12.7419619407,22.1814906136,7.7
 976299868\C,12.7747817395,23.5801667232,7.7805649636\C,11.0551940454,2
 5.1518299067,6.8686781168\C,11.3679127201,19.759863287,8.0188192401\C,
 12.9501120068,21.4568816681,8.9713043255\C,12.9387315653,24.2913782967
 ,8.9605918457\C,11.3404644659,25.9421346737,7.96288748\C,13.1819629591
 ,22.1631493832,10.1709342046\C,13.1565453303,23.5827719937,10.17002314
 48\C,13.2177557774,21.3842319765,11.4943012348\C,13.1184625655,24.3526
 769256,11.4952127909\C,12.4825628303,22.1662612662,12.5700313033\C,12.
 4412318587,23.5212824465,12.5655235706\C,11.3760772759,20.1407844813,1
 2.4410560883\C,11.1413802417,25.4368070671,12.3942285651\C,11.37641918
 57,21.4104347242,13.0803162854\C,11.2878061837,24.1903443154,13.076005
 6996\C,8.9107892564,21.3071773441,13.3326724124\C,8.904992196,24.13948
 35889,13.4702751513\C,7.6624487474,22.0495153021,13.2266035629\C,7.676
 8676057,23.4126939641,13.3324989735\C,6.4230801227,21.4137103522,12.61
 75646669\C,6.5995006243,24.3461237819,12.7690932542\C,5.8255456626,22.
 3260965019,11.5614673271\C,5.9313784423,23.7137303385,11.5590314237\C,
 5.5383870767,21.6302651505,10.3921325844\C,5.7016962479,24.4136174693,
 10.3583524885\C,5.3304287532,22.3031049367,9.1871140943\C,5.3917600761
 ,23.7126757148,9.1654309067\C,5.3617383013,21.456535326,7.929051304\C,
 5.357405979,24.458021789,7.818397228\C,5.9226159863,22.2373518522,6.76
 34379381\C,5.9336877735,23.6107621451,6.7111905636\C,6.9901771113,21.5
 19923625,6.1815806137\C,6.9694720768,24.2930784855,6.0148368548\C,7.99
 08731634,22.185566414,5.4914250635\C,7.9677821481,23.5964314232,5.3785
 980292\C,9.3547058544,21.727365848,5.5918284627\C,9.3850533025,24.1209
 284596,5.2331291331\C,11.8871389367,21.7174069646,6.7015463409\C,12.09
 62285991,24.1060447827,6.5105868099\C,10.2003719017,22.8457593915,5.41
 56957808\C,11.4499388502,22.8434660623,5.9880502779\C,10.1649787551,22
 .0281523053,13.5035612813\C,10.1534079129,23.4676312559,13.5414831947\
 Cl,4.5386887789,26.9087949473,10.6417776257\Cl,3.6108893538,24.9554545
 252,7.4551051667\Cl,13.3235176686,24.7880252998,5.3181771126\Cl,13.953
 2133189,26.8190887354,8.4501560876\Cl,14.8158255701,24.881927693,11.97
 51457934\Cl,14.9618915188,21.0134653833,11.9475970143\Cl,14.0553274253
 ,19.0149319186,8.2979241013\Cl,3.6881297243,20.8003901992,7.5374554816
 \Cl,4.4324039665,19.0710633202,10.6610760703\Cl,5.3507375406,24.785386
 0516,14.0482511291\Cl,7.842458271,16.886238435,11.0340046634\Cl,5.1869
 181181,21.0285704077,13.9574514608\Cl,9.676931718,24.9060803732,3.5930
 890869\Cl,6.7058888575,27.0105450577,5.4193443164\\Version=ES64L-G16Re
 vA.03\State=1-A\HF=-9643.838863\RMSD=1.498e-09\RMSF=1.850e-05\Dipole=0
 .9129695,0.0130643,0.5409765\Quadrupole=-21.1341072,8.4812257,12.65288
 14,-0.7675296,6.4706985,13.318266\PG=C01 [X(C84Cl14)]\\@


 When I told the people of Northern Ireland that I was
 an atheist, a woman in the audience stood up and said,
 "Yes, but is it the God of the Catholics or the God
 of the Protestants in whom you don't believe?"
                               -- Quentin Crisp
 Job cpu time:       1 days 12 hours 49 minutes 46.2 seconds.
 Elapsed time:       0 days  1 hours 32 minutes 12.5 seconds.
 File lengths (MBytes):  RWF=   1429 Int=      0 D2E=      0 Chk=    179 Scr=      1
 Normal termination of Gaussian 16 at Mon Jun 27 19:25:05 2022.
