 Entering Gaussian System, Link 0=g16
 Input=14_addons_C84_11_Cl22_rank_3.gjf
 Output=14_addons_C84_11_Cl22_rank_3.log
 Initial command:
 /home/mkliu/g16/l1.exe "/data/scratch/Gau-186646.inp" -scrdir="/data/scratch/"
 Entering Link 1 = /home/mkliu/g16/l1.exe PID=    186647.
  
 Copyright (c) 1988,1990,1992,1993,1995,1998,2003,2009,2016,
            Gaussian, Inc.  All Rights Reserved.
  
 This is part of the Gaussian(R) 16 program.  It is based on
 the Gaussian(R) 09 system (copyright 2009, Gaussian, Inc.),
 the Gaussian(R) 03 system (copyright 2003, Gaussian, Inc.),
 the Gaussian(R) 98 system (copyright 1998, Gaussian, Inc.),
 the Gaussian(R) 94 system (copyright 1995, Gaussian, Inc.),
 the Gaussian 92(TM) system (copyright 1992, Gaussian, Inc.),
 the Gaussian 90(TM) system (copyright 1990, Gaussian, Inc.),
 the Gaussian 88(TM) system (copyright 1988, Gaussian, Inc.),
 the Gaussian 86(TM) system (copyright 1986, Carnegie Mellon
 University), and the Gaussian 82(TM) system (copyright 1983,
 Carnegie Mellon University). Gaussian is a federally registered
 trademark of Gaussian, Inc.
  
 This software contains proprietary and confidential information,
 including trade secrets, belonging to Gaussian, Inc.
  
 This software is provided under written license and may be
 used, copied, transmitted, or stored only in accord with that
 written license.
  
 The following legend is applicable only to US Government
 contracts under FAR:
  
                    RESTRICTED RIGHTS LEGEND
  
 Use, reproduction and disclosure by the US Government is
 subject to restrictions as set forth in subparagraphs (a)
 and (c) of the Commercial Computer Software - Restricted
 Rights clause in FAR 52.227-19.
  
 Gaussian, Inc.
 340 Quinnipiac St., Bldg. 40, Wallingford CT 06492
  
  
 ---------------------------------------------------------------
 Warning -- This program may not be used in any manner that
 competes with the business of Gaussian, Inc. or will provide
 assistance to any competitor of Gaussian, Inc.  The licensee
 of this program is prohibited from giving any competitor of
 Gaussian, Inc. access to this program.  By using this program,
 the user acknowledges that Gaussian, Inc. is engaged in the
 business of creating and licensing software in the field of
 computational chemistry and represents and warrants to the
 licensee that it is not a competitor of Gaussian, Inc. and that
 it will not use this program in any manner prohibited above.
 ---------------------------------------------------------------
  

 Cite this work as:
 Gaussian 16, Revision A.03,
 M. J. Frisch, G. W. Trucks, H. B. Schlegel, G. E. Scuseria, 
 M. A. Robb, J. R. Cheeseman, G. Scalmani, V. Barone, 
 G. A. Petersson, H. Nakatsuji, X. Li, M. Caricato, A. V. Marenich, 
 J. Bloino, B. G. Janesko, R. Gomperts, B. Mennucci, H. P. Hratchian, 
 J. V. Ortiz, A. F. Izmaylov, J. L. Sonnenberg, D. Williams-Young, 
 F. Ding, F. Lipparini, F. Egidi, J. Goings, B. Peng, A. Petrone, 
 T. Henderson, D. Ranasinghe, V. G. Zakrzewski, J. Gao, N. Rega, 
 G. Zheng, W. Liang, M. Hada, M. Ehara, K. Toyota, R. Fukuda, 
 J. Hasegawa, M. Ishida, T. Nakajima, Y. Honda, O. Kitao, H. Nakai, 
 T. Vreven, K. Throssell, J. A. Montgomery, Jr., J. E. Peralta, 
 F. Ogliaro, M. J. Bearpark, J. J. Heyd, E. N. Brothers, K. N. Kudin, 
 V. N. Staroverov, T. A. Keith, R. Kobayashi, J. Normand, 
 K. Raghavachari, A. P. Rendell, J. C. Burant, S. S. Iyengar, 
 J. Tomasi, M. Cossi, J. M. Millam, M. Klene, C. Adamo, R. Cammi, 
 J. W. Ochterski, R. L. Martin, K. Morokuma, O. Farkas, 
 J. B. Foresman, and D. J. Fox, Gaussian, Inc., Wallingford CT, 2016.
 
 ******************************************
 Gaussian 16:  ES64L-G16RevA.03 25-Dec-2016
                27-Jun-2022 
 ******************************************
 %mem=10GB
 %chk=14_addons_C84_11_Cl22_rank_3.chk
 %nprocshared=24
 Will use up to   24 processors via shared memory.
 ------------------------------------------------
 #P opt b3lyp/6-31G(d, p) empiricaldispersion=GD3
 ------------------------------------------------
 1/18=20,19=15,26=3,38=1/1,3;
 2/9=110,12=2,17=6,18=5,40=1/2;
 3/5=1,6=6,7=101,11=2,25=1,30=1,71=1,74=-5,124=31/1,2,3;
 4//1;
 5/5=2,38=5/2;
 6/7=2,8=2,9=2,10=2,28=1/1;
 7//1,2,3,16;
 1/18=20,19=15,26=3/3(2);
 2/9=110/2;
 99//99;
 2/9=110/2;
 3/5=1,6=6,7=101,11=2,25=1,30=1,71=1,74=-5,124=31/1,2,3;
 4/5=5,16=3,69=1/1;
 5/5=2,38=5/2;
 7//1,2,3,16;
 1/18=20,19=15,26=3/3(-5);
 2/9=110/2;
 6/7=2,8=2,9=2,10=2,19=2,28=1/1;
 99/9=1/99;
 Leave Link    1 at Mon Jun 27 03:25:04 2022, MaxMem=  1342177280 cpu:               0.7 elap:               0.1
 (Enter /home/mkliu/g16/l101.exe)
 -----
 force
 -----
 Symbolic Z-matrix:
 Charge =  0 Multiplicity = 1
 C                     8.42109   18.67215   10.80086 
 C                     12.58561   19.99901   8.88271 
 C                     8.26053   26.84471   10.51584 
 C                     12.48589   25.74791   8.91 
 C                     8.02325   19.1846   9.43717 
 C                     12.0722   19.50634   10.20212 
 C                     7.95387   26.81661   9.12825 
 C                     11.87872   26.1762   10.21274 
 C                     8.98416   19.28905   8.39911 
 C                     12.33678   20.14527   11.37337 
 C                     12.13427   25.52483   11.37691 
 C                     8.95884   26.625    8.15265 
 C                     10.36454   19.10326   8.69676 
 C                     10.28806   26.66268   8.61818 
 C                     10.81118   18.87077   10.01895 
 C                     10.60347   26.77246   9.99311 
 C                     9.88676   18.79633   11.05871 
 C                     9.5904    26.75896   10.98003 
 C                     10.15135   19.44833   12.2484 
 C                     9.84567   26.0442   12.19154 
 C                     8.89609   19.86774   12.94651 
 C                     8.75511   25.42953   12.83728 
 C                     7.86333   19.53788   11.90118 
 C                     7.4246    25.55845   12.36499 
 C                     6.73961   20.22281   11.76718 
 C                     7.17299   26.26407   11.22858 
 C                     5.94108   20.20193   10.49738 
 C                     6.04197   25.92644   10.29403 
 C                     6.77799   19.81369   9.30799 
 C                     6.65196   26.2734   8.96727 
 C                     6.43638   20.39733   8.10265 
 C                     6.34972   25.60391   7.82988 
 C                     7.3576    20.4434   7.04259 
 C                     7.32937   25.45375   6.80516 
 C                     8.68401   19.99459   7.19645 
 C                     8.66657   25.88274   6.96779 
 C                     9.72373   20.6439   6.43609 
 C                     9.72378   25.14551   6.31736 
 C                     11.07687   20.59242   6.90761 
 C                     12.70238   22.18956   7.78681 
 C                     12.68206   23.57661   7.78865 
 C                     11.06292   25.18134   6.85776 
 C                     11.36804   19.81046   7.99291 
 C                     12.89461   21.47432   8.95564 
 C                     12.84246   24.28406   8.96503 
 C                     11.32642   25.95242   7.95231 
 C                     13.10334   22.17336   10.1529 
 C                     13.07012   23.57958   10.15619 
 C                     13.17072   21.39632   11.46055 
 C                     13.07085   24.3477   11.46737 
 C                     12.42987   22.16333   12.52293 
 C                     12.39434   23.52142   12.52066 
 C                     11.34439   20.15106   12.3974 
 C                     11.10921   25.42797   12.36204 
 C                     11.34567   21.411    13.0421 
 C                     11.24869   24.18401   13.02908 
 C                     8.8917    21.33928   13.29154 
 C                     8.8903    24.13215   13.4238 
 C                     7.68474   22.04953   13.18216 
 C                     7.68214   23.43033   13.29485 
 C                     6.43951   21.43643   12.59614 
 C                     6.61211   24.35596   12.75325 
 C                     5.89224   22.35441   11.53239 
 C                     5.99458   23.73459   11.52866 
 C                     5.5985    21.66334   10.36675 
 C                     5.75839   24.43232   10.33541 
 C                     5.38826   22.33194   9.17232 
 C                     5.44792   23.7328   9.15666 
 C                     5.38405   21.47675   7.93062 
 C                     5.36767   24.46312   7.82237 
 C                     5.92333   22.24684   6.76062 
 C                     5.91883   23.60461   6.71489 
 C                     7.01167   21.52356   6.17644 
 C                     7.00639   24.28578   6.07009 
 C                     8.02307   22.1617   5.48444 
 C                     8.02629   23.59244   5.43571 
 C                     9.36696   21.70138   5.58698 
 C                     9.37078   24.04585   5.52623 
 C                     12.09332   21.63559   6.52521 
 C                     12.08337   24.12367   6.51726 
 C                     10.22334   22.86802   5.48795 
 C                     11.485    22.87541   5.95052 
 C                     10.12128   22.03037   13.44168 
 C                     10.12206   23.45809   13.48235 
 Cl                    4.52539   26.82207   10.65947 
 Cl                    3.66234   24.97562   7.55036 
 Cl                    13.37173   24.83094   5.44753 
 Cl                    13.93114   26.71701   8.44543 
 Cl                    14.75953   24.81381   11.8795 
 Cl                    14.89597   21.08041   11.85802 
 Cl                    14.02621   19.09263   8.30225 
 Cl                    3.73384   20.81308   7.64376 
 Cl                    4.47824   19.15948   10.62876 
 Cl                    5.33634   24.71904   13.97153 
 Cl                    7.85147   16.95297   10.95839 
 Cl                    5.22645   21.11003   13.88961 
 Cl                    8.61545   18.91502   14.46875 
 Cl                    13.35657   20.9138   5.4353 
 
 ITRead=  0  0  0  0  0  0  0  0  0  0  0  0  0  0  0  0  0  0  0  0
 ITRead=  0  0  0  0  0  0  0  0  0  0  0  0  0  0  0  0  0  0  0  0
 ITRead=  0  0  0  0  0  0  0  0  0  0  0  0  0  0  0  0  0  0  0  0
 ITRead=  0  0  0  0  0  0  0  0  0  0  0  0  0  0  0  0  0  0  0  0
 ITRead=  0  0  0  0  0  0  0  0  0  0  0  0  0  0  0  0  0  0
 MicOpt= -1 -1 -1 -1 -1 -1 -1 -1 -1 -1 -1 -1 -1 -1 -1 -1 -1 -1 -1 -1
 MicOpt= -1 -1 -1 -1 -1 -1 -1 -1 -1 -1 -1 -1 -1 -1 -1 -1 -1 -1 -1 -1
 MicOpt= -1 -1 -1 -1 -1 -1 -1 -1 -1 -1 -1 -1 -1 -1 -1 -1 -1 -1 -1 -1
 MicOpt= -1 -1 -1 -1 -1 -1 -1 -1 -1 -1 -1 -1 -1 -1 -1 -1 -1 -1 -1 -1
 MicOpt= -1 -1 -1 -1 -1 -1 -1 -1 -1 -1 -1 -1 -1 -1 -1 -1 -1 -1
 NAtoms=     98 NQM=       98 NQMF=       0 NMMI=      0 NMMIF=      0
                NMic=       0 NMicF=      0.
                    Isotopes and Nuclear Properties:
 (Nuclear quadrupole moments (NQMom) in fm**2, nuclear magnetic moments (NMagM)
  in nuclear magnetons)

  Atom         1           2           3           4           5           6           7           8           9          10
 IAtWgt=          12          12          12          12          12          12          12          12          12          12
 AtmWgt=  12.0000000  12.0000000  12.0000000  12.0000000  12.0000000  12.0000000  12.0000000  12.0000000  12.0000000  12.0000000
 NucSpn=           0           0           0           0           0           0           0           0           0           0
 AtZEff=  -0.0000000  -0.0000000  -0.0000000  -0.0000000  -0.0000000  -0.0000000  -0.0000000  -0.0000000  -0.0000000  -0.0000000
 NQMom=    0.0000000   0.0000000   0.0000000   0.0000000   0.0000000   0.0000000   0.0000000   0.0000000   0.0000000   0.0000000
 NMagM=    0.0000000   0.0000000   0.0000000   0.0000000   0.0000000   0.0000000   0.0000000   0.0000000   0.0000000   0.0000000
 AtZNuc=   6.0000000   6.0000000   6.0000000   6.0000000   6.0000000   6.0000000   6.0000000   6.0000000   6.0000000   6.0000000

  Atom        11          12          13          14          15          16          17          18          19          20
 IAtWgt=          12          12          12          12          12          12          12          12          12          12
 AtmWgt=  12.0000000  12.0000000  12.0000000  12.0000000  12.0000000  12.0000000  12.0000000  12.0000000  12.0000000  12.0000000
 NucSpn=           0           0           0           0           0           0           0           0           0           0
 AtZEff=  -0.0000000  -0.0000000  -0.0000000  -0.0000000  -0.0000000  -0.0000000  -0.0000000  -0.0000000  -0.0000000  -0.0000000
 NQMom=    0.0000000   0.0000000   0.0000000   0.0000000   0.0000000   0.0000000   0.0000000   0.0000000   0.0000000   0.0000000
 NMagM=    0.0000000   0.0000000   0.0000000   0.0000000   0.0000000   0.0000000   0.0000000   0.0000000   0.0000000   0.0000000
 AtZNuc=   6.0000000   6.0000000   6.0000000   6.0000000   6.0000000   6.0000000   6.0000000   6.0000000   6.0000000   6.0000000

  Atom        21          22          23          24          25          26          27          28          29          30
 IAtWgt=          12          12          12          12          12          12          12          12          12          12
 AtmWgt=  12.0000000  12.0000000  12.0000000  12.0000000  12.0000000  12.0000000  12.0000000  12.0000000  12.0000000  12.0000000
 NucSpn=           0           0           0           0           0           0           0           0           0           0
 AtZEff=  -0.0000000  -0.0000000  -0.0000000  -0.0000000  -0.0000000  -0.0000000  -0.0000000  -0.0000000  -0.0000000  -0.0000000
 NQMom=    0.0000000   0.0000000   0.0000000   0.0000000   0.0000000   0.0000000   0.0000000   0.0000000   0.0000000   0.0000000
 NMagM=    0.0000000   0.0000000   0.0000000   0.0000000   0.0000000   0.0000000   0.0000000   0.0000000   0.0000000   0.0000000
 AtZNuc=   6.0000000   6.0000000   6.0000000   6.0000000   6.0000000   6.0000000   6.0000000   6.0000000   6.0000000   6.0000000

  Atom        31          32          33          34          35          36          37          38          39          40
 IAtWgt=          12          12          12          12          12          12          12          12          12          12
 AtmWgt=  12.0000000  12.0000000  12.0000000  12.0000000  12.0000000  12.0000000  12.0000000  12.0000000  12.0000000  12.0000000
 NucSpn=           0           0           0           0           0           0           0           0           0           0
 AtZEff=  -0.0000000  -0.0000000  -0.0000000  -0.0000000  -0.0000000  -0.0000000  -0.0000000  -0.0000000  -0.0000000  -0.0000000
 NQMom=    0.0000000   0.0000000   0.0000000   0.0000000   0.0000000   0.0000000   0.0000000   0.0000000   0.0000000   0.0000000
 NMagM=    0.0000000   0.0000000   0.0000000   0.0000000   0.0000000   0.0000000   0.0000000   0.0000000   0.0000000   0.0000000
 AtZNuc=   6.0000000   6.0000000   6.0000000   6.0000000   6.0000000   6.0000000   6.0000000   6.0000000   6.0000000   6.0000000

  Atom        41          42          43          44          45          46          47          48          49          50
 IAtWgt=          12          12          12          12          12          12          12          12          12          12
 AtmWgt=  12.0000000  12.0000000  12.0000000  12.0000000  12.0000000  12.0000000  12.0000000  12.0000000  12.0000000  12.0000000
 NucSpn=           0           0           0           0           0           0           0           0           0           0
 AtZEff=  -0.0000000  -0.0000000  -0.0000000  -0.0000000  -0.0000000  -0.0000000  -0.0000000  -0.0000000  -0.0000000  -0.0000000
 NQMom=    0.0000000   0.0000000   0.0000000   0.0000000   0.0000000   0.0000000   0.0000000   0.0000000   0.0000000   0.0000000
 NMagM=    0.0000000   0.0000000   0.0000000   0.0000000   0.0000000   0.0000000   0.0000000   0.0000000   0.0000000   0.0000000
 AtZNuc=   6.0000000   6.0000000   6.0000000   6.0000000   6.0000000   6.0000000   6.0000000   6.0000000   6.0000000   6.0000000

  Atom        51          52          53          54          55          56          57          58          59          60
 IAtWgt=          12          12          12          12          12          12          12          12          12          12
 AtmWgt=  12.0000000  12.0000000  12.0000000  12.0000000  12.0000000  12.0000000  12.0000000  12.0000000  12.0000000  12.0000000
 NucSpn=           0           0           0           0           0           0           0           0           0           0
 AtZEff=  -0.0000000  -0.0000000  -0.0000000  -0.0000000  -0.0000000  -0.0000000  -0.0000000  -0.0000000  -0.0000000  -0.0000000
 NQMom=    0.0000000   0.0000000   0.0000000   0.0000000   0.0000000   0.0000000   0.0000000   0.0000000   0.0000000   0.0000000
 NMagM=    0.0000000   0.0000000   0.0000000   0.0000000   0.0000000   0.0000000   0.0000000   0.0000000   0.0000000   0.0000000
 AtZNuc=   6.0000000   6.0000000   6.0000000   6.0000000   6.0000000   6.0000000   6.0000000   6.0000000   6.0000000   6.0000000

  Atom        61          62          63          64          65          66          67          68          69          70
 IAtWgt=          12          12          12          12          12          12          12          12          12          12
 AtmWgt=  12.0000000  12.0000000  12.0000000  12.0000000  12.0000000  12.0000000  12.0000000  12.0000000  12.0000000  12.0000000
 NucSpn=           0           0           0           0           0           0           0           0           0           0
 AtZEff=  -0.0000000  -0.0000000  -0.0000000  -0.0000000  -0.0000000  -0.0000000  -0.0000000  -0.0000000  -0.0000000  -0.0000000
 NQMom=    0.0000000   0.0000000   0.0000000   0.0000000   0.0000000   0.0000000   0.0000000   0.0000000   0.0000000   0.0000000
 NMagM=    0.0000000   0.0000000   0.0000000   0.0000000   0.0000000   0.0000000   0.0000000   0.0000000   0.0000000   0.0000000
 AtZNuc=   6.0000000   6.0000000   6.0000000   6.0000000   6.0000000   6.0000000   6.0000000   6.0000000   6.0000000   6.0000000

  Atom        71          72          73          74          75          76          77          78          79          80
 IAtWgt=          12          12          12          12          12          12          12          12          12          12
 AtmWgt=  12.0000000  12.0000000  12.0000000  12.0000000  12.0000000  12.0000000  12.0000000  12.0000000  12.0000000  12.0000000
 NucSpn=           0           0           0           0           0           0           0           0           0           0
 AtZEff=  -0.0000000  -0.0000000  -0.0000000  -0.0000000  -0.0000000  -0.0000000  -0.0000000  -0.0000000  -0.0000000  -0.0000000
 NQMom=    0.0000000   0.0000000   0.0000000   0.0000000   0.0000000   0.0000000   0.0000000   0.0000000   0.0000000   0.0000000
 NMagM=    0.0000000   0.0000000   0.0000000   0.0000000   0.0000000   0.0000000   0.0000000   0.0000000   0.0000000   0.0000000
 AtZNuc=   6.0000000   6.0000000   6.0000000   6.0000000   6.0000000   6.0000000   6.0000000   6.0000000   6.0000000   6.0000000

  Atom        81          82          83          84          85          86          87          88          89          90
 IAtWgt=          12          12          12          12          35          35          35          35          35          35
 AtmWgt=  12.0000000  12.0000000  12.0000000  12.0000000  34.9688527  34.9688527  34.9688527  34.9688527  34.9688527  34.9688527
 NucSpn=           0           0           0           0           3           3           3           3           3           3
 AtZEff=  -0.0000000  -0.0000000  -0.0000000  -0.0000000  -0.0000000  -0.0000000  -0.0000000  -0.0000000  -0.0000000  -0.0000000
 NQMom=    0.0000000   0.0000000   0.0000000   0.0000000  -8.1650000  -8.1650000  -8.1650000  -8.1650000  -8.1650000  -8.1650000
 NMagM=    0.0000000   0.0000000   0.0000000   0.0000000   0.8218740   0.8218740   0.8218740   0.8218740   0.8218740   0.8218740
 AtZNuc=   6.0000000   6.0000000   6.0000000   6.0000000  17.0000000  17.0000000  17.0000000  17.0000000  17.0000000  17.0000000

  Atom        91          92          93          94          95          96          97          98
 IAtWgt=          35          35          35          35          35          35          35          35
 AtmWgt=  34.9688527  34.9688527  34.9688527  34.9688527  34.9688527  34.9688527  34.9688527  34.9688527
 NucSpn=           3           3           3           3           3           3           3           3
 AtZEff=  -0.0000000  -0.0000000  -0.0000000  -0.0000000  -0.0000000  -0.0000000  -0.0000000  -0.0000000
 NQMom=   -8.1650000  -8.1650000  -8.1650000  -8.1650000  -8.1650000  -8.1650000  -8.1650000  -8.1650000
 NMagM=    0.8218740   0.8218740   0.8218740   0.8218740   0.8218740   0.8218740   0.8218740   0.8218740
 AtZNuc=  17.0000000  17.0000000  17.0000000  17.0000000  17.0000000  17.0000000  17.0000000  17.0000000
 Leave Link  101 at Mon Jun 27 03:25:04 2022, MaxMem=  1342177280 cpu:               6.8 elap:               0.3
 (Enter /home/mkliu/g16/l103.exe)

 GradGradGradGradGradGradGradGradGradGradGradGradGradGradGradGradGradGrad
 Berny optimization.
 Initialization pass.
                           ----------------------------
                           !    Initial Parameters    !
                           ! (Angstroms and Degrees)  !
 --------------------------                            --------------------------
 ! Name  Definition              Value          Derivative Info.                !
 --------------------------------------------------------------------------------
 ! R1    R(1,5)                  1.5101         estimate D2E/DX2                !
 ! R2    R(1,17)                 1.4934         estimate D2E/DX2                !
 ! R3    R(1,23)                 1.5071         estimate D2E/DX2                !
 ! R4    R(1,95)                 1.8179         estimate D2E/DX2                !
 ! R5    R(2,6)                  1.499          estimate D2E/DX2                !
 ! R6    R(2,43)                 1.5198         estimate D2E/DX2                !
 ! R7    R(2,44)                 1.5091         estimate D2E/DX2                !
 ! R8    R(2,91)                 1.7983         estimate D2E/DX2                !
 ! R9    R(3,7)                  1.4213         estimate D2E/DX2                !
 ! R10   R(3,18)                 1.4112         estimate D2E/DX2                !
 ! R11   R(3,26)                 1.424          estimate D2E/DX2                !
 ! R12   R(4,8)                  1.4997         estimate D2E/DX2                !
 ! R13   R(4,45)                 1.5077         estimate D2E/DX2                !
 ! R14   R(4,46)                 1.5177         estimate D2E/DX2                !
 ! R15   R(4,88)                 1.801          estimate D2E/DX2                !
 ! R16   R(5,9)                  1.4184         estimate D2E/DX2                !
 ! R17   R(5,29)                 1.4011         estimate D2E/DX2                !
 ! R18   R(6,10)                 1.3602         estimate D2E/DX2                !
 ! R19   R(6,15)                 1.424          estimate D2E/DX2                !
 ! R20   R(7,12)                 1.4137         estimate D2E/DX2                !
 ! R21   R(7,30)                 1.4199         estimate D2E/DX2                !
 ! R22   R(8,11)                 1.3583         estimate D2E/DX2                !
 ! R23   R(8,16)                 1.4248         estimate D2E/DX2                !
 ! R24   R(9,13)                 1.4243         estimate D2E/DX2                !
 ! R25   R(9,35)                 1.4263         estimate D2E/DX2                !
 ! R26   R(10,49)                1.506          estimate D2E/DX2                !
 ! R27   R(10,53)                1.426          estimate D2E/DX2                !
 ! R28   R(11,50)                1.507          estimate D2E/DX2                !
 ! R29   R(11,54)                1.425          estimate D2E/DX2                !
 ! R30   R(12,14)                1.4089         estimate D2E/DX2                !
 ! R31   R(12,36)                1.4284         estimate D2E/DX2                !
 ! R32   R(13,15)                1.4148         estimate D2E/DX2                !
 ! R33   R(13,43)                1.4151         estimate D2E/DX2                !
 ! R34   R(14,16)                1.4149         estimate D2E/DX2                !
 ! R35   R(14,46)                1.4234         estimate D2E/DX2                !
 ! R36   R(15,17)                1.3933         estimate D2E/DX2                !
 ! R37   R(16,18)                1.4144         estimate D2E/DX2                !
 ! R38   R(17,19)                1.3822         estimate D2E/DX2                !
 ! R39   R(18,20)                1.4296         estimate D2E/DX2                !
 ! R40   R(19,21)                1.4963         estimate D2E/DX2                !
 ! R41   R(19,53)                1.3926         estimate D2E/DX2                !
 ! R42   R(20,22)                1.4086         estimate D2E/DX2                !
 ! R43   R(20,54)                1.4161         estimate D2E/DX2                !
 ! R44   R(21,23)                1.506          estimate D2E/DX2                !
 ! R45   R(21,57)                1.5115         estimate D2E/DX2                !
 ! R46   R(21,97)                1.8176         estimate D2E/DX2                !
 ! R47   R(22,24)                1.4177         estimate D2E/DX2                !
 ! R48   R(22,58)                1.4302         estimate D2E/DX2                !
 ! R49   R(23,25)                1.3228         estimate D2E/DX2                !
 ! R50   R(24,26)                1.3611         estimate D2E/DX2                !
 ! R51   R(24,62)                1.5023         estimate D2E/DX2                !
 ! R52   R(25,27)                1.5002         estimate D2E/DX2                !
 ! R53   R(25,61)                1.5            estimate D2E/DX2                !
 ! R54   R(26,28)                1.5055         estimate D2E/DX2                !
 ! R55   R(27,29)                1.5053         estimate D2E/DX2                !
 ! R56   R(27,65)                1.5067         estimate D2E/DX2                !
 ! R57   R(27,93)                1.8011         estimate D2E/DX2                !
 ! R58   R(28,30)                1.5009         estimate D2E/DX2                !
 ! R59   R(28,66)                1.5214         estimate D2E/DX2                !
 ! R60   R(28,85)                1.7988         estimate D2E/DX2                !
 ! R61   R(29,31)                1.3821         estimate D2E/DX2                !
 ! R62   R(30,32)                1.354          estimate D2E/DX2                !
 ! R63   R(31,33)                1.4052         estimate D2E/DX2                !
 ! R64   R(31,69)                1.5173         estimate D2E/DX2                !
 ! R65   R(32,34)                1.4256         estimate D2E/DX2                !
 ! R66   R(32,70)                1.5053         estimate D2E/DX2                !
 ! R67   R(33,35)                1.4087         estimate D2E/DX2                !
 ! R68   R(33,73)                1.4271         estimate D2E/DX2                !
 ! R69   R(34,36)                1.4137         estimate D2E/DX2                !
 ! R70   R(34,74)                1.4173         estimate D2E/DX2                !
 ! R71   R(35,37)                1.4425         estimate D2E/DX2                !
 ! R72   R(36,38)                1.4437         estimate D2E/DX2                !
 ! R73   R(37,39)                1.4339         estimate D2E/DX2                !
 ! R74   R(37,77)                1.4023         estimate D2E/DX2                !
 ! R75   R(38,42)                1.4445         estimate D2E/DX2                !
 ! R76   R(38,78)                1.3999         estimate D2E/DX2                !
 ! R77   R(39,43)                1.369          estimate D2E/DX2                !
 ! R78   R(39,79)                1.5059         estimate D2E/DX2                !
 ! R79   R(40,41)                1.3872         estimate D2E/DX2                !
 ! R80   R(40,44)                1.3837         estimate D2E/DX2                !
 ! R81   R(40,79)                1.5065         estimate D2E/DX2                !
 ! R82   R(41,45)                1.3821         estimate D2E/DX2                !
 ! R83   R(41,80)                1.508          estimate D2E/DX2                !
 ! R84   R(42,46)                1.3646         estimate D2E/DX2                !
 ! R85   R(42,80)                1.5086         estimate D2E/DX2                !
 ! R86   R(44,47)                1.402          estimate D2E/DX2                !
 ! R87   R(45,48)                1.4025         estimate D2E/DX2                !
 ! R88   R(47,48)                1.4066         estimate D2E/DX2                !
 ! R89   R(47,49)                1.5226         estimate D2E/DX2                !
 ! R90   R(48,50)                1.5196         estimate D2E/DX2                !
 ! R91   R(49,51)                1.5053         estimate D2E/DX2                !
 ! R92   R(49,90)                1.7984         estimate D2E/DX2                !
 ! R93   R(50,52)                1.4999         estimate D2E/DX2                !
 ! R94   R(50,89)                1.7997         estimate D2E/DX2                !
 ! R95   R(51,52)                1.3585         estimate D2E/DX2                !
 ! R96   R(51,55)                1.4181         estimate D2E/DX2                !
 ! R97   R(52,56)                1.4178         estimate D2E/DX2                !
 ! R98   R(53,55)                1.4153         estimate D2E/DX2                !
 ! R99   R(54,56)                1.4184         estimate D2E/DX2                !
 ! R100  R(55,83)                1.4291         estimate D2E/DX2                !
 ! R101  R(56,84)                1.4148         estimate D2E/DX2                !
 ! R102  R(57,59)                1.4047         estimate D2E/DX2                !
 ! R103  R(57,83)                1.4185         estimate D2E/DX2                !
 ! R104  R(58,60)                1.4032         estimate D2E/DX2                !
 ! R105  R(58,84)                1.4053         estimate D2E/DX2                !
 ! R106  R(59,60)                1.3854         estimate D2E/DX2                !
 ! R107  R(59,61)                1.5066         estimate D2E/DX2                !
 ! R108  R(60,62)                1.515          estimate D2E/DX2                !
 ! R109  R(61,63)                1.5079         estimate D2E/DX2                !
 ! R110  R(61,96)                1.8031         estimate D2E/DX2                !
 ! R111  R(62,64)                1.5057         estimate D2E/DX2                !
 ! R112  R(62,94)                1.801          estimate D2E/DX2                !
 ! R113  R(63,64)                1.384          estimate D2E/DX2                !
 ! R114  R(63,65)                1.3866         estimate D2E/DX2                !
 ! R115  R(64,66)                1.4023         estimate D2E/DX2                !
 ! R116  R(65,67)                1.3849         estimate D2E/DX2                !
 ! R117  R(66,68)                1.4054         estimate D2E/DX2                !
 ! R118  R(67,68)                1.4022         estimate D2E/DX2                !
 ! R119  R(67,69)                1.5077         estimate D2E/DX2                !
 ! R120  R(68,70)                1.5232         estimate D2E/DX2                !
 ! R121  R(69,71)                1.5009         estimate D2E/DX2                !
 ! R122  R(69,92)                1.8017         estimate D2E/DX2                !
 ! R123  R(70,72)                1.5058         estimate D2E/DX2                !
 ! R124  R(70,86)                1.8013         estimate D2E/DX2                !
 ! R125  R(71,72)                1.3585         estimate D2E/DX2                !
 ! R126  R(71,73)                1.4314         estimate D2E/DX2                !
 ! R127  R(72,74)                1.4362         estimate D2E/DX2                !
 ! R128  R(73,75)                1.3817         estimate D2E/DX2                !
 ! R129  R(74,76)                1.3869         estimate D2E/DX2                !
 ! R130  R(75,76)                1.4316         estimate D2E/DX2                !
 ! R131  R(75,77)                1.4242         estimate D2E/DX2                !
 ! R132  R(76,78)                1.4218         estimate D2E/DX2                !
 ! R133  R(77,81)                1.4506         estimate D2E/DX2                !
 ! R134  R(78,81)                1.4545         estimate D2E/DX2                !
 ! R135  R(79,82)                1.4958         estimate D2E/DX2                !
 ! R136  R(79,98)                1.8179         estimate D2E/DX2                !
 ! R137  R(80,82)                1.4958         estimate D2E/DX2                !
 ! R138  R(80,87)                1.8178         estimate D2E/DX2                !
 ! R139  R(81,82)                1.3438         estimate D2E/DX2                !
 ! R140  R(83,84)                1.4283         estimate D2E/DX2                !
 ! A1    A(5,1,17)             112.7222         estimate D2E/DX2                !
 ! A2    A(5,1,23)             111.5222         estimate D2E/DX2                !
 ! A3    A(5,1,95)             108.4581         estimate D2E/DX2                !
 ! A4    A(17,1,23)            100.9182         estimate D2E/DX2                !
 ! A5    A(17,1,95)            111.7897         estimate D2E/DX2                !
 ! A6    A(23,1,95)            111.3468         estimate D2E/DX2                !
 ! A7    A(6,2,43)             101.5461         estimate D2E/DX2                !
 ! A8    A(6,2,44)             110.4197         estimate D2E/DX2                !
 ! A9    A(6,2,91)             113.1304         estimate D2E/DX2                !
 ! A10   A(43,2,44)            108.2776         estimate D2E/DX2                !
 ! A11   A(43,2,91)            112.9717         estimate D2E/DX2                !
 ! A12   A(44,2,91)            110.1399         estimate D2E/DX2                !
 ! A13   A(7,3,18)             121.5509         estimate D2E/DX2                !
 ! A14   A(7,3,26)             108.4084         estimate D2E/DX2                !
 ! A15   A(18,3,26)            122.0253         estimate D2E/DX2                !
 ! A16   A(8,4,45)             109.9575         estimate D2E/DX2                !
 ! A17   A(8,4,46)             101.558          estimate D2E/DX2                !
 ! A18   A(8,4,88)             113.2832         estimate D2E/DX2                !
 ! A19   A(45,4,46)            109.545          estimate D2E/DX2                !
 ! A20   A(45,4,88)            110.0032         estimate D2E/DX2                !
 ! A21   A(46,4,88)            112.1962         estimate D2E/DX2                !
 ! A22   A(1,5,9)              120.4905         estimate D2E/DX2                !
 ! A23   A(1,5,29)             118.0188         estimate D2E/DX2                !
 ! A24   A(9,5,29)             120.1038         estimate D2E/DX2                !
 ! A25   A(2,6,10)             122.4736         estimate D2E/DX2                !
 ! A26   A(2,6,15)             109.6806         estimate D2E/DX2                !
 ! A27   A(10,6,15)            119.5174         estimate D2E/DX2                !
 ! A28   A(3,7,12)             121.5356         estimate D2E/DX2                !
 ! A29   A(3,7,30)             108.4259         estimate D2E/DX2                !
 ! A30   A(12,7,30)            121.4492         estimate D2E/DX2                !
 ! A31   A(4,8,11)             122.0998         estimate D2E/DX2                !
 ! A32   A(4,8,16)             110.3632         estimate D2E/DX2                !
 ! A33   A(11,8,16)            120.08           estimate D2E/DX2                !
 ! A34   A(5,9,13)             119.6058         estimate D2E/DX2                !
 ! A35   A(5,9,35)             120.7282         estimate D2E/DX2                !
 ! A36   A(13,9,35)            116.405          estimate D2E/DX2                !
 ! A37   A(6,10,49)            123.2134         estimate D2E/DX2                !
 ! A38   A(6,10,53)            119.0062         estimate D2E/DX2                !
 ! A39   A(49,10,53)           109.9019         estimate D2E/DX2                !
 ! A40   A(8,11,50)            122.8862         estimate D2E/DX2                !
 ! A41   A(8,11,54)            119.3266         estimate D2E/DX2                !
 ! A42   A(50,11,54)           110.6389         estimate D2E/DX2                !
 ! A43   A(7,12,14)            116.0425         estimate D2E/DX2                !
 ! A44   A(7,12,36)            119.8304         estimate D2E/DX2                !
 ! A45   A(14,12,36)           118.7531         estimate D2E/DX2                !
 ! A46   A(9,13,15)            121.5135         estimate D2E/DX2                !
 ! A47   A(9,13,43)            121.2076         estimate D2E/DX2                !
 ! A48   A(15,13,43)           108.8487         estimate D2E/DX2                !
 ! A49   A(12,14,16)           122.2405         estimate D2E/DX2                !
 ! A50   A(12,14,46)           121.3542         estimate D2E/DX2                !
 ! A51   A(16,14,46)           109.3102         estimate D2E/DX2                !
 ! A52   A(6,15,13)            109.0521         estimate D2E/DX2                !
 ! A53   A(6,15,17)            121.0258         estimate D2E/DX2                !
 ! A54   A(13,15,17)           119.7842         estimate D2E/DX2                !
 ! A55   A(8,16,14)            108.4721         estimate D2E/DX2                !
 ! A56   A(8,16,18)            121.9738         estimate D2E/DX2                !
 ! A57   A(14,16,18)           121.1743         estimate D2E/DX2                !
 ! A58   A(1,17,15)            121.7884         estimate D2E/DX2                !
 ! A59   A(1,17,19)            112.0684         estimate D2E/DX2                !
 ! A60   A(15,17,19)           119.3487         estimate D2E/DX2                !
 ! A61   A(3,18,16)            116.4162         estimate D2E/DX2                !
 ! A62   A(3,18,20)            118.5164         estimate D2E/DX2                !
 ! A63   A(16,18,20)           117.9173         estimate D2E/DX2                !
 ! A64   A(17,19,21)           111.9134         estimate D2E/DX2                !
 ! A65   A(17,19,53)           119.6113         estimate D2E/DX2                !
 ! A66   A(21,19,53)           121.8249         estimate D2E/DX2                !
 ! A67   A(18,20,22)           117.9318         estimate D2E/DX2                !
 ! A68   A(18,20,54)           118.6147         estimate D2E/DX2                !
 ! A69   A(22,20,54)           116.4697         estimate D2E/DX2                !
 ! A70   A(19,21,23)           100.9561         estimate D2E/DX2                !
 ! A71   A(19,21,57)           112.4474         estimate D2E/DX2                !
 ! A72   A(19,21,97)           111.9219         estimate D2E/DX2                !
 ! A73   A(23,21,57)           111.6971         estimate D2E/DX2                !
 ! A74   A(23,21,97)           111.1386         estimate D2E/DX2                !
 ! A75   A(57,21,97)           108.5835         estimate D2E/DX2                !
 ! A76   A(20,22,24)           122.2895         estimate D2E/DX2                !
 ! A77   A(20,22,58)           120.7078         estimate D2E/DX2                !
 ! A78   A(24,22,58)           107.9279         estimate D2E/DX2                !
 ! A79   A(1,23,21)            112.2585         estimate D2E/DX2                !
 ! A80   A(1,23,25)            122.539          estimate D2E/DX2                !
 ! A81   A(21,23,25)           122.6457         estimate D2E/DX2                !
 ! A82   A(22,24,26)           119.9184         estimate D2E/DX2                !
 ! A83   A(22,24,62)           110.4068         estimate D2E/DX2                !
 ! A84   A(26,24,62)           122.0568         estimate D2E/DX2                !
 ! A85   A(23,25,27)           122.054          estimate D2E/DX2                !
 ! A86   A(23,25,61)           122.2009         estimate D2E/DX2                !
 ! A87   A(27,25,61)           111.8723         estimate D2E/DX2                !
 ! A88   A(3,26,24)            119.2142         estimate D2E/DX2                !
 ! A89   A(3,26,28)            110.7617         estimate D2E/DX2                !
 ! A90   A(24,26,28)           122.7439         estimate D2E/DX2                !
 ! A91   A(25,27,29)           112.1144         estimate D2E/DX2                !
 ! A92   A(25,27,65)           100.4227         estimate D2E/DX2                !
 ! A93   A(25,27,93)           112.2501         estimate D2E/DX2                !
 ! A94   A(29,27,65)           107.9436         estimate D2E/DX2                !
 ! A95   A(29,27,93)           111.0962         estimate D2E/DX2                !
 ! A96   A(65,27,93)           112.5228         estimate D2E/DX2                !
 ! A97   A(26,28,30)           101.0443         estimate D2E/DX2                !
 ! A98   A(26,28,66)           110.0839         estimate D2E/DX2                !
 ! A99   A(26,28,85)           113.3041         estimate D2E/DX2                !
 ! A100  A(30,28,66)           109.0762         estimate D2E/DX2                !
 ! A101  A(30,28,85)           114.0246         estimate D2E/DX2                !
 ! A102  A(66,28,85)           109.0447         estimate D2E/DX2                !
 ! A103  A(5,29,27)            122.4865         estimate D2E/DX2                !
 ! A104  A(5,29,31)            119.3201         estimate D2E/DX2                !
 ! A105  A(27,29,31)           116.2804         estimate D2E/DX2                !
 ! A106  A(7,30,28)            111.1536         estimate D2E/DX2                !
 ! A107  A(7,30,32)            119.2814         estimate D2E/DX2                !
 ! A108  A(28,30,32)           122.5168         estimate D2E/DX2                !
 ! A109  A(29,31,33)           120.6455         estimate D2E/DX2                !
 ! A110  A(29,31,69)           124.8012         estimate D2E/DX2                !
 ! A111  A(33,31,69)           110.2329         estimate D2E/DX2                !
 ! A112  A(30,32,34)           120.1663         estimate D2E/DX2                !
 ! A113  A(30,32,70)           121.6386         estimate D2E/DX2                !
 ! A114  A(34,32,70)           111.402          estimate D2E/DX2                !
 ! A115  A(31,33,35)           121.6313         estimate D2E/DX2                !
 ! A116  A(31,33,73)           108.891          estimate D2E/DX2                !
 ! A117  A(35,33,73)           122.3889         estimate D2E/DX2                !
 ! A118  A(32,34,36)           122.3672         estimate D2E/DX2                !
 ! A119  A(32,34,74)           107.6378         estimate D2E/DX2                !
 ! A120  A(36,34,74)           121.6865         estimate D2E/DX2                !
 ! A121  A(9,35,33)            116.6059         estimate D2E/DX2                !
 ! A122  A(9,35,37)            121.0277         estimate D2E/DX2                !
 ! A123  A(33,35,37)           118.535          estimate D2E/DX2                !
 ! A124  A(12,36,34)           116.5295         estimate D2E/DX2                !
 ! A125  A(12,36,38)           119.2909         estimate D2E/DX2                !
 ! A126  A(34,36,38)           119.0698         estimate D2E/DX2                !
 ! A127  A(35,37,39)           119.3868         estimate D2E/DX2                !
 ! A128  A(35,37,77)           118.3742         estimate D2E/DX2                !
 ! A129  A(39,37,77)           117.793          estimate D2E/DX2                !
 ! A130  A(36,38,42)           119.8455         estimate D2E/DX2                !
 ! A131  A(36,38,78)           118.1047         estimate D2E/DX2                !
 ! A132  A(42,38,78)           117.6888         estimate D2E/DX2                !
 ! A133  A(37,39,43)           118.8113         estimate D2E/DX2                !
 ! A134  A(37,39,79)           121.9119         estimate D2E/DX2                !
 ! A135  A(43,39,79)           116.9649         estimate D2E/DX2                !
 ! A136  A(41,40,44)           121.1818         estimate D2E/DX2                !
 ! A137  A(41,40,79)           111.2767         estimate D2E/DX2                !
 ! A138  A(44,40,79)           124.9936         estimate D2E/DX2                !
 ! A139  A(40,41,45)           120.7479         estimate D2E/DX2                !
 ! A140  A(40,41,80)           111.5567         estimate D2E/DX2                !
 ! A141  A(45,41,80)           125.3096         estimate D2E/DX2                !
 ! A142  A(38,42,46)           119.5454         estimate D2E/DX2                !
 ! A143  A(38,42,80)           121.6845         estimate D2E/DX2                !
 ! A144  A(46,42,80)           116.5253         estimate D2E/DX2                !
 ! A145  A(2,43,13)            109.8105         estimate D2E/DX2                !
 ! A146  A(2,43,39)            124.3108         estimate D2E/DX2                !
 ! A147  A(13,43,39)           121.9338         estimate D2E/DX2                !
 ! A148  A(2,44,40)            115.853          estimate D2E/DX2                !
 ! A149  A(2,44,47)            123.9999         estimate D2E/DX2                !
 ! A150  A(40,44,47)           118.966          estimate D2E/DX2                !
 ! A151  A(4,45,41)            116.0082         estimate D2E/DX2                !
 ! A152  A(4,45,48)            123.8554         estimate D2E/DX2                !
 ! A153  A(41,45,48)           118.9886         estimate D2E/DX2                !
 ! A154  A(4,46,14)            109.23           estimate D2E/DX2                !
 ! A155  A(4,46,42)            125.2777         estimate D2E/DX2                !
 ! A156  A(14,46,42)           121.0869         estimate D2E/DX2                !
 ! A157  A(44,47,48)           119.7978         estimate D2E/DX2                !
 ! A158  A(44,47,49)           119.0472         estimate D2E/DX2                !
 ! A159  A(48,47,49)           120.613          estimate D2E/DX2                !
 ! A160  A(45,48,47)           120.2657         estimate D2E/DX2                !
 ! A161  A(45,48,50)           118.6205         estimate D2E/DX2                !
 ! A162  A(47,48,50)           120.4865         estimate D2E/DX2                !
 ! A163  A(10,49,47)           110.4703         estimate D2E/DX2                !
 ! A164  A(10,49,51)           101.0465         estimate D2E/DX2                !
 ! A165  A(10,49,90)           113.458          estimate D2E/DX2                !
 ! A166  A(47,49,51)           108.924          estimate D2E/DX2                !
 ! A167  A(47,49,90)           108.7784         estimate D2E/DX2                !
 ! A168  A(51,49,90)           113.9333         estimate D2E/DX2                !
 ! A169  A(11,50,48)           110.0441         estimate D2E/DX2                !
 ! A170  A(11,50,52)           101.078          estimate D2E/DX2                !
 ! A171  A(11,50,89)           113.2412         estimate D2E/DX2                !
 ! A172  A(48,50,52)           109.1015         estimate D2E/DX2                !
 ! A173  A(48,50,89)           109.2056         estimate D2E/DX2                !
 ! A174  A(52,50,89)           113.8958         estimate D2E/DX2                !
 ! A175  A(49,51,52)           121.4044         estimate D2E/DX2                !
 ! A176  A(49,51,55)           111.3672         estimate D2E/DX2                !
 ! A177  A(52,51,55)           120.7273         estimate D2E/DX2                !
 ! A178  A(50,52,51)           122.6879         estimate D2E/DX2                !
 ! A179  A(50,52,56)           111.0283         estimate D2E/DX2                !
 ! A180  A(51,52,56)           119.1912         estimate D2E/DX2                !
 ! A181  A(10,53,19)           121.152          estimate D2E/DX2                !
 ! A182  A(10,53,55)           109.2745         estimate D2E/DX2                !
 ! A183  A(19,53,55)           119.9164         estimate D2E/DX2                !
 ! A184  A(11,54,20)           121.9401         estimate D2E/DX2                !
 ! A185  A(11,54,56)           108.2996         estimate D2E/DX2                !
 ! A186  A(20,54,56)           121.7363         estimate D2E/DX2                !
 ! A187  A(51,55,53)           107.8309         estimate D2E/DX2                !
 ! A188  A(51,55,83)           121.8333         estimate D2E/DX2                !
 ! A189  A(53,55,83)           120.8234         estimate D2E/DX2                !
 ! A190  A(52,56,54)           108.7049         estimate D2E/DX2                !
 ! A191  A(52,56,84)           121.2367         estimate D2E/DX2                !
 ! A192  A(54,56,84)           121.4894         estimate D2E/DX2                !
 ! A193  A(21,57,59)           118.4893         estimate D2E/DX2                !
 ! A194  A(21,57,83)           119.7352         estimate D2E/DX2                !
 ! A195  A(59,57,83)           120.445          estimate D2E/DX2                !
 ! A196  A(22,58,60)           109.5511         estimate D2E/DX2                !
 ! A197  A(22,58,84)           122.3463         estimate D2E/DX2                !
 ! A198  A(60,58,84)           121.2382         estimate D2E/DX2                !
 ! A199  A(57,59,60)           119.9488         estimate D2E/DX2                !
 ! A200  A(57,59,61)           122.3225         estimate D2E/DX2                !
 ! A201  A(60,59,61)           115.8287         estimate D2E/DX2                !
 ! A202  A(58,60,59)           120.2903         estimate D2E/DX2                !
 ! A203  A(58,60,62)           109.5969         estimate D2E/DX2                !
 ! A204  A(59,60,62)           125.536          estimate D2E/DX2                !
 ! A205  A(25,61,59)           112.2619         estimate D2E/DX2                !
 ! A206  A(25,61,63)           100.0959         estimate D2E/DX2                !
 ! A207  A(25,61,96)           112.6171         estimate D2E/DX2                !
 ! A208  A(59,61,63)           109.0641         estimate D2E/DX2                !
 ! A209  A(59,61,96)           110.5292         estimate D2E/DX2                !
 ! A210  A(63,61,96)           111.845          estimate D2E/DX2                !
 ! A211  A(24,62,60)           101.5057         estimate D2E/DX2                !
 ! A212  A(24,62,64)           109.9955         estimate D2E/DX2                !
 ! A213  A(24,62,94)           113.3638         estimate D2E/DX2                !
 ! A214  A(60,62,64)           109.1655         estimate D2E/DX2                !
 ! A215  A(60,62,94)           112.4371         estimate D2E/DX2                !
 ! A216  A(64,62,94)           110.0493         estimate D2E/DX2                !
 ! A217  A(61,63,64)           125.6037         estimate D2E/DX2                !
 ! A218  A(61,63,65)           111.5008         estimate D2E/DX2                !
 ! A219  A(64,63,65)           120.6931         estimate D2E/DX2                !
 ! A220  A(62,64,63)           116.0841         estimate D2E/DX2                !
 ! A221  A(62,64,66)           123.7666         estimate D2E/DX2                !
 ! A222  A(63,64,66)           119.0801         estimate D2E/DX2                !
 ! A223  A(27,65,63)           111.2461         estimate D2E/DX2                !
 ! A224  A(27,65,67)           125.2791         estimate D2E/DX2                !
 ! A225  A(63,65,67)           121.1042         estimate D2E/DX2                !
 ! A226  A(28,66,64)           118.7116         estimate D2E/DX2                !
 ! A227  A(28,66,68)           120.4764         estimate D2E/DX2                !
 ! A228  A(64,66,68)           120.2151         estimate D2E/DX2                !
 ! A229  A(65,67,68)           119.0443         estimate D2E/DX2                !
 ! A230  A(65,67,69)           115.9063         estimate D2E/DX2                !
 ! A231  A(68,67,69)           123.8888         estimate D2E/DX2                !
 ! A232  A(66,68,67)           119.8204         estimate D2E/DX2                !
 ! A233  A(66,68,70)           120.5109         estimate D2E/DX2                !
 ! A234  A(67,68,70)           119.1134         estimate D2E/DX2                !
 ! A235  A(31,69,67)           107.9512         estimate D2E/DX2                !
 ! A236  A(31,69,71)           101.7827         estimate D2E/DX2                !
 ! A237  A(31,69,92)           113.0323         estimate D2E/DX2                !
 ! A238  A(67,69,71)           110.485          estimate D2E/DX2                !
 ! A239  A(67,69,92)           110.0372         estimate D2E/DX2                !
 ! A240  A(71,69,92)           113.2027         estimate D2E/DX2                !
 ! A241  A(32,70,68)           108.9424         estimate D2E/DX2                !
 ! A242  A(32,70,72)           101.3591         estimate D2E/DX2                !
 ! A243  A(32,70,86)           113.7512         estimate D2E/DX2                !
 ! A244  A(68,70,72)           110.5867         estimate D2E/DX2                !
 ! A245  A(68,70,86)           108.5764         estimate D2E/DX2                !
 ! A246  A(72,70,86)           113.4334         estimate D2E/DX2                !
 ! A247  A(69,71,72)           122.5363         estimate D2E/DX2                !
 ! A248  A(69,71,73)           109.3943         estimate D2E/DX2                !
 ! A249  A(72,71,73)           119.5899         estimate D2E/DX2                !
 ! A250  A(70,72,71)           123.1119         estimate D2E/DX2                !
 ! A251  A(70,72,74)           109.6933         estimate D2E/DX2                !
 ! A252  A(71,72,74)           119.1197         estimate D2E/DX2                !
 ! A253  A(33,73,71)           108.6059         estimate D2E/DX2                !
 ! A254  A(33,73,75)           118.4323         estimate D2E/DX2                !
 ! A255  A(71,73,75)           121.8435         estimate D2E/DX2                !
 ! A256  A(34,74,72)           109.3033         estimate D2E/DX2                !
 ! A257  A(34,74,76)           118.7925         estimate D2E/DX2                !
 ! A258  A(72,74,76)           121.6786         estimate D2E/DX2                !
 ! A259  A(73,75,76)           118.7043         estimate D2E/DX2                !
 ! A260  A(73,75,77)           120.3565         estimate D2E/DX2                !
 ! A261  A(76,75,77)           108.8651         estimate D2E/DX2                !
 ! A262  A(74,76,75)           118.8437         estimate D2E/DX2                !
 ! A263  A(74,76,78)           120.4557         estimate D2E/DX2                !
 ! A264  A(75,76,78)           108.5832         estimate D2E/DX2                !
 ! A265  A(37,77,75)           121.8286         estimate D2E/DX2                !
 ! A266  A(37,77,81)           119.8424         estimate D2E/DX2                !
 ! A267  A(75,77,81)           106.9902         estimate D2E/DX2                !
 ! A268  A(38,78,76)           121.6644         estimate D2E/DX2                !
 ! A269  A(38,78,81)           120.2101         estimate D2E/DX2                !
 ! A270  A(76,78,81)           107.1196         estimate D2E/DX2                !
 ! A271  A(39,79,40)           108.3593         estimate D2E/DX2                !
 ! A272  A(39,79,82)           113.4057         estimate D2E/DX2                !
 ! A273  A(39,79,98)           110.2581         estimate D2E/DX2                !
 ! A274  A(40,79,82)           100.45           estimate D2E/DX2                !
 ! A275  A(40,79,98)           111.5401         estimate D2E/DX2                !
 ! A276  A(82,79,98)           112.4178         estimate D2E/DX2                !
 ! A277  A(41,80,42)           109.4254         estimate D2E/DX2                !
 ! A278  A(41,80,82)           100.1088         estimate D2E/DX2                !
 ! A279  A(41,80,87)           110.8488         estimate D2E/DX2                !
 ! A280  A(42,80,82)           113.578          estimate D2E/DX2                !
 ! A281  A(42,80,87)           109.8429         estimate D2E/DX2                !
 ! A282  A(82,80,87)           112.6593         estimate D2E/DX2                !
 ! A283  A(77,81,78)           107.6634         estimate D2E/DX2                !
 ! A284  A(77,81,82)           122.3573         estimate D2E/DX2                !
 ! A285  A(78,81,82)           122.466          estimate D2E/DX2                !
 ! A286  A(79,82,80)           112.5467         estimate D2E/DX2                !
 ! A287  A(79,82,81)           120.6314         estimate D2E/DX2                !
 ! A288  A(80,82,81)           120.7035         estimate D2E/DX2                !
 ! A289  A(55,83,57)           120.1267         estimate D2E/DX2                !
 ! A290  A(55,83,84)           116.1492         estimate D2E/DX2                !
 ! A291  A(57,83,84)           119.3735         estimate D2E/DX2                !
 ! A292  A(56,84,58)           116.0085         estimate D2E/DX2                !
 ! A293  A(56,84,83)           120.2771         estimate D2E/DX2                !
 ! A294  A(58,84,83)           118.5408         estimate D2E/DX2                !
 ! D1    D(17,1,5,9)            21.2771         estimate D2E/DX2                !
 ! D2    D(17,1,5,29)         -145.2963         estimate D2E/DX2                !
 ! D3    D(23,1,5,9)           133.9753         estimate D2E/DX2                !
 ! D4    D(23,1,5,29)          -32.598          estimate D2E/DX2                !
 ! D5    D(95,1,5,9)          -103.0583         estimate D2E/DX2                !
 ! D6    D(95,1,5,29)           90.3683         estimate D2E/DX2                !
 ! D7    D(5,1,17,15)          -23.1845         estimate D2E/DX2                !
 ! D8    D(5,1,17,19)          127.6783         estimate D2E/DX2                !
 ! D9    D(23,1,17,15)        -142.2522         estimate D2E/DX2                !
 ! D10   D(23,1,17,19)           8.6107         estimate D2E/DX2                !
 ! D11   D(95,1,17,15)          99.2998         estimate D2E/DX2                !
 ! D12   D(95,1,17,19)        -109.8374         estimate D2E/DX2                !
 ! D13   D(5,1,23,21)         -133.6391         estimate D2E/DX2                !
 ! D14   D(5,1,23,25)           28.6389         estimate D2E/DX2                !
 ! D15   D(17,1,23,21)         -13.7092         estimate D2E/DX2                !
 ! D16   D(17,1,23,25)         148.5688         estimate D2E/DX2                !
 ! D17   D(95,1,23,21)         105.0598         estimate D2E/DX2                !
 ! D18   D(95,1,23,25)         -92.6622         estimate D2E/DX2                !
 ! D19   D(43,2,6,10)         -137.6436         estimate D2E/DX2                !
 ! D20   D(43,2,6,15)           10.3364         estimate D2E/DX2                !
 ! D21   D(44,2,6,10)          -22.9594         estimate D2E/DX2                !
 ! D22   D(44,2,6,15)          125.0207         estimate D2E/DX2                !
 ! D23   D(91,2,6,10)          100.9958         estimate D2E/DX2                !
 ! D24   D(91,2,6,15)         -111.0242         estimate D2E/DX2                !
 ! D25   D(6,2,43,13)           -8.0374         estimate D2E/DX2                !
 ! D26   D(6,2,43,39)          149.8555         estimate D2E/DX2                !
 ! D27   D(44,2,43,13)        -124.3006         estimate D2E/DX2                !
 ! D28   D(44,2,43,39)          33.5923         estimate D2E/DX2                !
 ! D29   D(91,2,43,13)         113.4337         estimate D2E/DX2                !
 ! D30   D(91,2,43,39)         -88.6734         estimate D2E/DX2                !
 ! D31   D(6,2,44,40)         -147.7981         estimate D2E/DX2                !
 ! D32   D(6,2,44,47)           19.615          estimate D2E/DX2                !
 ! D33   D(43,2,44,40)         -37.44           estimate D2E/DX2                !
 ! D34   D(43,2,44,47)         129.9731         estimate D2E/DX2                !
 ! D35   D(91,2,44,40)          86.5404         estimate D2E/DX2                !
 ! D36   D(91,2,44,47)        -106.0465         estimate D2E/DX2                !
 ! D37   D(18,3,7,12)            3.6618         estimate D2E/DX2                !
 ! D38   D(18,3,7,30)          151.8376         estimate D2E/DX2                !
 ! D39   D(26,3,7,12)         -145.6774         estimate D2E/DX2                !
 ! D40   D(26,3,7,30)            2.4985         estimate D2E/DX2                !
 ! D41   D(7,3,18,16)            5.8202         estimate D2E/DX2                !
 ! D42   D(7,3,18,20)         -144.047          estimate D2E/DX2                !
 ! D43   D(26,3,18,16)         151.02           estimate D2E/DX2                !
 ! D44   D(26,3,18,20)           1.1529         estimate D2E/DX2                !
 ! D45   D(7,3,26,24)          146.5017         estimate D2E/DX2                !
 ! D46   D(7,3,26,28)           -4.5129         estimate D2E/DX2                !
 ! D47   D(18,3,26,24)          -2.6626         estimate D2E/DX2                !
 ! D48   D(18,3,26,28)        -153.6772         estimate D2E/DX2                !
 ! D49   D(45,4,8,11)           24.8057         estimate D2E/DX2                !
 ! D50   D(45,4,8,16)         -124.9549         estimate D2E/DX2                !
 ! D51   D(46,4,8,11)          140.7534         estimate D2E/DX2                !
 ! D52   D(46,4,8,16)           -9.0072         estimate D2E/DX2                !
 ! D53   D(88,4,8,11)          -98.73           estimate D2E/DX2                !
 ! D54   D(88,4,8,16)          111.5094         estimate D2E/DX2                !
 ! D55   D(8,4,45,41)          144.6364         estimate D2E/DX2                !
 ! D56   D(8,4,45,48)          -22.9586         estimate D2E/DX2                !
 ! D57   D(46,4,45,41)          33.8364         estimate D2E/DX2                !
 ! D58   D(46,4,45,48)        -133.7585         estimate D2E/DX2                !
 ! D59   D(88,4,45,41)         -89.9327         estimate D2E/DX2                !
 ! D60   D(88,4,45,48)         102.4723         estimate D2E/DX2                !
 ! D61   D(8,4,46,14)           10.2895         estimate D2E/DX2                !
 ! D62   D(8,4,46,42)         -146.15           estimate D2E/DX2                !
 ! D63   D(45,4,46,14)         126.5396         estimate D2E/DX2                !
 ! D64   D(45,4,46,42)         -29.8999         estimate D2E/DX2                !
 ! D65   D(88,4,46,14)        -110.9884         estimate D2E/DX2                !
 ! D66   D(88,4,46,42)          92.5721         estimate D2E/DX2                !
 ! D67   D(1,5,9,13)            -9.4798         estimate D2E/DX2                !
 ! D68   D(1,5,9,35)          -168.354          estimate D2E/DX2                !
 ! D69   D(29,5,9,13)          156.8139         estimate D2E/DX2                !
 ! D70   D(29,5,9,35)           -2.0603         estimate D2E/DX2                !
 ! D71   D(1,5,29,27)           10.6442         estimate D2E/DX2                !
 ! D72   D(1,5,29,31)          174.31           estimate D2E/DX2                !
 ! D73   D(9,5,29,27)         -155.983          estimate D2E/DX2                !
 ! D74   D(9,5,29,31)            7.6828         estimate D2E/DX2                !
 ! D75   D(2,6,10,49)           -0.3288         estimate D2E/DX2                !
 ! D76   D(2,6,10,53)          145.5898         estimate D2E/DX2                !
 ! D77   D(15,6,10,49)        -145.3198         estimate D2E/DX2                !
 ! D78   D(15,6,10,53)           0.5988         estimate D2E/DX2                !
 ! D79   D(2,6,15,13)           -9.2819         estimate D2E/DX2                !
 ! D80   D(2,6,15,17)         -154.4642         estimate D2E/DX2                !
 ! D81   D(10,6,15,13)         139.7856         estimate D2E/DX2                !
 ! D82   D(10,6,15,17)          -5.3966         estimate D2E/DX2                !
 ! D83   D(3,7,12,14)           -9.0315         estimate D2E/DX2                !
 ! D84   D(3,7,12,36)          144.7825         estimate D2E/DX2                !
 ! D85   D(30,7,12,14)        -153.1279         estimate D2E/DX2                !
 ! D86   D(30,7,12,36)           0.6862         estimate D2E/DX2                !
 ! D87   D(3,7,30,28)            0.4244         estimate D2E/DX2                !
 ! D88   D(3,7,30,32)         -150.9535         estimate D2E/DX2                !
 ! D89   D(12,7,30,28)         148.6331         estimate D2E/DX2                !
 ! D90   D(12,7,30,32)          -2.7448         estimate D2E/DX2                !
 ! D91   D(4,8,11,50)            1.6706         estimate D2E/DX2                !
 ! D92   D(4,8,11,54)         -145.9673         estimate D2E/DX2                !
 ! D93   D(16,8,11,50)         148.6035         estimate D2E/DX2                !
 ! D94   D(16,8,11,54)           0.9655         estimate D2E/DX2                !
 ! D95   D(4,8,16,14)            4.6619         estimate D2E/DX2                !
 ! D96   D(4,8,16,18)          153.0804         estimate D2E/DX2                !
 ! D97   D(11,8,16,14)        -145.7989         estimate D2E/DX2                !
 ! D98   D(11,8,16,18)           2.6196         estimate D2E/DX2                !
 ! D99   D(5,9,13,15)           -2.6862         estimate D2E/DX2                !
 ! D100  D(5,9,13,43)         -147.2249         estimate D2E/DX2                !
 ! D101  D(35,9,13,15)         157.0769         estimate D2E/DX2                !
 ! D102  D(35,9,13,43)          12.5382         estimate D2E/DX2                !
 ! D103  D(5,9,35,33)           -6.6984         estimate D2E/DX2                !
 ! D104  D(5,9,35,37)          150.9357         estimate D2E/DX2                !
 ! D105  D(13,9,35,33)        -166.2195         estimate D2E/DX2                !
 ! D106  D(13,9,35,37)          -8.5853         estimate D2E/DX2                !
 ! D107  D(6,10,49,47)          26.7393         estimate D2E/DX2                !
 ! D108  D(6,10,49,51)         141.9269         estimate D2E/DX2                !
 ! D109  D(6,10,49,90)         -95.7098         estimate D2E/DX2                !
 ! D110  D(53,10,49,47)       -121.8473         estimate D2E/DX2                !
 ! D111  D(53,10,49,51)         -6.6597         estimate D2E/DX2                !
 ! D112  D(53,10,49,90)        115.7036         estimate D2E/DX2                !
 ! D113  D(6,10,53,19)           3.9715         estimate D2E/DX2                !
 ! D114  D(6,10,53,55)        -142.0            estimate D2E/DX2                !
 ! D115  D(49,10,53,19)        154.0638         estimate D2E/DX2                !
 ! D116  D(49,10,53,55)          8.0924         estimate D2E/DX2                !
 ! D117  D(8,11,50,48)         -29.9804         estimate D2E/DX2                !
 ! D118  D(8,11,50,52)        -145.2191         estimate D2E/DX2                !
 ! D119  D(8,11,50,89)          92.552          estimate D2E/DX2                !
 ! D120  D(54,11,50,48)        120.1073         estimate D2E/DX2                !
 ! D121  D(54,11,50,52)          4.8686         estimate D2E/DX2                !
 ! D122  D(54,11,50,89)       -117.3603         estimate D2E/DX2                !
 ! D123  D(8,11,54,20)          -2.9433         estimate D2E/DX2                !
 ! D124  D(8,11,54,56)         146.266          estimate D2E/DX2                !
 ! D125  D(50,11,54,20)       -154.2372         estimate D2E/DX2                !
 ! D126  D(50,11,54,56)         -5.0278         estimate D2E/DX2                !
 ! D127  D(7,12,14,16)           5.1437         estimate D2E/DX2                !
 ! D128  D(7,12,14,46)         152.5085         estimate D2E/DX2                !
 ! D129  D(36,12,14,16)       -148.9657         estimate D2E/DX2                !
 ! D130  D(36,12,14,46)         -1.6009         estimate D2E/DX2                !
 ! D131  D(7,12,36,34)           4.1941         estimate D2E/DX2                !
 ! D132  D(7,12,36,38)        -150.3232         estimate D2E/DX2                !
 ! D133  D(14,12,36,34)        157.3065         estimate D2E/DX2                !
 ! D134  D(14,12,36,38)          2.7892         estimate D2E/DX2                !
 ! D135  D(9,13,15,6)         -144.5348         estimate D2E/DX2                !
 ! D136  D(9,13,15,17)           1.1495         estimate D2E/DX2                !
 ! D137  D(43,13,15,6)           3.8428         estimate D2E/DX2                !
 ! D138  D(43,13,15,17)        149.5271         estimate D2E/DX2                !
 ! D139  D(9,13,43,2)          151.4783         estimate D2E/DX2                !
 ! D140  D(9,13,43,39)          -7.0349         estimate D2E/DX2                !
 ! D141  D(15,13,43,2)           2.9862         estimate D2E/DX2                !
 ! D142  D(15,13,43,39)       -155.527          estimate D2E/DX2                !
 ! D143  D(12,14,16,8)         153.0545         estimate D2E/DX2                !
 ! D144  D(12,14,16,18)          4.3357         estimate D2E/DX2                !
 ! D145  D(46,14,16,8)           2.2629         estimate D2E/DX2                !
 ! D146  D(46,14,16,18)       -146.4559         estimate D2E/DX2                !
 ! D147  D(12,14,46,4)        -159.3063         estimate D2E/DX2                !
 ! D148  D(12,14,46,42)         -1.7042         estimate D2E/DX2                !
 ! D149  D(16,14,46,4)          -8.2094         estimate D2E/DX2                !
 ! D150  D(16,14,46,42)        149.3927         estimate D2E/DX2                !
 ! D151  D(6,15,17,1)          154.4135         estimate D2E/DX2                !
 ! D152  D(6,15,17,19)           5.5896         estimate D2E/DX2                !
 ! D153  D(13,15,17,1)          12.8637         estimate D2E/DX2                !
 ! D154  D(13,15,17,19)       -135.9602         estimate D2E/DX2                !
 ! D155  D(8,16,18,3)         -154.208          estimate D2E/DX2                !
 ! D156  D(8,16,18,20)          -4.155          estimate D2E/DX2                !
 ! D157  D(14,16,18,3)          -9.6982         estimate D2E/DX2                !
 ! D158  D(14,16,18,20)        140.3548         estimate D2E/DX2                !
 ! D159  D(1,17,19,21)          -0.7107         estimate D2E/DX2                !
 ! D160  D(1,17,19,53)        -152.6443         estimate D2E/DX2                !
 ! D161  D(15,17,19,21)        150.9426         estimate D2E/DX2                !
 ! D162  D(15,17,19,53)         -0.991          estimate D2E/DX2                !
 ! D163  D(3,18,20,22)           1.7997         estimate D2E/DX2                !
 ! D164  D(3,18,20,54)         151.5604         estimate D2E/DX2                !
 ! D165  D(16,18,20,22)       -147.6162         estimate D2E/DX2                !
 ! D166  D(16,18,20,54)          2.1445         estimate D2E/DX2                !
 ! D167  D(17,19,21,23)         -7.5501         estimate D2E/DX2                !
 ! D168  D(17,19,21,57)       -126.7207         estimate D2E/DX2                !
 ! D169  D(17,19,21,97)        110.7349         estimate D2E/DX2                !
 ! D170  D(53,19,21,23)        143.6716         estimate D2E/DX2                !
 ! D171  D(53,19,21,57)         24.501          estimate D2E/DX2                !
 ! D172  D(53,19,21,97)        -98.0434         estimate D2E/DX2                !
 ! D173  D(17,19,53,10)         -3.793          estimate D2E/DX2                !
 ! D174  D(17,19,53,55)        138.6576         estimate D2E/DX2                !
 ! D175  D(21,19,53,10)       -152.8802         estimate D2E/DX2                !
 ! D176  D(21,19,53,55)        -10.4295         estimate D2E/DX2                !
 ! D177  D(18,20,22,24)         -3.3889         estimate D2E/DX2                !
 ! D178  D(18,20,22,58)        139.6301         estimate D2E/DX2                !
 ! D179  D(54,20,22,24)       -153.7933         estimate D2E/DX2                !
 ! D180  D(54,20,22,58)        -10.7743         estimate D2E/DX2                !
 ! D181  D(18,20,54,11)          1.3246         estimate D2E/DX2                !
 ! D182  D(18,20,54,56)       -143.8233         estimate D2E/DX2                !
 ! D183  D(22,20,54,11)        151.5195         estimate D2E/DX2                !
 ! D184  D(22,20,54,56)          6.3716         estimate D2E/DX2                !
 ! D185  D(19,21,23,1)          13.3376         estimate D2E/DX2                !
 ! D186  D(19,21,23,25)       -148.9186         estimate D2E/DX2                !
 ! D187  D(57,21,23,1)         133.0473         estimate D2E/DX2                !
 ! D188  D(57,21,23,25)        -29.2089         estimate D2E/DX2                !
 ! D189  D(97,21,23,1)        -105.5149         estimate D2E/DX2                !
 ! D190  D(97,21,23,25)         92.2289         estimate D2E/DX2                !
 ! D191  D(19,21,57,59)        142.4568         estimate D2E/DX2                !
 ! D192  D(19,21,57,83)        -24.4365         estimate D2E/DX2                !
 ! D193  D(23,21,57,59)         29.7695         estimate D2E/DX2                !
 ! D194  D(23,21,57,83)       -137.1239         estimate D2E/DX2                !
 ! D195  D(97,21,57,59)        -93.1358         estimate D2E/DX2                !
 ! D196  D(97,21,57,83)         99.9709         estimate D2E/DX2                !
 ! D197  D(20,22,24,26)          1.9387         estimate D2E/DX2                !
 ! D198  D(20,22,24,62)        152.103          estimate D2E/DX2                !
 ! D199  D(58,22,24,26)       -145.1324         estimate D2E/DX2                !
 ! D200  D(58,22,24,62)          5.0319         estimate D2E/DX2                !
 ! D201  D(20,22,58,60)       -146.0232         estimate D2E/DX2                !
 ! D202  D(20,22,58,84)          5.1769         estimate D2E/DX2                !
 ! D203  D(24,22,58,60)          1.6683         estimate D2E/DX2                !
 ! D204  D(24,22,58,84)        152.8684         estimate D2E/DX2                !
 ! D205  D(1,23,25,27)          -0.7612         estimate D2E/DX2                !
 ! D206  D(1,23,25,61)        -156.7953         estimate D2E/DX2                !
 ! D207  D(21,23,25,27)        159.6924         estimate D2E/DX2                !
 ! D208  D(21,23,25,61)          3.6582         estimate D2E/DX2                !
 ! D209  D(22,24,26,3)           1.1085         estimate D2E/DX2                !
 ! D210  D(22,24,26,28)        148.5117         estimate D2E/DX2                !
 ! D211  D(62,24,26,3)        -145.512          estimate D2E/DX2                !
 ! D212  D(62,24,26,28)          1.8911         estimate D2E/DX2                !
 ! D213  D(22,24,62,60)         -9.0133         estimate D2E/DX2                !
 ! D214  D(22,24,62,64)       -124.5184         estimate D2E/DX2                !
 ! D215  D(22,24,62,94)        111.7985         estimate D2E/DX2                !
 ! D216  D(26,24,62,60)        140.4032         estimate D2E/DX2                !
 ! D217  D(26,24,62,64)         24.8981         estimate D2E/DX2                !
 ! D218  D(26,24,62,94)        -98.7851         estimate D2E/DX2                !
 ! D219  D(23,25,27,29)        -22.4648         estimate D2E/DX2                !
 ! D220  D(23,25,27,65)       -136.85           estimate D2E/DX2                !
 ! D221  D(23,25,27,93)        103.41           estimate D2E/DX2                !
 ! D222  D(61,25,27,29)        135.7965         estimate D2E/DX2                !
 ! D223  D(61,25,27,65)         21.4113         estimate D2E/DX2                !
 ! D224  D(61,25,27,93)        -98.3287         estimate D2E/DX2                !
 ! D225  D(23,25,61,59)         20.6743         estimate D2E/DX2                !
 ! D226  D(23,25,61,63)        136.2289         estimate D2E/DX2                !
 ! D227  D(23,25,61,96)       -104.8493         estimate D2E/DX2                !
 ! D228  D(27,25,61,59)       -137.5502         estimate D2E/DX2                !
 ! D229  D(27,25,61,63)        -21.9956         estimate D2E/DX2                !
 ! D230  D(27,25,61,96)         96.9262         estimate D2E/DX2                !
 ! D231  D(3,26,28,30)           4.4586         estimate D2E/DX2                !
 ! D232  D(3,26,28,66)         119.6673         estimate D2E/DX2                !
 ! D233  D(3,26,28,85)        -117.9351         estimate D2E/DX2                !
 ! D234  D(24,26,28,30)       -145.3525         estimate D2E/DX2                !
 ! D235  D(24,26,28,66)        -30.1438         estimate D2E/DX2                !
 ! D236  D(24,26,28,85)         92.2538         estimate D2E/DX2                !
 ! D237  D(25,27,29,5)          17.0606         estimate D2E/DX2                !
 ! D238  D(25,27,29,31)       -147.068          estimate D2E/DX2                !
 ! D239  D(65,27,29,5)         126.7455         estimate D2E/DX2                !
 ! D240  D(65,27,29,31)        -37.3831         estimate D2E/DX2                !
 ! D241  D(93,27,29,5)        -109.441          estimate D2E/DX2                !
 ! D242  D(93,27,29,31)         86.4304         estimate D2E/DX2                !
 ! D243  D(25,27,65,63)        -11.9367         estimate D2E/DX2                !
 ! D244  D(25,27,65,67)        150.6238         estimate D2E/DX2                !
 ! D245  D(29,27,65,63)       -129.4471         estimate D2E/DX2                !
 ! D246  D(29,27,65,67)         33.1135         estimate D2E/DX2                !
 ! D247  D(93,27,65,63)        107.6059         estimate D2E/DX2                !
 ! D248  D(93,27,65,67)        -89.8336         estimate D2E/DX2                !
 ! D249  D(26,28,30,7)          -2.9174         estimate D2E/DX2                !
 ! D250  D(26,28,30,32)        147.3797         estimate D2E/DX2                !
 ! D251  D(66,28,30,7)        -118.8749         estimate D2E/DX2                !
 ! D252  D(66,28,30,32)         31.4222         estimate D2E/DX2                !
 ! D253  D(85,28,30,7)         118.9737         estimate D2E/DX2                !
 ! D254  D(85,28,30,32)        -90.7291         estimate D2E/DX2                !
 ! D255  D(26,28,66,64)         30.7201         estimate D2E/DX2                !
 ! D256  D(26,28,66,68)       -140.4421         estimate D2E/DX2                !
 ! D257  D(30,28,66,64)        140.7349         estimate D2E/DX2                !
 ! D258  D(30,28,66,68)        -30.4273         estimate D2E/DX2                !
 ! D259  D(85,28,66,64)        -94.158          estimate D2E/DX2                !
 ! D260  D(85,28,66,68)         94.6797         estimate D2E/DX2                !
 ! D261  D(5,29,31,33)          -4.3146         estimate D2E/DX2                !
 ! D262  D(5,29,31,69)        -158.649          estimate D2E/DX2                !
 ! D263  D(27,29,31,33)        160.3435         estimate D2E/DX2                !
 ! D264  D(27,29,31,69)          6.0091         estimate D2E/DX2                !
 ! D265  D(7,30,32,34)          -0.2825         estimate D2E/DX2                !
 ! D266  D(7,30,32,70)         148.3522         estimate D2E/DX2                !
 ! D267  D(28,30,32,34)       -148.29           estimate D2E/DX2                !
 ! D268  D(28,30,32,70)          0.3447         estimate D2E/DX2                !
 ! D269  D(29,31,33,35)         -4.9026         estimate D2E/DX2                !
 ! D270  D(29,31,33,73)       -156.0334         estimate D2E/DX2                !
 ! D271  D(69,31,33,35)        152.8234         estimate D2E/DX2                !
 ! D272  D(69,31,33,73)          1.6926         estimate D2E/DX2                !
 ! D273  D(29,31,69,67)         32.9765         estimate D2E/DX2                !
 ! D274  D(29,31,69,71)        149.2956         estimate D2E/DX2                !
 ! D275  D(29,31,69,92)        -88.9681         estimate D2E/DX2                !
 ! D276  D(33,31,69,67)       -123.6245         estimate D2E/DX2                !
[...]
 Alpha virt. eigenvalues --    1.46804   1.47393   1.47651   1.48373   1.48829
 Alpha virt. eigenvalues --    1.49262   1.49912   1.51059   1.51409   1.52027
 Alpha virt. eigenvalues --    1.52859   1.53112   1.53830   1.54453   1.54730
 Alpha virt. eigenvalues --    1.55199   1.55413   1.56197   1.56674   1.56799
 Alpha virt. eigenvalues --    1.57628   1.57746   1.58791   1.58956   1.59256
 Alpha virt. eigenvalues --    1.59934   1.60621   1.61164   1.61425   1.61480
 Alpha virt. eigenvalues --    1.61744   1.62224   1.62446   1.62881   1.63215
 Alpha virt. eigenvalues --    1.63526   1.63745   1.63977   1.64293   1.64496
 Alpha virt. eigenvalues --    1.64602   1.64932   1.65005   1.65111   1.65400
 Alpha virt. eigenvalues --    1.65496   1.65764   1.66260   1.66495   1.66742
 Alpha virt. eigenvalues --    1.66853   1.67042   1.67136   1.67645   1.68001
 Alpha virt. eigenvalues --    1.68252   1.68335   1.68627   1.68870   1.69041
 Alpha virt. eigenvalues --    1.69386   1.69629   1.69707   1.70060   1.70375
 Alpha virt. eigenvalues --    1.70618   1.70746   1.70995   1.71204   1.71356
 Alpha virt. eigenvalues --    1.71628   1.71931   1.72398   1.72547   1.72805
 Alpha virt. eigenvalues --    1.72924   1.73035   1.73487   1.73523   1.73934
 Alpha virt. eigenvalues --    1.74251   1.74344   1.74562   1.74735   1.75067
 Alpha virt. eigenvalues --    1.75516   1.75681   1.75769   1.75860   1.75953
 Alpha virt. eigenvalues --    1.76194   1.76412   1.76703   1.76980   1.77255
 Alpha virt. eigenvalues --    1.77408   1.77869   1.77930   1.78173   1.78360
 Alpha virt. eigenvalues --    1.78554   1.78722   1.78936   1.79001   1.79368
 Alpha virt. eigenvalues --    1.79765   1.80110   1.80230   1.80581   1.81078
 Alpha virt. eigenvalues --    1.81288   1.81371   1.81622   1.81855   1.82002
 Alpha virt. eigenvalues --    1.82053   1.82447   1.82839   1.83066   1.83414
 Alpha virt. eigenvalues --    1.83855   1.84171   1.84477   1.84528   1.85178
 Alpha virt. eigenvalues --    1.85646   1.85930   1.86147   1.86217   1.86592
 Alpha virt. eigenvalues --    1.87072   1.87404   1.87604   1.87938   1.88123
 Alpha virt. eigenvalues --    1.88415   1.88867   1.89041   1.89332   1.89801
 Alpha virt. eigenvalues --    1.90001   1.90347   1.90493   1.91198   1.91460
 Alpha virt. eigenvalues --    1.91827   1.92191   1.92733   1.93265   1.93428
 Alpha virt. eigenvalues --    1.93845   1.94050   1.94231   1.94382   1.95040
 Alpha virt. eigenvalues --    1.95270   1.95458   1.96073   1.96233   1.96958
 Alpha virt. eigenvalues --    1.97109   1.97296   1.98005   1.98180   1.98508
 Alpha virt. eigenvalues --    1.98978   1.99325   1.99640   1.99788   2.00058
 Alpha virt. eigenvalues --    2.00347   2.00731   2.01147   2.01242   2.01365
 Alpha virt. eigenvalues --    2.01655   2.01797   2.02274   2.02634   2.02965
 Alpha virt. eigenvalues --    2.03401   2.03497   2.04009   2.04470   2.04786
 Alpha virt. eigenvalues --    2.05029   2.05878   2.06522   2.06817   2.06922
 Alpha virt. eigenvalues --    2.07308   2.07605   2.07721   2.08068   2.08767
 Alpha virt. eigenvalues --    2.08912   2.09313   2.09699   2.10103   2.10877
 Alpha virt. eigenvalues --    2.11031   2.11458   2.11759   2.12128   2.12249
 Alpha virt. eigenvalues --    2.12980   2.13172   2.13249   2.13481   2.13969
 Alpha virt. eigenvalues --    2.14721   2.14744   2.15084   2.15642   2.16245
 Alpha virt. eigenvalues --    2.16643   2.17053   2.17295   2.18109   2.18180
 Alpha virt. eigenvalues --    2.18584   2.18849   2.19332   2.19936   2.19989
 Alpha virt. eigenvalues --    2.20115   2.20793   2.21026   2.21250   2.21614
 Alpha virt. eigenvalues --    2.22383   2.22696   2.23012   2.23618   2.23907
 Alpha virt. eigenvalues --    2.24305   2.24775   2.25297   2.25417   2.25523
 Alpha virt. eigenvalues --    2.26365   2.26927   2.26982   2.27763   2.28066
 Alpha virt. eigenvalues --    2.28394   2.28749   2.29138   2.29826   2.30193
 Alpha virt. eigenvalues --    2.30620   2.30959   2.31428   2.31552   2.31922
 Alpha virt. eigenvalues --    2.32579   2.33169   2.33429   2.34476   2.34845
 Alpha virt. eigenvalues --    2.35062   2.35804   2.36115   2.36274   2.37221
 Alpha virt. eigenvalues --    2.37923   2.38421   2.38836   2.39216   2.39911
 Alpha virt. eigenvalues --    2.39945   2.40327   2.41188   2.41520   2.42429
 Alpha virt. eigenvalues --    2.42604   2.43014   2.43648   2.44080   2.44225
 Alpha virt. eigenvalues --    2.44790   2.45447   2.45508   2.46022   2.47119
 Alpha virt. eigenvalues --    2.47694   2.47839   2.48539   2.48695   2.49379
 Alpha virt. eigenvalues --    2.49657   2.50432   2.50565   2.51216   2.51619
 Alpha virt. eigenvalues --    2.51973   2.52225   2.52547   2.53044   2.53478
 Alpha virt. eigenvalues --    2.53895   2.54628   2.54881   2.55466   2.55891
 Alpha virt. eigenvalues --    2.56095   2.56311   2.56810   2.57114   2.57418
 Alpha virt. eigenvalues --    2.57562   2.57958   2.58169   2.58310   2.58789
 Alpha virt. eigenvalues --    2.59640   2.59732   2.59795   2.60401   2.60800
 Alpha virt. eigenvalues --    2.61140   2.61513   2.61843   2.62031   2.62468
 Alpha virt. eigenvalues --    2.62776   2.63225   2.63401   2.63681   2.64025
 Alpha virt. eigenvalues --    2.64218   2.64653   2.65178   2.65574   2.65812
 Alpha virt. eigenvalues --    2.66097   2.66689   2.66965   2.67174   2.67444
 Alpha virt. eigenvalues --    2.67827   2.68129   2.68486   2.68989   2.69274
 Alpha virt. eigenvalues --    2.69514   2.69913   2.70388   2.70754   2.71068
 Alpha virt. eigenvalues --    2.71336   2.71832   2.72005   2.72421   2.72853
 Alpha virt. eigenvalues --    2.73204   2.74000   2.74138   2.74312   2.74528
 Alpha virt. eigenvalues --    2.74773   2.75193   2.75993   2.76101   2.76433
 Alpha virt. eigenvalues --    2.76695   2.77107   2.77630   2.78238   2.78784
 Alpha virt. eigenvalues --    2.79239   2.79515   2.79726   2.80236   2.81044
 Alpha virt. eigenvalues --    2.81354   2.81744   2.81963   2.82566   2.83185
 Alpha virt. eigenvalues --    2.83677   2.84231   2.84680   2.85109   2.85473
 Alpha virt. eigenvalues --    2.85967   2.86829   2.87565   2.88194   2.88352
 Alpha virt. eigenvalues --    2.88724   2.89396   2.89513   2.90132   2.90248
 Alpha virt. eigenvalues --    2.91131   2.91626   2.91877   2.92394   2.92957
 Alpha virt. eigenvalues --    2.94136   2.94750   2.95289   2.95410   2.96895
 Alpha virt. eigenvalues --    2.97472   2.98785   2.99555   3.00165   3.00915
 Alpha virt. eigenvalues --    3.01377   3.02755   3.04007   3.04861   3.06941
 Alpha virt. eigenvalues --    3.08444   3.09112   3.10916   3.11574   3.12740
 Alpha virt. eigenvalues --    3.13750   3.16338   3.17196   3.18043   3.18335
 Alpha virt. eigenvalues --    3.19402   3.20239   3.21346   3.22893   3.23931
 Alpha virt. eigenvalues --    3.24998   3.27017   3.27600   3.28852   3.32315
 Alpha virt. eigenvalues --    3.33689   3.37510   3.39585   3.41226   3.41815
 Alpha virt. eigenvalues --    3.42005   3.43004   3.47790   3.49011   3.52102
 Alpha virt. eigenvalues --    3.54127   3.60529   4.00621   4.01519   4.01672
 Alpha virt. eigenvalues --    4.02747   4.02875   4.03559   4.03976   4.05536
 Alpha virt. eigenvalues --    4.06596   4.06684   4.07024   4.08078   4.08953
 Alpha virt. eigenvalues --    4.09111   4.09829   4.10044   4.10672   4.11574
 Alpha virt. eigenvalues --    4.12439   4.13440   4.14262   4.15326   4.15740
 Alpha virt. eigenvalues --    4.16005   4.16971   4.18201   4.18943   4.19364
 Alpha virt. eigenvalues --    4.19890   4.21344   4.21374   4.21866   4.22424
 Alpha virt. eigenvalues --    4.24302   4.25192   4.25476   4.25630   4.25750
 Alpha virt. eigenvalues --    4.26272   4.27075   4.27303   4.27692   4.28306
 Alpha virt. eigenvalues --    4.28492   4.29245   4.29629   4.30550   4.31346
 Alpha virt. eigenvalues --    4.32414   4.33764   4.33904   4.34530   4.36244
 Alpha virt. eigenvalues --    4.37634   4.38518   4.39016   4.40101   4.40584
 Alpha virt. eigenvalues --    4.41431   4.41986   4.42391   4.43135   4.43977
 Alpha virt. eigenvalues --    4.44735   4.46777   4.47907   4.48512   4.50744
 Alpha virt. eigenvalues --    4.51756   4.53313   4.54439   4.56243   4.56862
 Alpha virt. eigenvalues --    4.57479   4.59473   4.60207   4.63321   4.63649
 Alpha virt. eigenvalues --    4.64344   4.67093   4.68087   4.69732   4.76117
 Alpha virt. eigenvalues --    4.78043   4.80362   4.81037   4.82415   4.84628
 Alpha virt. eigenvalues --    4.84875   4.90040   4.94346   4.96716   5.01330
 Alpha virt. eigenvalues --    5.03275   5.06351   5.11465   5.12734   5.22519
          Condensed to atoms (all electrons):
 Mulliken charges:
               1
     1  C   -0.358660
     2  C   -0.383882
     3  C    0.007317
     4  C   -0.386282
     5  C    0.089587
     6  C    0.091424
     7  C    0.010987
     8  C    0.090758
     9  C    0.060021
    10  C    0.092287
    11  C    0.090842
    12  C    0.041507
    13  C   -0.008542
    14  C    0.010286
    15  C    0.029782
    16  C    0.011279
    17  C    0.106757
    18  C    0.044095
    19  C    0.107343
    20  C    0.046638
    21  C   -0.356467
    22  C    0.010673
    23  C    0.180371
    24  C    0.090307
    25  C    0.185612
    26  C    0.092606
    27  C   -0.376351
    28  C   -0.381433
    29  C    0.153715
    30  C    0.087227
    31  C    0.080830
    32  C    0.092108
    33  C    0.007765
    34  C    0.008505
    35  C    0.030007
    36  C    0.036084
    37  C    0.072289
    38  C    0.070258
    39  C    0.122539
    40  C    0.120740
    41  C    0.114870
    42  C    0.122454
    43  C    0.082644
    44  C    0.140501
    45  C    0.142735
    46  C    0.078425
    47  C    0.120029
    48  C    0.125955
    49  C   -0.377538
    50  C   -0.381106
    51  C    0.096273
    52  C    0.088626
    53  C    0.029485
    54  C    0.008471
    55  C   -0.010334
    56  C    0.009433
    57  C    0.089332
    58  C    0.006960
    59  C    0.155331
    60  C    0.079206
    61  C   -0.378139
    62  C   -0.388069
    63  C    0.113272
    64  C    0.145093
    65  C    0.119004
    66  C    0.125178
    67  C    0.144717
    68  C    0.121317
    69  C   -0.382714
    70  C   -0.376077
    71  C    0.089606
    72  C    0.094165
    73  C    0.020021
    74  C    0.019283
    75  C   -0.005088
    76  C   -0.004687
    77  C   -0.045690
    78  C   -0.042692
    79  C   -0.352444
    80  C   -0.354132
    81  C    0.036801
    82  C    0.137118
    83  C    0.071504
    84  C    0.041467
    85  Cl   0.024877
    86  Cl   0.016313
    87  Cl  -0.013873
    88  Cl   0.028235
    89  Cl   0.020770
    90  Cl   0.020961
    91  Cl   0.028538
    92  Cl   0.017779
    93  Cl   0.028315
    94  Cl   0.025461
    95  Cl  -0.000235
    96  Cl   0.025806
    97  Cl   0.002645
    98  Cl  -0.017087
 Sum of Mulliken charges =  -0.00000
 Mulliken charges with hydrogens summed into heavy atoms:
               1
     1  C   -0.358660
     2  C   -0.383882
     3  C    0.007317
     4  C   -0.386282
     5  C    0.089587
     6  C    0.091424
     7  C    0.010987
     8  C    0.090758
     9  C    0.060021
    10  C    0.092287
    11  C    0.090842
    12  C    0.041507
    13  C   -0.008542
    14  C    0.010286
    15  C    0.029782
    16  C    0.011279
    17  C    0.106757
    18  C    0.044095
    19  C    0.107343
    20  C    0.046638
    21  C   -0.356467
    22  C    0.010673
    23  C    0.180371
    24  C    0.090307
    25  C    0.185612
    26  C    0.092606
    27  C   -0.376351
    28  C   -0.381433
    29  C    0.153715
    30  C    0.087227
    31  C    0.080830
    32  C    0.092108
    33  C    0.007765
    34  C    0.008505
    35  C    0.030007
    36  C    0.036084
    37  C    0.072289
    38  C    0.070258
    39  C    0.122539
    40  C    0.120740
    41  C    0.114870
    42  C    0.122454
    43  C    0.082644
    44  C    0.140501
    45  C    0.142735
    46  C    0.078425
    47  C    0.120029
    48  C    0.125955
    49  C   -0.377538
    50  C   -0.381106
    51  C    0.096273
    52  C    0.088626
    53  C    0.029485
    54  C    0.008471
    55  C   -0.010334
    56  C    0.009433
    57  C    0.089332
    58  C    0.006960
    59  C    0.155331
    60  C    0.079206
    61  C   -0.378139
    62  C   -0.388069
    63  C    0.113272
    64  C    0.145093
    65  C    0.119004
    66  C    0.125178
    67  C    0.144717
    68  C    0.121317
    69  C   -0.382714
    70  C   -0.376077
    71  C    0.089606
    72  C    0.094165
    73  C    0.020021
    74  C    0.019283
    75  C   -0.005088
    76  C   -0.004687
    77  C   -0.045690
    78  C   -0.042692
    79  C   -0.352444
    80  C   -0.354132
    81  C    0.036801
    82  C    0.137118
    83  C    0.071504
    84  C    0.041467
    85  Cl   0.024877
    86  Cl   0.016313
    87  Cl  -0.013873
    88  Cl   0.028235
    89  Cl   0.020770
    90  Cl   0.020961
    91  Cl   0.028538
    92  Cl   0.017779
    93  Cl   0.028315
    94  Cl   0.025461
    95  Cl  -0.000235
    96  Cl   0.025806
    97  Cl   0.002645
    98  Cl  -0.017087
 Electronic spatial extent (au):  <R**2>=          67075.7211
 Charge=             -0.0000 electrons
 Dipole moment (field-independent basis, Debye):
    X=              0.1154    Y=             -3.0518    Z=              2.0485  Tot=              3.6774
 Quadrupole moment (field-independent basis, Debye-Ang):
   XX=           -705.6131   YY=           -654.5928   ZZ=           -639.7875
   XY=             -7.2601   XZ=             -5.9092   YZ=             -0.2825
 Traceless Quadrupole moment (field-independent basis, Debye-Ang):
   XX=            -38.9486   YY=             12.0717   ZZ=             26.8770
   XY=             -7.2601   XZ=             -5.9092   YZ=             -0.2825
 Octapole moment (field-independent basis, Debye-Ang**2):
  XXX=             77.9580  YYY=            -44.5179  ZZZ=             26.8134  XYY=            -29.9365
  XXY=             39.9420  XXZ=             32.0757  XZZ=             22.0062  YZZ=             -0.5133
  YYZ=             10.9800  XYZ=             13.9526
 Hexadecapole moment (field-independent basis, Debye-Ang**3):
 XXXX=         -40568.6396 YYYY=         -29761.8903 ZZZZ=         -24126.3439 XXXY=            -31.5509
 XXXZ=            -80.6048 YYYX=            -66.7435 YYYZ=            -38.8021 ZZZX=            -63.7820
 ZZZY=            -34.1315 XXYY=         -11951.0115 XXZZ=         -11070.8333 YYZZ=          -8953.3891
 XXYZ=            -73.6632 YYXZ=             -8.3235 ZZXY=              7.1522
 N-N= 2.602149276921D+04 E-N=-7.474684949850D+04  KE= 9.594192207716D+03
 No NMR shielding tensors so no spin-rotation constants.
 Leave Link  601 at Mon Jun 27 05:09:32 2022, MaxMem=  1342177280 cpu:              27.6 elap:               1.4
 (Enter /home/mkliu/g16/l9999.exe)
 1\1\GINC-NODE04\FOpt\RB3LYP\6-31G(d,p)\C84Cl14\MKLIU\27-Jun-2022\0\\#P
  opt b3lyp/6-31G(d, p) empiricaldispersion=GD3\\force\\0,1\C,8.4159166
 342,18.6528846403,10.8079537742\C,12.6069335308,19.9844251637,8.881897
 5181\C,8.2522861062,26.8729659543,10.5198607834\C,12.5042174349,25.759
 9622852,8.9075275198\C,8.0093739091,19.1600400726,9.4320139438\C,12.08
 50320229,19.4905746049,10.2087378548\C,7.9408219297,26.8439080084,9.12
 30911344\C,11.8873924962,26.1893791525,10.217949704\C,8.9795241626,19.
 2585600197,8.385748264\C,12.3535880098,20.1239674139,11.3844819439\C,1
 2.1464257995,25.5430528615,11.385771183\C,8.9553311744,26.6554066552,8
 .1426140915\C,10.3725981756,19.0782529356,8.690801447\C,10.2940146622,
 26.689127251,8.6090367887\C,10.8190971103,18.8539740721,10.0162491709\
 C,10.6109892127,26.7950922277,9.9910118812\C,9.8883185589,18.791124577
 6,11.0624702829\C,9.590383209,26.7827160526,10.9837146898\C,10.1549478
 714,19.4403954998,12.2551080606\C,9.845996001,26.0610135665,12.2075147
 599\C,8.8933178987,19.8518120502,12.9646685292\C,8.7493876779,25.44614
 01353,12.8567803941\C,7.845352808,19.5093737746,11.9232961938\C,7.4174
 495175,25.5798702549,12.3802682929\C,6.7250237767,20.2045297855,11.782
 6298234\C,7.1670630655,26.2858455995,11.2396618072\C,5.9232733583,20.1
 845630735,10.5057723087\C,6.0261014024,25.9428344376,10.2973626357\C,6
 .753859178,19.7865387703,9.2973677315\C,6.6345469043,26.2997183809,8.9
 570659153\C,6.4131509391,20.3719996786,8.0846551043\C,6.3315628409,25.
 6271636089,7.81835484\C,7.3377921971,20.4233293952,7.0213535775\C,7.31
 16174668,25.4723111028,6.7841622555\C,8.6729671149,19.9688367694,7.175
 7360165\C,8.6590365982,25.9074275825,6.9474219101\C,9.7248840327,20.62
 77657444,6.4093720587\C,9.7253770984,25.1643423844,6.2876937731\C,11.0
 900107609,20.5749631747,6.8895422312\C,12.7635998366,22.187291558,7.75
 89582202\C,12.7435727411,23.5786286988,7.7620560565\C,11.0768576771,25
 .1986404194,6.838751908\C,11.3786422307,19.7867755463,7.9766440779\C,1
 2.9532938825,21.4661151092,8.936404278\C,12.899139156,24.2921804603,8.
 9462208887\C,11.3349494541,25.9732785796,7.9372377651\C,13.1578109879,
 22.1658913165,10.1438530214\C,13.1232010468,23.5874448752,10.148349445
 4\C,13.1931360481,21.3868042008,11.467724367\C,13.0890734491,24.353880
 1751,11.4741517437\C,12.448818968,22.1611080083,12.5423548145\C,12.407
 8655528,23.5209241579,12.5372790667\C,11.3605892291,20.1347915291,12.4
 191922497\C,11.1200671167,25.4405114583,12.3790364659\C,11.3617198275,
 21.3973959821,13.060738596\C,11.2620987866,24.1934823879,13.0505571784
 \C,8.8870421068,21.3334482451,13.3206431829\C,8.8850543914,24.14121248
 92,13.4587046346\C,7.6712556108,22.0496005315,13.2166529315\C,7.674078
 44,23.4372591778,13.3303128595\C,6.4234401741,21.4249522159,12.6143315
 11\C,6.5965854095,24.3690686104,12.7700223833\C,5.84618779,22.34649756
 53,11.5504989274\C,5.9521233213,23.7368310764,11.5497893581\C,5.550030
 3346,21.6534946443,10.3832535527\C,5.7143007638,24.4404149492,10.35053
 10899\C,5.3372115787,22.3245453097,9.1785959741\C,5.3984162462,23.7334
 279834,9.1608444094\C,5.3610712168,21.4748627638,7.9174052896\C,5.3464
 530444,24.4709677406,7.812091034\C,5.9096898244,22.2493270099,6.742469
 0249\C,5.9021794536,23.6090167743,6.6938791998\C,7.0001481677,21.51764
 94457,6.1538987277\C,6.9939569668,24.299196758,6.0440066318\C,8.014018
 1044,22.1570291282,5.4621549622\C,8.018125867,23.6005685622,5.41136697
 17\C,9.3658893779,21.6952912147,5.5642183719\C,9.3695404389,24.0532705
 587,5.5004040416\C,12.1075950153,21.633371356,6.5038894822\C,12.099588
 633,24.1257155123,6.4955491205\C,10.2313264615,22.8681244807,5.4650727
 248\C,11.4917262409,22.8756896916,5.9389045316\C,10.1266096341,22.0271
 676606,13.4701075076\C,10.1250265111,23.4657979783,13.5119263238\Cl,4.
 5122997988,26.9123064312,10.6803616316\Cl,3.6167741085,25.0131486435,7
 .4786732636\Cl,13.394575548,24.8423038155,5.3486659588\Cl,13.947781631
 3,26.8145761581,8.4720800985\Cl,14.7899071025,24.8690253891,11.9555552
 45\Cl,14.9373329565,21.0266680864,11.927469025\Cl,14.0546962766,18.993
 8466303,8.3351865563\Cl,3.6790429228,20.8112697771,7.5528866389\Cl,4.4
 419717285,19.1005053332,10.6769740364\Cl,5.3229079439,24.7915414204,14
 .0311961876\Cl,7.8876229811,16.8724788954,10.9799903154\Cl,5.188949320
 4,21.0578882853,13.9370664417\Cl,8.6547050592,18.8554103511,14.5202069
 649\Cl,13.3773040834,20.9127551325,5.3276180217\\Version=ES64L-G16RevA
 .03\State=1-A\HF=-9643.8130367\RMSD=5.402e-09\RMSF=2.959e-05\Dipole=-0
 .1414085,1.4397963,0.0152684\Quadrupole=-23.3023856,12.2747014,11.0276
 842,-3.2611858,15.6882372,6.5781344\PG=C01 [X(C84Cl14)]\\@


 HE WHO LOVES TO READ, AND KNOWS HOW TO REFLECT,
 HAS LAID BY A PERPETUAL FEAST FOR HIS OLD AGE.
 -- UNCLE ESEK, "SCRIBNER'S MONTHLY", SEPT. 1880
 Job cpu time:       1 days 17 hours 34 minutes 41.6 seconds.
 Elapsed time:       0 days  1 hours 44 minutes  5.0 seconds.
 File lengths (MBytes):  RWF=   1429 Int=      0 D2E=      0 Chk=    179 Scr=      1
 Normal termination of Gaussian 16 at Mon Jun 27 05:09:34 2022.
