 Entering Gaussian System, Link 0=g16
 Input=14_addons_C84_11_Cl22_rank_6.gjf
 Output=14_addons_C84_11_Cl22_rank_6.log
 Initial command:
 /home/mkliu/g16/l1.exe "/data/scratch/Gau-31709.inp" -scrdir="/data/scratch/"
 Entering Link 1 = /home/mkliu/g16/l1.exe PID=     31710.
  
 Copyright (c) 1988,1990,1992,1993,1995,1998,2003,2009,2016,
            Gaussian, Inc.  All Rights Reserved.
  
 This is part of the Gaussian(R) 16 program.  It is based on
 the Gaussian(R) 09 system (copyright 2009, Gaussian, Inc.),
 the Gaussian(R) 03 system (copyright 2003, Gaussian, Inc.),
 the Gaussian(R) 98 system (copyright 1998, Gaussian, Inc.),
 the Gaussian(R) 94 system (copyright 1995, Gaussian, Inc.),
 the Gaussian 92(TM) system (copyright 1992, Gaussian, Inc.),
 the Gaussian 90(TM) system (copyright 1990, Gaussian, Inc.),
 the Gaussian 88(TM) system (copyright 1988, Gaussian, Inc.),
 the Gaussian 86(TM) system (copyright 1986, Carnegie Mellon
 University), and the Gaussian 82(TM) system (copyright 1983,
 Carnegie Mellon University). Gaussian is a federally registered
 trademark of Gaussian, Inc.
  
 This software contains proprietary and confidential information,
 including trade secrets, belonging to Gaussian, Inc.
  
 This software is provided under written license and may be
 used, copied, transmitted, or stored only in accord with that
 written license.
  
 The following legend is applicable only to US Government
 contracts under FAR:
  
                    RESTRICTED RIGHTS LEGEND
  
 Use, reproduction and disclosure by the US Government is
 subject to restrictions as set forth in subparagraphs (a)
 and (c) of the Commercial Computer Software - Restricted
 Rights clause in FAR 52.227-19.
  
 Gaussian, Inc.
 340 Quinnipiac St., Bldg. 40, Wallingford CT 06492
  
  
 ---------------------------------------------------------------
 Warning -- This program may not be used in any manner that
 competes with the business of Gaussian, Inc. or will provide
 assistance to any competitor of Gaussian, Inc.  The licensee
 of this program is prohibited from giving any competitor of
 Gaussian, Inc. access to this program.  By using this program,
 the user acknowledges that Gaussian, Inc. is engaged in the
 business of creating and licensing software in the field of
 computational chemistry and represents and warrants to the
 licensee that it is not a competitor of Gaussian, Inc. and that
 it will not use this program in any manner prohibited above.
 ---------------------------------------------------------------
  

 Cite this work as:
 Gaussian 16, Revision A.03,
 M. J. Frisch, G. W. Trucks, H. B. Schlegel, G. E. Scuseria, 
 M. A. Robb, J. R. Cheeseman, G. Scalmani, V. Barone, 
 G. A. Petersson, H. Nakatsuji, X. Li, M. Caricato, A. V. Marenich, 
 J. Bloino, B. G. Janesko, R. Gomperts, B. Mennucci, H. P. Hratchian, 
 J. V. Ortiz, A. F. Izmaylov, J. L. Sonnenberg, D. Williams-Young, 
 F. Ding, F. Lipparini, F. Egidi, J. Goings, B. Peng, A. Petrone, 
 T. Henderson, D. Ranasinghe, V. G. Zakrzewski, J. Gao, N. Rega, 
 G. Zheng, W. Liang, M. Hada, M. Ehara, K. Toyota, R. Fukuda, 
 J. Hasegawa, M. Ishida, T. Nakajima, Y. Honda, O. Kitao, H. Nakai, 
 T. Vreven, K. Throssell, J. A. Montgomery, Jr., J. E. Peralta, 
 F. Ogliaro, M. J. Bearpark, J. J. Heyd, E. N. Brothers, K. N. Kudin, 
 V. N. Staroverov, T. A. Keith, R. Kobayashi, J. Normand, 
 K. Raghavachari, A. P. Rendell, J. C. Burant, S. S. Iyengar, 
 J. Tomasi, M. Cossi, J. M. Millam, M. Klene, C. Adamo, R. Cammi, 
 J. W. Ochterski, R. L. Martin, K. Morokuma, O. Farkas, 
 J. B. Foresman, and D. J. Fox, Gaussian, Inc., Wallingford CT, 2016.
 
 ******************************************
 Gaussian 16:  ES64L-G16RevA.03 25-Dec-2016
                28-Jun-2022 
 ******************************************
 %mem=10GB
 %chk=14_addons_C84_11_Cl22_rank_6.chk
 %nprocshared=24
 Will use up to   24 processors via shared memory.
 ------------------------------------------------
 #P opt b3lyp/6-31G(d, p) empiricaldispersion=GD3
 ------------------------------------------------
 1/18=20,19=15,26=3,38=1/1,3;
 2/9=110,12=2,17=6,18=5,40=1/2;
 3/5=1,6=6,7=101,11=2,25=1,30=1,71=1,74=-5,124=31/1,2,3;
 4//1;
 5/5=2,38=5/2;
 6/7=2,8=2,9=2,10=2,28=1/1;
 7//1,2,3,16;
 1/18=20,19=15,26=3/3(2);
 2/9=110/2;
 99//99;
 2/9=110/2;
 3/5=1,6=6,7=101,11=2,25=1,30=1,71=1,74=-5,124=31/1,2,3;
 4/5=5,16=3,69=1/1;
 5/5=2,38=5/2;
 7//1,2,3,16;
 1/18=20,19=15,26=3/3(-5);
 2/9=110/2;
 6/7=2,8=2,9=2,10=2,19=2,28=1/1;
 99/9=1/99;
 Leave Link    1 at Tue Jun 28 01:30:14 2022, MaxMem=  1342177280 cpu:               0.6 elap:               0.1
 (Enter /home/mkliu/g16/l101.exe)
 -----
 force
 -----
 Symbolic Z-matrix:
 Charge =  0 Multiplicity = 1
 C                     8.43551   18.684    10.78781 
 C                     12.57138   20.00523   8.88553 
 C                     8.26529   26.83853   10.51083 
 C                     12.4969   25.7438   8.90381 
 C                     8.03852   19.19209   9.41683 
 C                     12.05416   19.52578   10.20588 
 C                     7.9586    26.80991   9.12345 
 C                     11.88487   26.15787   10.20967 
 C                     8.98681   19.27756   8.36488 
 C                     12.31189   20.17461   11.38507 
 C                     12.14087   25.50658   11.36805 
 C                     8.96248   26.61272   8.14881 
 C                     10.37234   19.10459   8.66501 
 C                     10.29155   26.65033   8.61779 
 C                     10.8111   18.89132   10.02529 
 C                     10.60701   26.75929   9.9887 
 C                     9.89722   18.81653   11.0493 
 C                     9.59456   26.74901   10.97578 
 C                     10.16957   19.46606   12.25658 
 C                     9.84772   26.03443   12.18727 
 C                     8.90573   19.86962   12.94704 
 C                     8.75826   25.42261   12.82686 
 C                     7.87956   19.54635   11.88946 
 C                     7.42275   25.55685   12.35857 
 C                     6.75441   20.22796   11.75203 
 C                     7.17466   26.26132   11.2236 
 C                     5.95756   20.2047   10.48137 
 C                     6.042     25.92791   10.28823 
 C                     6.79398   19.81819   9.29153 
 C                     6.65405   26.27402   8.9624 
 C                     6.44737   20.40146   8.08463 
 C                     6.34889   25.6083   7.82345 
 C                     7.35459   20.43988   7.01974 
 C                     7.3265    25.45596   6.79929 
 C                     8.67961   19.97496   7.15563 
 C                     8.66765   25.8729   6.96229 
 C                     9.71568   20.62104   6.38495 
 C                     9.72115   25.13366   6.3043 
 C                     11.06101   20.59915   6.87693 
 C                     12.70915   22.18949   7.78946 
 C                     12.73273   23.58733   7.77655 
 C                     11.05595   25.16477   6.86064 
 C                     11.36244   19.78685   7.98968 
 C                     12.90851   21.47154   8.95961 
 C                     12.8901   24.28885   8.95186 
 C                     11.32779   25.93611   7.95156 
 C                     13.13319   22.17146   10.15291 
 C                     13.10745   23.57691   10.14659 
 C                     13.17393   21.40068   11.46653 
 C                     13.07664   24.33176   11.4594 
 C                     12.46784   22.16506   12.54628 
 C                     12.39841   23.4969   12.50919 
 C                     11.35564   20.14315   12.41649 
 C                     11.1121   25.40644   12.3613 
 C                     11.45972   21.33817   13.30142 
 C                     11.25308   24.18819   13.03874 
 C                     8.91752   21.35037   13.26483 
 C                     8.89429   24.12671   13.40591 
 C                     7.69036   22.05714   13.15977 
 C                     7.68227   23.42615   13.27556 
 C                     6.44693   21.43701   12.58194 
 C                     6.60828   24.35531   12.7459 
 C                     5.89345   22.35467   11.52083 
 C                     5.99012   23.73534   11.5199 
 C                     5.60672   21.66418   10.3533 
 C                     5.75598   24.43436   10.3275 
 C                     5.39474   22.33425   9.16005 
 C                     5.44945   23.73551   9.14634 
 C                     5.38985   21.47917   7.91926 
 C                     5.36554   24.46807   7.81422 
 C                     5.91947   22.25014   6.74614 
 C                     5.9152    23.61199   6.70297 
 C                     7.00357   21.53301   6.15993 
 C                     6.99411   24.29171   6.05805 
 C                     8.00354   22.17191   5.46039 
 C                     8.00934   23.60067   5.40963 
 C                     9.35653   21.71135   5.56033 
 C                     9.35789   24.04956   5.48753 
 C                     11.88249   21.72755   6.68821 
 C                     12.08004   24.11249   6.51717 
 C                     10.1885   22.86043   5.43947 
 C                     11.44727   22.85694   5.99269 
 C                     10.11958   22.02877   13.43834 
 C                     10.12277   23.45065   13.47057 
 Cl                    4.52874   26.82833   10.65311 
 Cl                    3.66123   24.97963   7.54387 
 Cl                    13.30163   24.79574   5.37213 
 Cl                    13.91145   26.7554   8.43174 
 Cl                    14.7541   24.80143   11.91824 
 Cl                    14.89615   21.02749   11.8598 
 Cl                    14.01621   19.08421   8.31824 
 Cl                    3.74357   20.80593   7.63934 
 Cl                    4.50001   19.15377   10.61287 
 Cl                    5.33709   24.71294   13.96749 
 Cl                    7.869     16.96515   10.93879 
 Cl                    5.24007   21.1032   13.87897 
 Cl                    8.60557   18.94954   14.47171 
 Cl                    12.06658   20.92262   14.9648 
 
 ITRead=  0  0  0  0  0  0  0  0  0  0  0  0  0  0  0  0  0  0  0  0
 ITRead=  0  0  0  0  0  0  0  0  0  0  0  0  0  0  0  0  0  0  0  0
 ITRead=  0  0  0  0  0  0  0  0  0  0  0  0  0  0  0  0  0  0  0  0
 ITRead=  0  0  0  0  0  0  0  0  0  0  0  0  0  0  0  0  0  0  0  0
 ITRead=  0  0  0  0  0  0  0  0  0  0  0  0  0  0  0  0  0  0
 MicOpt= -1 -1 -1 -1 -1 -1 -1 -1 -1 -1 -1 -1 -1 -1 -1 -1 -1 -1 -1 -1
 MicOpt= -1 -1 -1 -1 -1 -1 -1 -1 -1 -1 -1 -1 -1 -1 -1 -1 -1 -1 -1 -1
 MicOpt= -1 -1 -1 -1 -1 -1 -1 -1 -1 -1 -1 -1 -1 -1 -1 -1 -1 -1 -1 -1
 MicOpt= -1 -1 -1 -1 -1 -1 -1 -1 -1 -1 -1 -1 -1 -1 -1 -1 -1 -1 -1 -1
 MicOpt= -1 -1 -1 -1 -1 -1 -1 -1 -1 -1 -1 -1 -1 -1 -1 -1 -1 -1
 NAtoms=     98 NQM=       98 NQMF=       0 NMMI=      0 NMMIF=      0
                NMic=       0 NMicF=      0.
                    Isotopes and Nuclear Properties:
 (Nuclear quadrupole moments (NQMom) in fm**2, nuclear magnetic moments (NMagM)
  in nuclear magnetons)

  Atom         1           2           3           4           5           6           7           8           9          10
 IAtWgt=          12          12          12          12          12          12          12          12          12          12
 AtmWgt=  12.0000000  12.0000000  12.0000000  12.0000000  12.0000000  12.0000000  12.0000000  12.0000000  12.0000000  12.0000000
 NucSpn=           0           0           0           0           0           0           0           0           0           0
 AtZEff=  -0.0000000  -0.0000000  -0.0000000  -0.0000000  -0.0000000  -0.0000000  -0.0000000  -0.0000000  -0.0000000  -0.0000000
 NQMom=    0.0000000   0.0000000   0.0000000   0.0000000   0.0000000   0.0000000   0.0000000   0.0000000   0.0000000   0.0000000
 NMagM=    0.0000000   0.0000000   0.0000000   0.0000000   0.0000000   0.0000000   0.0000000   0.0000000   0.0000000   0.0000000
 AtZNuc=   6.0000000   6.0000000   6.0000000   6.0000000   6.0000000   6.0000000   6.0000000   6.0000000   6.0000000   6.0000000

  Atom        11          12          13          14          15          16          17          18          19          20
 IAtWgt=          12          12          12          12          12          12          12          12          12          12
 AtmWgt=  12.0000000  12.0000000  12.0000000  12.0000000  12.0000000  12.0000000  12.0000000  12.0000000  12.0000000  12.0000000
 NucSpn=           0           0           0           0           0           0           0           0           0           0
 AtZEff=  -0.0000000  -0.0000000  -0.0000000  -0.0000000  -0.0000000  -0.0000000  -0.0000000  -0.0000000  -0.0000000  -0.0000000
 NQMom=    0.0000000   0.0000000   0.0000000   0.0000000   0.0000000   0.0000000   0.0000000   0.0000000   0.0000000   0.0000000
 NMagM=    0.0000000   0.0000000   0.0000000   0.0000000   0.0000000   0.0000000   0.0000000   0.0000000   0.0000000   0.0000000
 AtZNuc=   6.0000000   6.0000000   6.0000000   6.0000000   6.0000000   6.0000000   6.0000000   6.0000000   6.0000000   6.0000000

  Atom        21          22          23          24          25          26          27          28          29          30
 IAtWgt=          12          12          12          12          12          12          12          12          12          12
 AtmWgt=  12.0000000  12.0000000  12.0000000  12.0000000  12.0000000  12.0000000  12.0000000  12.0000000  12.0000000  12.0000000
 NucSpn=           0           0           0           0           0           0           0           0           0           0
 AtZEff=  -0.0000000  -0.0000000  -0.0000000  -0.0000000  -0.0000000  -0.0000000  -0.0000000  -0.0000000  -0.0000000  -0.0000000
 NQMom=    0.0000000   0.0000000   0.0000000   0.0000000   0.0000000   0.0000000   0.0000000   0.0000000   0.0000000   0.0000000
 NMagM=    0.0000000   0.0000000   0.0000000   0.0000000   0.0000000   0.0000000   0.0000000   0.0000000   0.0000000   0.0000000
 AtZNuc=   6.0000000   6.0000000   6.0000000   6.0000000   6.0000000   6.0000000   6.0000000   6.0000000   6.0000000   6.0000000

  Atom        31          32          33          34          35          36          37          38          39          40
 IAtWgt=          12          12          12          12          12          12          12          12          12          12
 AtmWgt=  12.0000000  12.0000000  12.0000000  12.0000000  12.0000000  12.0000000  12.0000000  12.0000000  12.0000000  12.0000000
 NucSpn=           0           0           0           0           0           0           0           0           0           0
 AtZEff=  -0.0000000  -0.0000000  -0.0000000  -0.0000000  -0.0000000  -0.0000000  -0.0000000  -0.0000000  -0.0000000  -0.0000000
 NQMom=    0.0000000   0.0000000   0.0000000   0.0000000   0.0000000   0.0000000   0.0000000   0.0000000   0.0000000   0.0000000
 NMagM=    0.0000000   0.0000000   0.0000000   0.0000000   0.0000000   0.0000000   0.0000000   0.0000000   0.0000000   0.0000000
 AtZNuc=   6.0000000   6.0000000   6.0000000   6.0000000   6.0000000   6.0000000   6.0000000   6.0000000   6.0000000   6.0000000

  Atom        41          42          43          44          45          46          47          48          49          50
 IAtWgt=          12          12          12          12          12          12          12          12          12          12
 AtmWgt=  12.0000000  12.0000000  12.0000000  12.0000000  12.0000000  12.0000000  12.0000000  12.0000000  12.0000000  12.0000000
 NucSpn=           0           0           0           0           0           0           0           0           0           0
 AtZEff=  -0.0000000  -0.0000000  -0.0000000  -0.0000000  -0.0000000  -0.0000000  -0.0000000  -0.0000000  -0.0000000  -0.0000000
 NQMom=    0.0000000   0.0000000   0.0000000   0.0000000   0.0000000   0.0000000   0.0000000   0.0000000   0.0000000   0.0000000
 NMagM=    0.0000000   0.0000000   0.0000000   0.0000000   0.0000000   0.0000000   0.0000000   0.0000000   0.0000000   0.0000000
 AtZNuc=   6.0000000   6.0000000   6.0000000   6.0000000   6.0000000   6.0000000   6.0000000   6.0000000   6.0000000   6.0000000

  Atom        51          52          53          54          55          56          57          58          59          60
 IAtWgt=          12          12          12          12          12          12          12          12          12          12
 AtmWgt=  12.0000000  12.0000000  12.0000000  12.0000000  12.0000000  12.0000000  12.0000000  12.0000000  12.0000000  12.0000000
 NucSpn=           0           0           0           0           0           0           0           0           0           0
 AtZEff=  -0.0000000  -0.0000000  -0.0000000  -0.0000000  -0.0000000  -0.0000000  -0.0000000  -0.0000000  -0.0000000  -0.0000000
 NQMom=    0.0000000   0.0000000   0.0000000   0.0000000   0.0000000   0.0000000   0.0000000   0.0000000   0.0000000   0.0000000
 NMagM=    0.0000000   0.0000000   0.0000000   0.0000000   0.0000000   0.0000000   0.0000000   0.0000000   0.0000000   0.0000000
 AtZNuc=   6.0000000   6.0000000   6.0000000   6.0000000   6.0000000   6.0000000   6.0000000   6.0000000   6.0000000   6.0000000

  Atom        61          62          63          64          65          66          67          68          69          70
 IAtWgt=          12          12          12          12          12          12          12          12          12          12
 AtmWgt=  12.0000000  12.0000000  12.0000000  12.0000000  12.0000000  12.0000000  12.0000000  12.0000000  12.0000000  12.0000000
 NucSpn=           0           0           0           0           0           0           0           0           0           0
 AtZEff=  -0.0000000  -0.0000000  -0.0000000  -0.0000000  -0.0000000  -0.0000000  -0.0000000  -0.0000000  -0.0000000  -0.0000000
 NQMom=    0.0000000   0.0000000   0.0000000   0.0000000   0.0000000   0.0000000   0.0000000   0.0000000   0.0000000   0.0000000
 NMagM=    0.0000000   0.0000000   0.0000000   0.0000000   0.0000000   0.0000000   0.0000000   0.0000000   0.0000000   0.0000000
 AtZNuc=   6.0000000   6.0000000   6.0000000   6.0000000   6.0000000   6.0000000   6.0000000   6.0000000   6.0000000   6.0000000

  Atom        71          72          73          74          75          76          77          78          79          80
 IAtWgt=          12          12          12          12          12          12          12          12          12          12
 AtmWgt=  12.0000000  12.0000000  12.0000000  12.0000000  12.0000000  12.0000000  12.0000000  12.0000000  12.0000000  12.0000000
 NucSpn=           0           0           0           0           0           0           0           0           0           0
 AtZEff=  -0.0000000  -0.0000000  -0.0000000  -0.0000000  -0.0000000  -0.0000000  -0.0000000  -0.0000000  -0.0000000  -0.0000000
 NQMom=    0.0000000   0.0000000   0.0000000   0.0000000   0.0000000   0.0000000   0.0000000   0.0000000   0.0000000   0.0000000
 NMagM=    0.0000000   0.0000000   0.0000000   0.0000000   0.0000000   0.0000000   0.0000000   0.0000000   0.0000000   0.0000000
 AtZNuc=   6.0000000   6.0000000   6.0000000   6.0000000   6.0000000   6.0000000   6.0000000   6.0000000   6.0000000   6.0000000

  Atom        81          82          83          84          85          86          87          88          89          90
 IAtWgt=          12          12          12          12          35          35          35          35          35          35
 AtmWgt=  12.0000000  12.0000000  12.0000000  12.0000000  34.9688527  34.9688527  34.9688527  34.9688527  34.9688527  34.9688527
 NucSpn=           0           0           0           0           3           3           3           3           3           3
 AtZEff=  -0.0000000  -0.0000000  -0.0000000  -0.0000000  -0.0000000  -0.0000000  -0.0000000  -0.0000000  -0.0000000  -0.0000000
 NQMom=    0.0000000   0.0000000   0.0000000   0.0000000  -8.1650000  -8.1650000  -8.1650000  -8.1650000  -8.1650000  -8.1650000
 NMagM=    0.0000000   0.0000000   0.0000000   0.0000000   0.8218740   0.8218740   0.8218740   0.8218740   0.8218740   0.8218740
 AtZNuc=   6.0000000   6.0000000   6.0000000   6.0000000  17.0000000  17.0000000  17.0000000  17.0000000  17.0000000  17.0000000

  Atom        91          92          93          94          95          96          97          98
 IAtWgt=          35          35          35          35          35          35          35          35
 AtmWgt=  34.9688527  34.9688527  34.9688527  34.9688527  34.9688527  34.9688527  34.9688527  34.9688527
 NucSpn=           3           3           3           3           3           3           3           3
 AtZEff=  -0.0000000  -0.0000000  -0.0000000  -0.0000000  -0.0000000  -0.0000000  -0.0000000  -0.0000000
 NQMom=   -8.1650000  -8.1650000  -8.1650000  -8.1650000  -8.1650000  -8.1650000  -8.1650000  -8.1650000
 NMagM=    0.8218740   0.8218740   0.8218740   0.8218740   0.8218740   0.8218740   0.8218740   0.8218740
 AtZNuc=  17.0000000  17.0000000  17.0000000  17.0000000  17.0000000  17.0000000  17.0000000  17.0000000
 Leave Link  101 at Tue Jun 28 01:30:14 2022, MaxMem=  1342177280 cpu:               6.6 elap:               0.3
 (Enter /home/mkliu/g16/l103.exe)

 GradGradGradGradGradGradGradGradGradGradGradGradGradGradGradGradGradGrad
 Berny optimization.
 Initialization pass.
                           ----------------------------
                           !    Initial Parameters    !
                           ! (Angstroms and Degrees)  !
 --------------------------                            --------------------------
 ! Name  Definition              Value          Derivative Info.                !
 --------------------------------------------------------------------------------
 ! R1    R(1,5)                  1.515          estimate D2E/DX2                !
 ! R2    R(1,17)                 1.4908         estimate D2E/DX2                !
 ! R3    R(1,23)                 1.5054         estimate D2E/DX2                !
 ! R4    R(1,95)                 1.8161         estimate D2E/DX2                !
 ! R5    R(2,6)                  1.4969         estimate D2E/DX2                !
 ! R6    R(2,43)                 1.5205         estimate D2E/DX2                !
 ! R7    R(2,44)                 1.5064         estimate D2E/DX2                !
 ! R8    R(2,91)                 1.8049         estimate D2E/DX2                !
 ! R9    R(3,7)                  1.4212         estimate D2E/DX2                !
 ! R10   R(3,18)                 1.4111         estimate D2E/DX2                !
 ! R11   R(3,26)                 1.425          estimate D2E/DX2                !
 ! R12   R(4,8)                  1.5004         estimate D2E/DX2                !
 ! R13   R(4,45)                 1.5079         estimate D2E/DX2                !
 ! R14   R(4,46)                 1.5201         estimate D2E/DX2                !
 ! R15   R(4,88)                 1.802          estimate D2E/DX2                !
 ! R16   R(5,9)                  1.4189         estimate D2E/DX2                !
 ! R17   R(5,29)                 1.3988         estimate D2E/DX2                !
 ! R18   R(6,10)                 1.3704         estimate D2E/DX2                !
 ! R19   R(6,15)                 1.4072         estimate D2E/DX2                !
 ! R20   R(7,12)                 1.413          estimate D2E/DX2                !
 ! R21   R(7,30)                 1.4195         estimate D2E/DX2                !
 ! R22   R(8,11)                 1.3533         estimate D2E/DX2                !
 ! R23   R(8,16)                 1.4295         estimate D2E/DX2                !
 ! R24   R(9,13)                 1.4282         estimate D2E/DX2                !
 ! R25   R(9,35)                 1.4293         estimate D2E/DX2                !
 ! R26   R(10,49)                1.501          estimate D2E/DX2                !
 ! R27   R(10,53)                1.4068         estimate D2E/DX2                !
 ! R28   R(11,50)                1.5047         estimate D2E/DX2                !
 ! R29   R(11,54)                1.4335         estimate D2E/DX2                !
 ! R30   R(12,14)                1.4099         estimate D2E/DX2                !
 ! R31   R(12,36)                1.429          estimate D2E/DX2                !
 ! R32   R(13,15)                1.4451         estimate D2E/DX2                !
 ! R33   R(13,43)                1.3791         estimate D2E/DX2                !
 ! R34   R(14,16)                1.4109         estimate D2E/DX2                !
 ! R35   R(14,46)                1.424          estimate D2E/DX2                !
 ! R36   R(15,17)                1.3745         estimate D2E/DX2                !
 ! R37   R(16,18)                1.414          estimate D2E/DX2                !
 ! R38   R(17,19)                1.3977         estimate D2E/DX2                !
 ! R39   R(18,20)                1.4291         estimate D2E/DX2                !
 ! R40   R(19,21)                1.4956         estimate D2E/DX2                !
 ! R41   R(19,53)                1.3751         estimate D2E/DX2                !
 ! R42   R(20,22)                1.4037         estimate D2E/DX2                !
 ! R43   R(20,54)                1.4224         estimate D2E/DX2                !
 ! R44   R(21,23)                1.5086         estimate D2E/DX2                !
 ! R45   R(21,57)                1.5145         estimate D2E/DX2                !
 ! R46   R(21,97)                1.8059         estimate D2E/DX2                !
 ! R47   R(22,24)                1.4216         estimate D2E/DX2                !
 ! R48   R(22,58)                1.4259         estimate D2E/DX2                !
 ! R49   R(23,25)                1.3227         estimate D2E/DX2                !
 ! R50   R(24,26)                1.3587         estimate D2E/DX2                !
 ! R51   R(24,62)                1.5024         estimate D2E/DX2                !
 ! R52   R(25,27)                1.5            estimate D2E/DX2                !
 ! R53   R(25,61)                1.4984         estimate D2E/DX2                !
 ! R54   R(26,28)                1.5063         estimate D2E/DX2                !
 ! R55   R(27,29)                1.5049         estimate D2E/DX2                !
 ! R56   R(27,65)                1.5065         estimate D2E/DX2                !
 ! R57   R(27,93)                1.8017         estimate D2E/DX2                !
 ! R58   R(28,30)                1.5007         estimate D2E/DX2                !
 ! R59   R(28,66)                1.5212         estimate D2E/DX2                !
 ! R60   R(28,85)                1.7983         estimate D2E/DX2                !
 ! R61   R(29,31)                1.3845         estimate D2E/DX2                !
 ! R62   R(30,32)                1.3541         estimate D2E/DX2                !
 ! R63   R(31,33)                1.3995         estimate D2E/DX2                !
 ! R64   R(31,69)                1.5189         estimate D2E/DX2                !
 ! R65   R(32,34)                1.424          estimate D2E/DX2                !
 ! R66   R(32,70)                1.5057         estimate D2E/DX2                !
 ! R67   R(33,35)                1.4108         estimate D2E/DX2                !
 ! R68   R(33,73)                1.4344         estimate D2E/DX2                !
 ! R69   R(34,36)                1.4139         estimate D2E/DX2                !
 ! R70   R(34,74)                1.4196         estimate D2E/DX2                !
 ! R71   R(35,37)                1.4439         estimate D2E/DX2                !
 ! R72   R(36,38)                1.4454         estimate D2E/DX2                !
 ! R73   R(37,39)                1.4326         estimate D2E/DX2                !
 ! R74   R(37,77)                1.4134         estimate D2E/DX2                !
 ! R75   R(38,42)                1.4464         estimate D2E/DX2                !
 ! R76   R(38,78)                1.4051         estimate D2E/DX2                !
 ! R77   R(39,43)                1.4103         estimate D2E/DX2                !
 ! R78   R(39,79)                1.4085         estimate D2E/DX2                !
 ! R79   R(40,41)                1.3981         estimate D2E/DX2                !
 ! R80   R(40,44)                1.3872         estimate D2E/DX2                !
 ! R81   R(40,79)                1.4524         estimate D2E/DX2                !
 ! R82   R(41,45)                1.3778         estimate D2E/DX2                !
 ! R83   R(41,80)                1.5126         estimate D2E/DX2                !
 ! R84   R(42,46)                1.3634         estimate D2E/DX2                !
 ! R85   R(42,80)                1.508          estimate D2E/DX2                !
 ! R86   R(44,47)                1.4016         estimate D2E/DX2                !
 ! R87   R(45,48)                1.4076         estimate D2E/DX2                !
 ! R88   R(47,48)                1.4057         estimate D2E/DX2                !
 ! R89   R(47,49)                1.5236         estimate D2E/DX2                !
 ! R90   R(48,50)                1.5147         estimate D2E/DX2                !
 ! R91   R(49,51)                1.4996         estimate D2E/DX2                !
 ! R92   R(49,90)                1.8055         estimate D2E/DX2                !
 ! R93   R(50,52)                1.503          estimate D2E/DX2                !
 ! R94   R(50,89)                1.8014         estimate D2E/DX2                !
 ! R95   R(51,52)                1.3342         estimate D2E/DX2                !
 ! R96   R(51,55)                1.5068         estimate D2E/DX2                !
 ! R97   R(52,56)                1.4388         estimate D2E/DX2                !
 ! R98   R(53,55)                1.4906         estimate D2E/DX2                !
 ! R99   R(54,56)                1.4011         estimate D2E/DX2                !
 ! R100  R(55,83)                1.5138         estimate D2E/DX2                !
 ! R101  R(55,98)                1.8187         estimate D2E/DX2                !
 ! R102  R(56,84)                1.417          estimate D2E/DX2                !
 ! R103  R(57,59)                1.42           estimate D2E/DX2                !
 ! R104  R(57,83)                1.3911         estimate D2E/DX2                !
 ! R105  R(58,60)                1.406          estimate D2E/DX2                !
 ! R106  R(58,84)                1.4037         estimate D2E/DX2                !
 ! R107  R(59,60)                1.3739         estimate D2E/DX2                !
 ! R108  R(59,61)                1.5048         estimate D2E/DX2                !
 ! R109  R(60,62)                1.5157         estimate D2E/DX2                !
 ! R110  R(61,63)                1.5081         estimate D2E/DX2                !
 ! R111  R(61,96)                1.8028         estimate D2E/DX2                !
 ! R112  R(62,64)                1.5065         estimate D2E/DX2                !
 ! R113  R(62,94)                1.7989         estimate D2E/DX2                !
 ! R114  R(63,64)                1.3841         estimate D2E/DX2                !
 ! R115  R(63,65)                1.3864         estimate D2E/DX2                !
 ! R116  R(64,66)                1.4019         estimate D2E/DX2                !
 ! R117  R(65,67)                1.3848         estimate D2E/DX2                !
 ! R118  R(66,68)                1.4062         estimate D2E/DX2                !
 ! R119  R(67,68)                1.4024         estimate D2E/DX2                !
 ! R120  R(67,69)                1.5069         estimate D2E/DX2                !
 ! R121  R(68,70)                1.5226         estimate D2E/DX2                !
 ! R122  R(69,71)                1.5004         estimate D2E/DX2                !
 ! R123  R(69,92)                1.8005         estimate D2E/DX2                !
 ! R124  R(70,72)                1.5066         estimate D2E/DX2                !
 ! R125  R(70,86)                1.7999         estimate D2E/DX2                !
 ! R126  R(71,72)                1.3625         estimate D2E/DX2                !
 ! R127  R(71,73)                1.4259         estimate D2E/DX2                !
 ! R128  R(72,74)                1.429          estimate D2E/DX2                !
 ! R129  R(73,75)                1.3775         estimate D2E/DX2                !
 ! R130  R(74,76)                1.3888         estimate D2E/DX2                !
 ! R131  R(75,76)                1.4297         estimate D2E/DX2                !
 ! R132  R(75,77)                1.4327         estimate D2E/DX2                !
 ! R133  R(76,78)                1.4234         estimate D2E/DX2                !
 ! R134  R(77,81)                1.4238         estimate D2E/DX2                !
 ! R135  R(78,81)                1.4513         estimate D2E/DX2                !
 ! R136  R(79,82)                1.396          estimate D2E/DX2                !
 ! R137  R(80,82)                1.5006         estimate D2E/DX2                !
 ! R138  R(80,87)                1.8084         estimate D2E/DX2                !
 ! R139  R(81,82)                1.375          estimate D2E/DX2                !
 ! R140  R(83,84)                1.4223         estimate D2E/DX2                !
 ! A1    A(5,1,17)             112.695          estimate D2E/DX2                !
 ! A2    A(5,1,23)             111.9207         estimate D2E/DX2                !
 ! A3    A(5,1,95)             108.1134         estimate D2E/DX2                !
 ! A4    A(17,1,23)            100.5335         estimate D2E/DX2                !
 ! A5    A(17,1,95)            112.0497         estimate D2E/DX2                !
 ! A6    A(23,1,95)            111.4761         estimate D2E/DX2                !
 ! A7    A(6,2,43)             101.4765         estimate D2E/DX2                !
 ! A8    A(6,2,44)             110.226          estimate D2E/DX2                !
 ! A9    A(6,2,91)             112.9791         estimate D2E/DX2                !
 ! A10   A(43,2,44)            110.2871         estimate D2E/DX2                !
 ! A11   A(43,2,91)            112.211          estimate D2E/DX2                !
 ! A12   A(44,2,91)            109.4521         estimate D2E/DX2                !
 ! A13   A(7,3,18)             121.5797         estimate D2E/DX2                !
 ! A14   A(7,3,26)             108.3589         estimate D2E/DX2                !
 ! A15   A(18,3,26)            122.0365         estimate D2E/DX2                !
 ! A16   A(8,4,45)             110.1755         estimate D2E/DX2                !
 ! A17   A(8,4,46)             101.3366         estimate D2E/DX2                !
 ! A18   A(8,4,88)             113.1588         estimate D2E/DX2                !
 ! A19   A(45,4,46)            110.0346         estimate D2E/DX2                !
 ! A20   A(45,4,88)            110.2015         estimate D2E/DX2                !
 ! A21   A(46,4,88)            111.6309         estimate D2E/DX2                !
 ! A22   A(1,5,9)              121.0632         estimate D2E/DX2                !
 ! A23   A(1,5,29)             117.6658         estimate D2E/DX2                !
 ! A24   A(9,5,29)             120.0841         estimate D2E/DX2                !
 ! A25   A(2,6,10)             122.845          estimate D2E/DX2                !
 ! A26   A(2,6,15)             109.6591         estimate D2E/DX2                !
 ! A27   A(10,6,15)            119.3425         estimate D2E/DX2                !
 ! A28   A(3,7,12)             121.5239         estimate D2E/DX2                !
 ! A29   A(3,7,30)             108.4631         estimate D2E/DX2                !
 ! A30   A(12,7,30)            121.4656         estimate D2E/DX2                !
 ! A31   A(4,8,11)             122.3424         estimate D2E/DX2                !
 ! A32   A(4,8,16)             110.2551         estimate D2E/DX2                !
 ! A33   A(11,8,16)            120.2567         estimate D2E/DX2                !
 ! A34   A(5,9,13)             119.0313         estimate D2E/DX2                !
 ! A35   A(5,9,35)             120.8635         estimate D2E/DX2                !
 ! A36   A(13,9,35)            116.4479         estimate D2E/DX2                !
 ! A37   A(6,10,49)            122.7834         estimate D2E/DX2                !
 ! A38   A(6,10,53)            119.5011         estimate D2E/DX2                !
 ! A39   A(49,10,53)           111.6443         estimate D2E/DX2                !
 ! A40   A(8,11,50)            123.047          estimate D2E/DX2                !
 ! A41   A(8,11,54)            119.4018         estimate D2E/DX2                !
 ! A42   A(50,11,54)           110.4687         estimate D2E/DX2                !
 ! A43   A(7,12,14)            115.8855         estimate D2E/DX2                !
 ! A44   A(7,12,36)            119.8932         estimate D2E/DX2                !
 ! A45   A(14,12,36)           118.9786         estimate D2E/DX2                !
 ! A46   A(9,13,15)            120.6797         estimate D2E/DX2                !
 ! A47   A(9,13,43)            122.2544         estimate D2E/DX2                !
 ! A48   A(15,13,43)           108.4198         estimate D2E/DX2                !
 ! A49   A(12,14,16)           122.4128         estimate D2E/DX2                !
 ! A50   A(12,14,46)           121.1298         estimate D2E/DX2                !
 ! A51   A(16,14,46)           109.3067         estimate D2E/DX2                !
 ! A52   A(6,15,13)            108.8117         estimate D2E/DX2                !
 ! A53   A(6,15,17)            121.0783         estimate D2E/DX2                !
 ! A54   A(13,15,17)           120.4917         estimate D2E/DX2                !
 ! A55   A(8,16,14)            108.5156         estimate D2E/DX2                !
 ! A56   A(8,16,18)            121.9431         estimate D2E/DX2                !
 ! A57   A(14,16,18)           121.1721         estimate D2E/DX2                !
 ! A58   A(1,17,15)            121.7386         estimate D2E/DX2                !
 ! A59   A(1,17,19)            112.5731         estimate D2E/DX2                !
 ! A60   A(15,17,19)           119.2522         estimate D2E/DX2                !
 ! A61   A(3,18,16)            116.3602         estimate D2E/DX2                !
 ! A62   A(3,18,20)            118.5494         estimate D2E/DX2                !
 ! A63   A(16,18,20)           117.9408         estimate D2E/DX2                !
 ! A64   A(17,19,21)           111.0693         estimate D2E/DX2                !
 ! A65   A(17,19,53)           119.8244         estimate D2E/DX2                !
 ! A66   A(21,19,53)           122.8425         estimate D2E/DX2                !
 ! A67   A(18,20,22)           117.8211         estimate D2E/DX2                !
 ! A68   A(18,20,54)           118.8111         estimate D2E/DX2                !
 ! A69   A(22,20,54)           116.2139         estimate D2E/DX2                !
 ! A70   A(19,21,23)           101.1476         estimate D2E/DX2                !
 ! A71   A(19,21,57)           110.7389         estimate D2E/DX2                !
 ! A72   A(19,21,97)           113.125          estimate D2E/DX2                !
 ! A73   A(23,21,57)           111.2165         estimate D2E/DX2                !
 ! A74   A(23,21,97)           111.6918         estimate D2E/DX2                !
 ! A75   A(57,21,97)           108.8001         estimate D2E/DX2                !
 ! A76   A(20,22,24)           122.5402         estimate D2E/DX2                !
 ! A77   A(20,22,58)           120.4726         estimate D2E/DX2                !
 ! A78   A(24,22,58)           108.0123         estimate D2E/DX2                !
 ! A79   A(1,23,21)            112.6149         estimate D2E/DX2                !
 ! A80   A(1,23,25)            122.2291         estimate D2E/DX2                !
 ! A81   A(21,23,25)           122.754          estimate D2E/DX2                !
 ! A82   A(22,24,26)           119.7148         estimate D2E/DX2                !
 ! A83   A(22,24,62)           110.4174         estimate D2E/DX2                !
 ! A84   A(26,24,62)           122.0767         estimate D2E/DX2                !
 ! A85   A(23,25,27)           122.1354         estimate D2E/DX2                !
 ! A86   A(23,25,61)           122.1978         estimate D2E/DX2                !
 ! A87   A(27,25,61)           111.8811         estimate D2E/DX2                !
 ! A88   A(3,26,24)            119.2157         estimate D2E/DX2                !
 ! A89   A(3,26,28)            110.7659         estimate D2E/DX2                !
 ! A90   A(24,26,28)           122.7694         estimate D2E/DX2                !
 ! A91   A(25,27,29)           112.2393         estimate D2E/DX2                !
 ! A92   A(25,27,65)           100.4107         estimate D2E/DX2                !
 ! A93   A(25,27,93)           112.1458         estimate D2E/DX2                !
 ! A94   A(29,27,65)           108.1219         estimate D2E/DX2                !
 ! A95   A(29,27,93)           110.9485         estimate D2E/DX2                !
 ! A96   A(65,27,93)           112.5129         estimate D2E/DX2                !
 ! A97   A(26,28,30)           101.0044         estimate D2E/DX2                !
 ! A98   A(26,28,66)           110.0398         estimate D2E/DX2                !
 ! A99   A(26,28,85)           113.324          estimate D2E/DX2                !
 ! A100  A(30,28,66)           109.0214         estimate D2E/DX2                !
 ! A101  A(30,28,85)           114.0144         estimate D2E/DX2                !
 ! A102  A(66,28,85)           109.1564         estimate D2E/DX2                !
 ! A103  A(5,29,27)            122.5917         estimate D2E/DX2                !
 ! A104  A(5,29,31)            119.3005         estimate D2E/DX2                !
 ! A105  A(27,29,31)           116.223          estimate D2E/DX2                !
 ! A106  A(7,30,28)            111.2008         estimate D2E/DX2                !
 ! A107  A(7,30,32)            119.219          estimate D2E/DX2                !
 ! A108  A(28,30,32)           122.5344         estimate D2E/DX2                !
 ! A109  A(29,31,33)           120.8351         estimate D2E/DX2                !
 ! A110  A(29,31,69)           124.6179         estimate D2E/DX2                !
 ! A111  A(33,31,69)           110.4274         estimate D2E/DX2                !
 ! A112  A(30,32,34)           120.187          estimate D2E/DX2                !
 ! A113  A(30,32,70)           121.6439         estimate D2E/DX2                !
 ! A114  A(34,32,70)           111.2803         estimate D2E/DX2                !
 ! A115  A(31,33,35)           121.7707         estimate D2E/DX2                !
 ! A116  A(31,33,73)           108.566          estimate D2E/DX2                !
 ! A117  A(35,33,73)           122.5971         estimate D2E/DX2                !
 ! A118  A(32,34,36)           122.4619         estimate D2E/DX2                !
 ! A119  A(32,34,74)           107.6083         estimate D2E/DX2                !
 ! A120  A(36,34,74)           121.6089         estimate D2E/DX2                !
 ! A121  A(9,35,33)            116.3679         estimate D2E/DX2                !
 ! A122  A(9,35,37)            121.0423         estimate D2E/DX2                !
 ! A123  A(33,35,37)           118.3638         estimate D2E/DX2                !
 ! A124  A(12,36,34)           116.3647         estimate D2E/DX2                !
 ! A125  A(12,36,38)           119.4967         estimate D2E/DX2                !
 ! A126  A(34,36,38)           119.2129         estimate D2E/DX2                !
 ! A127  A(35,37,39)           118.927          estimate D2E/DX2                !
 ! A128  A(35,37,77)           118.3102         estimate D2E/DX2                !
 ! A129  A(39,37,77)           116.7922         estimate D2E/DX2                !
 ! A130  A(36,38,42)           119.1112         estimate D2E/DX2                !
 ! A131  A(36,38,78)           118.0845         estimate D2E/DX2                !
 ! A132  A(42,38,78)           118.6033         estimate D2E/DX2                !
 ! A133  A(37,39,43)           118.7164         estimate D2E/DX2                !
 ! A134  A(37,39,79)           119.3047         estimate D2E/DX2                !
 ! A135  A(43,39,79)           116.2643         estimate D2E/DX2                !
 ! A136  A(41,40,44)           121.5207         estimate D2E/DX2                !
 ! A137  A(41,40,79)           108.6987         estimate D2E/DX2                !
 ! A138  A(44,40,79)           123.8319         estimate D2E/DX2                !
 ! A139  A(40,41,45)           120.2069         estimate D2E/DX2                !
 ! A140  A(40,41,80)           110.3374         estimate D2E/DX2                !
 ! A141  A(45,41,80)           125.6453         estimate D2E/DX2                !
 ! A142  A(38,42,46)           120.2587         estimate D2E/DX2                !
 ! A143  A(38,42,80)           121.6069         estimate D2E/DX2                !
 ! A144  A(46,42,80)           116.2067         estimate D2E/DX2                !
 ! A145  A(2,43,13)            110.694          estimate D2E/DX2                !
 ! A146  A(2,43,39)            123.5123         estimate D2E/DX2                !
 ! A147  A(13,43,39)           121.1904         estimate D2E/DX2                !
 ! A148  A(2,44,40)            115.4755         estimate D2E/DX2                !
 ! A149  A(2,44,47)            124.3224         estimate D2E/DX2                !
 ! A150  A(40,44,47)           118.8658         estimate D2E/DX2                !
 ! A151  A(4,45,41)            115.742          estimate D2E/DX2                !
 ! A152  A(4,45,48)            123.7323         estimate D2E/DX2                !
 ! A153  A(41,45,48)           118.9558         estimate D2E/DX2                !
 ! A154  A(4,46,14)            109.2719         estimate D2E/DX2                !
 ! A155  A(4,46,42)            125.6625         estimate D2E/DX2                !
 ! A156  A(14,46,42)           120.8646         estimate D2E/DX2                !
 ! A157  A(44,47,48)           119.5074         estimate D2E/DX2                !
 ! A158  A(44,47,49)           119.0599         estimate D2E/DX2                !
 ! A159  A(48,47,49)           120.6754         estimate D2E/DX2                !
 ! A160  A(45,48,47)           120.8187         estimate D2E/DX2                !
 ! A161  A(45,48,50)           118.714          estimate D2E/DX2                !
 ! A162  A(47,48,50)           119.6525         estimate D2E/DX2                !
 ! A163  A(10,49,47)           110.5535         estimate D2E/DX2                !
 ! A164  A(10,49,51)           100.6626         estimate D2E/DX2                !
 ! A165  A(10,49,90)           113.0039         estimate D2E/DX2                !
 ! A166  A(47,49,51)           110.5084         estimate D2E/DX2                !
 ! A167  A(47,49,90)           108.5338         estimate D2E/DX2                !
 ! A168  A(51,49,90)           113.432          estimate D2E/DX2                !
 ! A169  A(11,50,48)           110.4337         estimate D2E/DX2                !
 ! A170  A(11,50,52)           101.2713         estimate D2E/DX2                !
 ! A171  A(11,50,89)           113.017          estimate D2E/DX2                !
 ! A172  A(48,50,52)           109.7389         estimate D2E/DX2                !
 ! A173  A(48,50,89)           109.3758         estimate D2E/DX2                !
 ! A174  A(52,50,89)           112.7754         estimate D2E/DX2                !
 ! A175  A(49,51,52)           120.886          estimate D2E/DX2                !
 ! A176  A(49,51,55)           113.3391         estimate D2E/DX2                !
 ! A177  A(52,51,55)           121.7992         estimate D2E/DX2                !
 ! A178  A(50,52,51)           123.3964         estimate D2E/DX2                !
 ! A179  A(50,52,56)           110.4508         estimate D2E/DX2                !
 ! A180  A(51,52,56)           120.7188         estimate D2E/DX2                !
 ! A181  A(10,53,19)           120.8001         estimate D2E/DX2                !
 ! A182  A(10,53,55)           111.7066         estimate D2E/DX2                !
 ! A183  A(19,53,55)           121.6019         estimate D2E/DX2                !
 ! A184  A(11,54,20)           121.4869         estimate D2E/DX2                !
 ! A185  A(11,54,56)           108.8782         estimate D2E/DX2                !
 ! A186  A(20,54,56)           122.174          estimate D2E/DX2                !
 ! A187  A(51,55,53)           100.9024         estimate D2E/DX2                !
 ! A188  A(51,55,83)           112.7856         estimate D2E/DX2                !
 ! A189  A(51,55,98)           111.1311         estimate D2E/DX2                !
 ! A190  A(53,55,83)           110.9533         estimate D2E/DX2                !
 ! A191  A(53,55,98)           112.5244         estimate D2E/DX2                !
 ! A192  A(83,55,98)           108.476          estimate D2E/DX2                !
 ! A193  A(52,56,54)           108.6578         estimate D2E/DX2                !
 ! A194  A(52,56,84)           119.8053         estimate D2E/DX2                !
 ! A195  A(54,56,84)           121.3086         estimate D2E/DX2                !
 ! A196  A(21,57,59)           117.6695         estimate D2E/DX2                !
 ! A197  A(21,57,83)           120.6424         estimate D2E/DX2                !
 ! A198  A(59,57,83)           120.8796         estimate D2E/DX2                !
 ! A199  A(22,58,60)           109.4483         estimate D2E/DX2                !
 ! A200  A(22,58,84)           122.6779         estimate D2E/DX2                !
 ! A201  A(60,58,84)           121.2469         estimate D2E/DX2                !
 ! A202  A(57,59,60)           119.6561         estimate D2E/DX2                !
 ! A203  A(57,59,61)           122.5042         estimate D2E/DX2                !
 ! A204  A(60,59,61)           115.9833         estimate D2E/DX2                !
 ! A205  A(58,60,59)           119.9488         estimate D2E/DX2                !
 ! A206  A(58,60,62)           109.7414         estimate D2E/DX2                !
 ! A207  A(59,60,62)           125.8424         estimate D2E/DX2                !
 ! A208  A(25,61,59)           112.0635         estimate D2E/DX2                !
 ! A209  A(25,61,63)           100.1717         estimate D2E/DX2                !
 ! A210  A(25,61,96)           112.7336         estimate D2E/DX2                !
 ! A211  A(59,61,63)           108.8242         estimate D2E/DX2                !
 ! A212  A(59,61,96)           110.6825         estimate D2E/DX2                !
 ! A213  A(63,61,96)           111.9118         estimate D2E/DX2                !
 ! A214  A(24,62,60)           101.3164         estimate D2E/DX2                !
 ! A215  A(24,62,64)           109.9844         estimate D2E/DX2                !
 ! A216  A(24,62,94)           113.5261         estimate D2E/DX2                !
 ! A217  A(60,62,64)           108.8357         estimate D2E/DX2                !
 ! A218  A(60,62,94)           112.6611         estimate D2E/DX2                !
 ! A219  A(64,62,94)           110.1509         estimate D2E/DX2                !
 ! A220  A(61,63,64)           125.5801         estimate D2E/DX2                !
 ! A221  A(61,63,65)           111.4305         estimate D2E/DX2                !
 ! A222  A(64,63,65)           120.7106         estimate D2E/DX2                !
 ! A223  A(62,64,63)           116.0165         estimate D2E/DX2                !
 ! A224  A(62,64,66)           123.7475         estimate D2E/DX2                !
 ! A225  A(63,64,66)           119.0992         estimate D2E/DX2                !
 ! A226  A(27,65,63)           111.2688         estimate D2E/DX2                !
 ! A227  A(27,65,67)           125.2858         estimate D2E/DX2                !
 ! A228  A(63,65,67)           121.0841         estimate D2E/DX2                !
 ! A229  A(28,66,64)           118.6933         estimate D2E/DX2                !
 ! A230  A(28,66,68)           120.48           estimate D2E/DX2                !
 ! A231  A(64,66,68)           120.2011         estimate D2E/DX2                !
 ! A232  A(65,67,68)           119.073          estimate D2E/DX2                !
 ! A233  A(65,67,69)           115.8122         estimate D2E/DX2                !
 ! A234  A(68,67,69)           123.9907         estimate D2E/DX2                !
 ! A235  A(66,68,67)           119.7924         estimate D2E/DX2                !
 ! A236  A(66,68,70)           120.5163         estimate D2E/DX2                !
 ! A237  A(67,68,70)           119.1533         estimate D2E/DX2                !
 ! A238  A(31,69,67)           108.1016         estimate D2E/DX2                !
 ! A239  A(31,69,71)           101.7679         estimate D2E/DX2                !
 ! A240  A(31,69,92)           112.8435         estimate D2E/DX2                !
 ! A241  A(67,69,71)           110.5539         estimate D2E/DX2                !
 ! A242  A(67,69,92)           110.0694         estimate D2E/DX2                !
 ! A243  A(71,69,92)           113.1621         estimate D2E/DX2                !
 ! A244  A(32,70,68)           108.844          estimate D2E/DX2                !
 ! A245  A(32,70,72)           101.335          estimate D2E/DX2                !
 ! A246  A(32,70,86)           113.8347         estimate D2E/DX2                !
 ! A247  A(68,70,72)           110.5992         estimate D2E/DX2                !
 ! A248  A(68,70,86)           108.6842         estimate D2E/DX2                !
 ! A249  A(72,70,86)           113.3395         estimate D2E/DX2                !
 ! A250  A(69,71,72)           122.4972         estimate D2E/DX2                !
 ! A251  A(69,71,73)           109.3535         estimate D2E/DX2                !
 ! A252  A(72,71,73)           119.474          estimate D2E/DX2                !
 ! A253  A(70,72,71)           123.0724         estimate D2E/DX2                !
 ! A254  A(70,72,74)           109.7586         estimate D2E/DX2                !
 ! A255  A(71,72,74)           119.1675         estimate D2E/DX2                !
 ! A256  A(33,73,71)           108.8386         estimate D2E/DX2                !
 ! A257  A(33,73,75)           118.7006         estimate D2E/DX2                !
 ! A258  A(71,73,75)           121.8324         estimate D2E/DX2                !
 ! A259  A(34,74,72)           109.3433         estimate D2E/DX2                !
 ! A260  A(34,74,76)           118.7312         estimate D2E/DX2                !
 ! A261  A(72,74,76)           121.7336         estimate D2E/DX2                !
 ! A262  A(73,75,76)           118.9794         estimate D2E/DX2                !
 ! A263  A(73,75,77)           120.0673         estimate D2E/DX2                !
 ! A264  A(76,75,77)           108.6565         estimate D2E/DX2                !
 ! A265  A(74,76,75)           118.5374         estimate D2E/DX2                !
 ! A266  A(74,76,78)           120.6702         estimate D2E/DX2                !
 ! A267  A(75,76,78)           108.4852         estimate D2E/DX2                !
 ! A268  A(37,77,75)           121.9126         estimate D2E/DX2                !
 ! A269  A(37,77,81)           121.5746         estimate D2E/DX2                !
 ! A270  A(75,77,81)           106.6462         estimate D2E/DX2                !
 ! A271  A(38,78,76)           121.3357         estimate D2E/DX2                !
 ! A272  A(38,78,81)           120.2293         estimate D2E/DX2                !
 ! A273  A(76,78,81)           106.3802         estimate D2E/DX2                !
 ! A274  A(39,79,40)           119.0245         estimate D2E/DX2                !
 ! A275  A(39,79,82)           122.2146         estimate D2E/DX2                !
 ! A276  A(40,79,82)           107.332          estimate D2E/DX2                !
 ! A277  A(41,80,42)           110.2236         estimate D2E/DX2                !
 ! A278  A(41,80,82)           100.5133         estimate D2E/DX2                !
 ! A279  A(41,80,87)           111.5235         estimate D2E/DX2                !
 ! A280  A(42,80,82)           112.1531         estimate D2E/DX2                !
 ! A281  A(42,80,87)           109.8359         estimate D2E/DX2                !
 ! A282  A(82,80,87)           112.3129         estimate D2E/DX2                !
 ! A283  A(77,81,78)           108.9071         estimate D2E/DX2                !
 ! A284  A(77,81,82)           119.9172         estimate D2E/DX2                !
 ! A285  A(78,81,82)           120.8441         estimate D2E/DX2                !
 ! A286  A(79,82,80)           111.7965         estimate D2E/DX2                !
 ! A287  A(79,82,81)           119.2054         estimate D2E/DX2                !
 ! A288  A(80,82,81)           121.6369         estimate D2E/DX2                !
 ! A289  A(55,83,57)           122.0866         estimate D2E/DX2                !
 ! A290  A(55,83,84)           117.1383         estimate D2E/DX2                !
 ! A291  A(57,83,84)           119.4915         estimate D2E/DX2                !
 ! A292  A(56,84,58)           115.6816         estimate D2E/DX2                !
 ! A293  A(56,84,83)           121.0122         estimate D2E/DX2                !
 ! A294  A(58,84,83)           118.5868         estimate D2E/DX2                !
 ! D1    D(17,1,5,9)            22.5813         estimate D2E/DX2                !
 ! D2    D(17,1,5,29)         -144.9771         estimate D2E/DX2                !
 ! D3    D(23,1,5,9)           135.0321         estimate D2E/DX2                !
 ! D4    D(23,1,5,29)          -32.5264         estimate D2E/DX2                !
 ! D5    D(95,1,5,9)          -101.8163         estimate D2E/DX2                !
 ! D6    D(95,1,5,29)           90.6253         estimate D2E/DX2                !
 ! D7    D(5,1,17,15)          -23.2039         estimate D2E/DX2                !
 ! D8    D(5,1,17,19)          128.3643         estimate D2E/DX2                !
 ! D9    D(23,1,17,15)        -142.502          estimate D2E/DX2                !
 ! D10   D(23,1,17,19)           9.0662         estimate D2E/DX2                !
 ! D11   D(95,1,17,15)          99.0026         estimate D2E/DX2                !
 ! D12   D(95,1,17,19)        -109.4292         estimate D2E/DX2                !
 ! D13   D(5,1,23,21)         -134.2131         estimate D2E/DX2                !
 ! D14   D(5,1,23,25)           28.6245         estimate D2E/DX2                !
 ! D15   D(17,1,23,21)         -14.3552         estimate D2E/DX2                !
 ! D16   D(17,1,23,25)         148.4823         estimate D2E/DX2                !
 ! D17   D(95,1,23,21)         104.5583         estimate D2E/DX2                !
 ! D18   D(95,1,23,25)         -92.6041         estimate D2E/DX2                !
 ! D19   D(43,2,6,10)         -138.4987         estimate D2E/DX2                !
 ! D20   D(43,2,6,15)            9.7131         estimate D2E/DX2                !
 ! D21   D(44,2,6,10)          -21.6362         estimate D2E/DX2                !
 ! D22   D(44,2,6,15)          126.5756         estimate D2E/DX2                !
 ! D23   D(91,2,6,10)          101.1654         estimate D2E/DX2                !
 ! D24   D(91,2,6,15)         -110.6229         estimate D2E/DX2                !
 ! D25   D(6,2,43,13)           -7.5743         estimate D2E/DX2                !
 ! D26   D(6,2,43,39)          148.5067         estimate D2E/DX2                !
 ! D27   D(44,2,43,13)        -124.3923         estimate D2E/DX2                !
 ! D28   D(44,2,43,39)          31.6887         estimate D2E/DX2                !
 ! D29   D(91,2,43,13)         113.3021         estimate D2E/DX2                !
 ! D30   D(91,2,43,39)         -90.6169         estimate D2E/DX2                !
 ! D31   D(6,2,44,40)         -147.1219         estimate D2E/DX2                !
 ! D32   D(6,2,44,47)           19.4799         estimate D2E/DX2                !
 ! D33   D(43,2,44,40)         -35.8827         estimate D2E/DX2                !
 ! D34   D(43,2,44,47)         130.719          estimate D2E/DX2                !
 ! D35   D(91,2,44,40)          88.0328         estimate D2E/DX2                !
 ! D36   D(91,2,44,47)        -105.3655         estimate D2E/DX2                !
 ! D37   D(18,3,7,12)            3.7236         estimate D2E/DX2                !
 ! D38   D(18,3,7,30)          151.9767         estimate D2E/DX2                !
 ! D39   D(26,3,7,12)         -145.5997         estimate D2E/DX2                !
 ! D40   D(26,3,7,30)            2.6534         estimate D2E/DX2                !
 ! D41   D(7,3,18,16)            5.8707         estimate D2E/DX2                !
 ! D42   D(7,3,18,20)         -144.0041         estimate D2E/DX2                !
 ! D43   D(26,3,18,16)         151.0356         estimate D2E/DX2                !
 ! D44   D(26,3,18,20)           1.1608         estimate D2E/DX2                !
 ! D45   D(7,3,26,24)          146.4948         estimate D2E/DX2                !
 ! D46   D(7,3,26,28)           -4.5845         estimate D2E/DX2                !
 ! D47   D(18,3,26,24)          -2.6598         estimate D2E/DX2                !
 ! D48   D(18,3,26,28)        -153.7391         estimate D2E/DX2                !
 ! D49   D(45,4,8,11)           23.824          estimate D2E/DX2                !
 ! D50   D(45,4,8,16)         -126.5622         estimate D2E/DX2                !
 ! D51   D(46,4,8,11)          140.3058         estimate D2E/DX2                !
 ! D52   D(46,4,8,16)          -10.0804         estimate D2E/DX2                !
 ! D53   D(88,4,8,11)         -100.0463         estimate D2E/DX2                !
 ! D54   D(88,4,8,16)          109.5676         estimate D2E/DX2                !
 ! D55   D(8,4,45,41)          144.2942         estimate D2E/DX2                !
 ! D56   D(8,4,45,48)          -21.2277         estimate D2E/DX2                !
 ! D57   D(46,4,45,41)          33.3841         estimate D2E/DX2                !
 ! D58   D(46,4,45,48)        -132.1378         estimate D2E/DX2                !
 ! D59   D(88,4,45,41)         -90.1386         estimate D2E/DX2                !
 ! D60   D(88,4,45,48)         104.3395         estimate D2E/DX2                !
 ! D61   D(8,4,46,14)           11.3921         estimate D2E/DX2                !
 ! D62   D(8,4,46,42)         -145.5057         estimate D2E/DX2                !
 ! D63   D(45,4,46,14)         127.9771         estimate D2E/DX2                !
 ! D64   D(45,4,46,42)         -28.9206         estimate D2E/DX2                !
 ! D65   D(88,4,46,14)        -109.3381         estimate D2E/DX2                !
 ! D66   D(88,4,46,42)          93.7641         estimate D2E/DX2                !
 ! D67   D(1,5,9,13)           -10.9272         estimate D2E/DX2                !
 ! D68   D(1,5,9,35)          -168.6128         estimate D2E/DX2                !
 ! D69   D(29,5,9,13)          156.3333         estimate D2E/DX2                !
 ! D70   D(29,5,9,35)           -1.3522         estimate D2E/DX2                !
 ! D71   D(1,5,29,27)           10.4631         estimate D2E/DX2                !
 ! D72   D(1,5,29,31)          174.2372         estimate D2E/DX2                !
 ! D73   D(9,5,29,27)         -157.2223         estimate D2E/DX2                !
 ! D74   D(9,5,29,31)            6.5518         estimate D2E/DX2                !
 ! D75   D(2,6,10,49)           -2.0584         estimate D2E/DX2                !
 ! D76   D(2,6,10,53)          148.2236         estimate D2E/DX2                !
 ! D77   D(15,6,10,49)        -147.3718         estimate D2E/DX2                !
 ! D78   D(15,6,10,53)           2.9101         estimate D2E/DX2                !
 ! D79   D(2,6,15,13)           -8.7159         estimate D2E/DX2                !
 ! D80   D(2,6,15,17)         -154.9388         estimate D2E/DX2                !
 ! D81   D(10,6,15,13)         140.7729         estimate D2E/DX2                !
 ! D82   D(10,6,15,17)          -5.45           estimate D2E/DX2                !
 ! D83   D(3,7,12,14)           -9.2309         estimate D2E/DX2                !
 ! D84   D(3,7,12,36)          144.9424         estimate D2E/DX2                !
 ! D85   D(30,7,12,14)        -153.419          estimate D2E/DX2                !
 ! D86   D(30,7,12,36)           0.7542         estimate D2E/DX2                !
 ! D87   D(3,7,30,28)            0.2419         estimate D2E/DX2                !
 ! D88   D(3,7,30,32)         -151.1481         estimate D2E/DX2                !
 ! D89   D(12,7,30,28)         148.517          estimate D2E/DX2                !
 ! D90   D(12,7,30,32)          -2.8729         estimate D2E/DX2                !
 ! D91   D(4,8,11,50)            1.2125         estimate D2E/DX2                !
 ! D92   D(4,8,11,54)         -146.5099         estimate D2E/DX2                !
 ! D93   D(16,8,11,50)         148.7528         estimate D2E/DX2                !
 ! D94   D(16,8,11,54)           1.0304         estimate D2E/DX2                !
 ! D95   D(4,8,16,14)            5.3804         estimate D2E/DX2                !
 ! D96   D(4,8,16,18)          153.8191         estimate D2E/DX2                !
 ! D97   D(11,8,16,14)        -145.7163         estimate D2E/DX2                !
 ! D98   D(11,8,16,18)           2.7224         estimate D2E/DX2                !
 ! D99   D(5,9,13,15)           -2.1145         estimate D2E/DX2                !
 ! D100  D(5,9,13,43)         -146.0967         estimate D2E/DX2                !
 ! D101  D(35,9,13,15)         156.5381         estimate D2E/DX2                !
 ! D102  D(35,9,13,43)          12.5559         estimate D2E/DX2                !
 ! D103  D(5,9,35,33)           -6.3978         estimate D2E/DX2                !
 ! D104  D(5,9,35,37)          150.124          estimate D2E/DX2                !
 ! D105  D(13,9,35,33)        -164.6334         estimate D2E/DX2                !
 ! D106  D(13,9,35,37)          -8.1116         estimate D2E/DX2                !
 ! D107  D(6,10,49,47)          27.6194         estimate D2E/DX2                !
 ! D108  D(6,10,49,51)         144.4484         estimate D2E/DX2                !
 ! D109  D(6,10,49,90)         -94.2503         estimate D2E/DX2                !
 ! D110  D(53,10,49,47)       -124.7229         estimate D2E/DX2                !
 ! D111  D(53,10,49,51)         -7.8939         estimate D2E/DX2                !
 ! D112  D(53,10,49,90)        113.4074         estimate D2E/DX2                !
 ! D113  D(6,10,53,19)           0.226          estimate D2E/DX2                !
 ! D114  D(6,10,53,55)        -153.1444         estimate D2E/DX2                !
 ! D115  D(49,10,53,19)        153.5857         estimate D2E/DX2                !
 ! D116  D(49,10,53,55)          0.2152         estimate D2E/DX2                !
 ! D117  D(8,11,50,48)         -28.7611         estimate D2E/DX2                !
 ! D118  D(8,11,50,52)        -144.977          estimate D2E/DX2                !
 ! D119  D(8,11,50,89)          94.1229         estimate D2E/DX2                !
 ! D120  D(54,11,50,48)        121.4641         estimate D2E/DX2                !
 ! D121  D(54,11,50,52)          5.2483         estimate D2E/DX2                !
 ! D122  D(54,11,50,89)       -115.6519         estimate D2E/DX2                !
 ! D123  D(8,11,54,20)          -3.2369         estimate D2E/DX2                !
 ! D124  D(8,11,54,56)         147.1488         estimate D2E/DX2                !
 ! D125  D(50,11,54,20)       -154.6953         estimate D2E/DX2                !
 ! D126  D(50,11,54,56)         -4.3096         estimate D2E/DX2                !
 ! D127  D(7,12,14,16)           5.4017         estimate D2E/DX2                !
 ! D128  D(7,12,14,46)         152.6465         estimate D2E/DX2                !
 ! D129  D(36,12,14,16)       -149.02           estimate D2E/DX2                !
 ! D130  D(36,12,14,46)         -1.7751         estimate D2E/DX2                !
 ! D131  D(7,12,36,34)           4.3281         estimate D2E/DX2                !
 ! D132  D(7,12,36,38)        -150.6592         estimate D2E/DX2                !
 ! D133  D(14,12,36,34)        157.7104         estimate D2E/DX2                !
 ! D134  D(14,12,36,38)          2.7231         estimate D2E/DX2                !
 ! D135  D(9,13,15,6)         -144.7449         estimate D2E/DX2                !
 ! D136  D(9,13,15,17)           1.7108         estimate D2E/DX2                !
 ! D137  D(43,13,15,6)           3.6442         estimate D2E/DX2                !
 ! D138  D(43,13,15,17)        150.0998         estimate D2E/DX2                !
 ! D139  D(9,13,43,2)          150.5959         estimate D2E/DX2                !
 ! D140  D(9,13,43,39)          -6.1276         estimate D2E/DX2                !
 ! D141  D(15,13,43,2)           2.807          estimate D2E/DX2                !
 ! D142  D(15,13,43,39)       -153.9165         estimate D2E/DX2                !
 ! D143  D(12,14,16,8)         152.9056         estimate D2E/DX2                !
 ! D144  D(12,14,16,18)          4.1776         estimate D2E/DX2                !
 ! D145  D(46,14,16,8)           2.2945         estimate D2E/DX2                !
 ! D146  D(46,14,16,18)       -146.4334         estimate D2E/DX2                !
 ! D147  D(12,14,46,4)        -160.0234         estimate D2E/DX2                !
 ! D148  D(12,14,46,42)         -1.8244         estimate D2E/DX2                !
 ! D149  D(16,14,46,4)          -8.9688         estimate D2E/DX2                !
 ! D150  D(16,14,46,42)        149.2302         estimate D2E/DX2                !
 ! D151  D(6,15,17,1)          154.4433         estimate D2E/DX2                !
 ! D152  D(6,15,17,19)           4.7014         estimate D2E/DX2                !
 ! D153  D(13,15,17,1)          12.0854         estimate D2E/DX2                !
 ! D154  D(13,15,17,19)       -137.6565         estimate D2E/DX2                !
 ! D155  D(8,16,18,3)         -154.2444         estimate D2E/DX2                !
 ! D156  D(8,16,18,20)          -4.1806         estimate D2E/DX2                !
 ! D157  D(14,16,18,3)          -9.6999         estimate D2E/DX2                !
 ! D158  D(14,16,18,20)        140.364          estimate D2E/DX2                !
 ! D159  D(1,17,19,21)          -0.8618         estimate D2E/DX2                !
 ! D160  D(1,17,19,53)        -153.8315         estimate D2E/DX2                !
 ! D161  D(15,17,19,21)        151.4865         estimate D2E/DX2                !
 ! D162  D(15,17,19,53)         -1.4832         estimate D2E/DX2                !
 ! D163  D(3,18,20,22)           1.9915         estimate D2E/DX2                !
 ! D164  D(3,18,20,54)         151.3373         estimate D2E/DX2                !
 ! D165  D(16,18,20,22)       -147.4084         estimate D2E/DX2                !
 ! D166  D(16,18,20,54)          1.9374         estimate D2E/DX2                !
 ! D167  D(17,19,21,23)         -7.7745         estimate D2E/DX2                !
 ! D168  D(17,19,21,57)       -125.7454         estimate D2E/DX2                !
 ! D169  D(17,19,21,97)        111.8154         estimate D2E/DX2                !
 ! D170  D(53,19,21,23)        144.2381         estimate D2E/DX2                !
 ! D171  D(53,19,21,57)         26.2672         estimate D2E/DX2                !
 ! D172  D(53,19,21,97)        -96.172          estimate D2E/DX2                !
 ! D173  D(17,19,53,10)         -0.975          estimate D2E/DX2                !
 ! D174  D(17,19,53,55)        149.7539         estimate D2E/DX2                !
 ! D175  D(21,19,53,10)       -150.6597         estimate D2E/DX2                !
 ! D176  D(21,19,53,55)          0.0692         estimate D2E/DX2                !
 ! D177  D(18,20,22,24)         -3.8111         estimate D2E/DX2                !
 ! D178  D(18,20,22,58)        139.4167         estimate D2E/DX2                !
 ! D179  D(54,20,22,24)       -153.9462         estimate D2E/DX2                !
 ! D180  D(54,20,22,58)        -10.7184         estimate D2E/DX2                !
 ! D181  D(18,20,54,11)          1.6911         estimate D2E/DX2                !
 ! D182  D(18,20,54,56)       -144.7765         estimate D2E/DX2                !
 ! D183  D(22,20,54,11)        151.518          estimate D2E/DX2                !
 ! D184  D(22,20,54,56)          5.0504         estimate D2E/DX2                !
 ! D185  D(19,21,23,1)          13.9969         estimate D2E/DX2                !
 ! D186  D(19,21,23,25)       -148.7371         estimate D2E/DX2                !
 ! D187  D(57,21,23,1)         131.6205         estimate D2E/DX2                !
 ! D188  D(57,21,23,25)        -31.1135         estimate D2E/DX2                !
 ! D189  D(97,21,23,1)        -106.6125         estimate D2E/DX2                !
 ! D190  D(97,21,23,25)         90.6535         estimate D2E/DX2                !
 ! D191  D(19,21,57,59)        143.5186         estimate D2E/DX2                !
 ! D192  D(19,21,57,83)        -26.2741         estimate D2E/DX2                !
 ! D193  D(23,21,57,59)         31.8796         estimate D2E/DX2                !
 ! D194  D(23,21,57,83)       -137.913          estimate D2E/DX2                !
 ! D195  D(97,21,57,59)        -91.5553         estimate D2E/DX2                !
 ! D196  D(97,21,57,83)         98.652          estimate D2E/DX2                !
 ! D197  D(20,22,24,26)          2.3792         estimate D2E/DX2                !
 ! D198  D(20,22,24,62)        152.2505         estimate D2E/DX2                !
 ! D199  D(58,22,24,26)       -144.7643         estimate D2E/DX2                !
 ! D200  D(58,22,24,62)          5.1069         estimate D2E/DX2                !
 ! D201  D(20,22,58,60)       -146.1773         estimate D2E/DX2                !
 ! D202  D(20,22,58,84)          5.472          estimate D2E/DX2                !
 ! D203  D(24,22,58,60)          1.7723         estimate D2E/DX2                !
 ! D204  D(24,22,58,84)        153.4216         estimate D2E/DX2                !
 ! D205  D(1,23,25,27)          -0.7493         estimate D2E/DX2                !
 ! D206  D(1,23,25,61)        -157.0451         estimate D2E/DX2                !
 ! D207  D(21,23,25,27)        160.3523         estimate D2E/DX2                !
 ! D208  D(21,23,25,61)          4.0565         estimate D2E/DX2                !
 ! D209  D(22,24,26,3)           0.8966         estimate D2E/DX2                !
 ! D210  D(22,24,26,28)        148.365          estimate D2E/DX2                !
 ! D211  D(62,24,26,3)        -145.3814         estimate D2E/DX2                !
 ! D212  D(62,24,26,28)          2.087          estimate D2E/DX2                !
 ! D213  D(22,24,62,60)         -9.201          estimate D2E/DX2                !
 ! D214  D(22,24,62,64)       -124.2333         estimate D2E/DX2                !
 ! D215  D(22,24,62,94)        111.8407         estimate D2E/DX2                !
 ! D216  D(26,24,62,60)        139.8361         estimate D2E/DX2                !
 ! D217  D(26,24,62,64)         24.8038         estimate D2E/DX2                !
 ! D218  D(26,24,62,94)        -99.1222         estimate D2E/DX2                !
 ! D219  D(23,25,27,29)        -22.4643         estimate D2E/DX2                !
 ! D220  D(23,25,27,65)       -137.0961         estimate D2E/DX2                !
 ! D221  D(23,25,27,93)        103.2287         estimate D2E/DX2                !
 ! D222  D(61,25,27,29)        136.0295         estimate D2E/DX2                !
 ! D223  D(61,25,27,65)         21.3977         estimate D2E/DX2                !
 ! D224  D(61,25,27,93)        -98.2774         estimate D2E/DX2                !
 ! D225  D(23,25,61,59)         21.3184         estimate D2E/DX2                !
 ! D226  D(23,25,61,63)        136.5604         estimate D2E/DX2                !
 ! D227  D(23,25,61,96)       -104.3452         estimate D2E/DX2                !
 ! D228  D(27,25,61,59)       -137.1599         estimate D2E/DX2                !
 ! D229  D(27,25,61,63)        -21.918          estimate D2E/DX2                !
 ! D230  D(27,25,61,96)         97.1764         estimate D2E/DX2                !
 ! D231  D(3,26,28,30)           4.4243         estimate D2E/DX2                !
 ! D232  D(3,26,28,66)         119.5342         estimate D2E/DX2                !
 ! D233  D(3,26,28,85)        -117.9419         estimate D2E/DX2                !
 ! D234  D(24,26,28,30)       -145.4457         estimate D2E/DX2                !
 ! D235  D(24,26,28,66)        -30.3358         estimate D2E/DX2                !
 ! D236  D(24,26,28,85)         92.1881         estimate D2E/DX2                !
 ! D237  D(25,27,29,5)          17.0814         estimate D2E/DX2                !
 ! D238  D(25,27,29,31)       -147.1572         estimate D2E/DX2                !
 ! D239  D(65,27,29,5)         126.9116         estimate D2E/DX2                !
 ! D240  D(65,27,29,31)        -37.3269         estimate D2E/DX2                !
 ! D241  D(93,27,29,5)        -109.2619         estimate D2E/DX2                !
 ! D242  D(93,27,29,31)         86.4996         estimate D2E/DX2                !
 ! D243  D(25,27,65,63)        -12.0078         estimate D2E/DX2                !
 ! D244  D(25,27,65,67)        150.5826         estimate D2E/DX2                !
 ! D245  D(29,27,65,63)       -129.7196         estimate D2E/DX2                !
 ! D246  D(29,27,65,67)         32.8708         estimate D2E/DX2                !
 ! D247  D(93,27,65,63)        107.4013         estimate D2E/DX2                !
 ! D248  D(93,27,65,67)        -90.0084         estimate D2E/DX2                !
 ! D249  D(26,28,30,7)          -2.7874         estimate D2E/DX2                !
 ! D250  D(26,28,30,32)        147.496          estimate D2E/DX2                !
 ! D251  D(66,28,30,7)        -118.6551         estimate D2E/DX2                !
 ! D252  D(66,28,30,32)         31.6283         estimate D2E/DX2                !
 ! D253  D(85,28,30,7)         119.0968         estimate D2E/DX2                !
 ! D254  D(85,28,30,32)        -90.6197         estimate D2E/DX2                !
 ! D255  D(26,28,66,64)         30.792          estimate D2E/DX2                !
 ! D256  D(26,28,66,68)       -140.1603         estimate D2E/DX2                !
 ! D257  D(30,28,66,64)        140.7097         estimate D2E/DX2                !
 ! D258  D(30,28,66,68)        -30.2426         estimate D2E/DX2                !
 ! D259  D(85,28,66,64)        -94.1581         estimate D2E/DX2                !
 ! D260  D(85,28,66,68)         94.8896         estimate D2E/DX2                !
 ! D261  D(5,29,31,33)          -3.7673         estimate D2E/DX2                !
 ! D262  D(5,29,31,69)        -158.7264         estimate D2E/DX2                !
 ! D263  D(27,29,31,33)        161.0182         estimate D2E/DX2                !
 ! D264  D(27,29,31,69)          6.0591         estimate D2E/DX2                !
 ! D265  D(7,30,32,34)          -0.3118         estimate D2E/DX2                !
 ! D266  D(7,30,32,70)         148.0833         estimate D2E/DX2                !
 ! D267  D(28,30,32,34)       -148.3376         estimate D2E/DX2                !
 ! D268  D(28,30,32,70)          0.0575         estimate D2E/DX2                !
 ! D269  D(29,31,33,35)         -4.4443         estimate D2E/DX2                !
 ! D270  D(29,31,33,73)       -155.6651         estimate D2E/DX2                !
 ! D271  D(69,31,33,35)        153.7349         estimate D2E/DX2                !
 ! D272  D(69,31,33,73)          2.5142         estimate D2E/DX2                !
 ! D273  D(29,31,69,67)         32.9994         estimate D2E/DX2                !
 ! D274  D(29,31,69,71)        149.4482         estimate D2E/DX2                !
 ! D275  D(29,31,69,92)        -88.9689         estimate D2E/DX2                !
 ! D276  D(33,31,69,67)       -124.1815         estimate D2E/DX2                !
 ! D277  D(33,31,69,71)         -7.7327         estimate D2E/DX2                !
[...]
 Alpha virt. eigenvalues --    1.46703   1.47226   1.47699   1.48155   1.48309
 Alpha virt. eigenvalues --    1.49511   1.49873   1.51156   1.51625   1.51713
 Alpha virt. eigenvalues --    1.52072   1.52903   1.53066   1.54025   1.55094
 Alpha virt. eigenvalues --    1.55399   1.55719   1.56416   1.56685   1.57048
 Alpha virt. eigenvalues --    1.57694   1.58715   1.58999   1.59290   1.59325
 Alpha virt. eigenvalues --    1.60594   1.60903   1.61077   1.61491   1.61876
 Alpha virt. eigenvalues --    1.62054   1.62156   1.62379   1.62628   1.63276
 Alpha virt. eigenvalues --    1.63568   1.63833   1.63893   1.64006   1.64403
 Alpha virt. eigenvalues --    1.64669   1.65023   1.65061   1.65318   1.65495
 Alpha virt. eigenvalues --    1.65773   1.66077   1.66412   1.66662   1.66961
 Alpha virt. eigenvalues --    1.67267   1.67406   1.67679   1.68046   1.68177
 Alpha virt. eigenvalues --    1.68373   1.68395   1.68527   1.68831   1.69203
 Alpha virt. eigenvalues --    1.69317   1.69573   1.69859   1.69989   1.70143
 Alpha virt. eigenvalues --    1.70556   1.70646   1.70943   1.71208   1.71788
 Alpha virt. eigenvalues --    1.71887   1.71960   1.72165   1.72517   1.72699
 Alpha virt. eigenvalues --    1.72976   1.73111   1.73218   1.73577   1.73827
 Alpha virt. eigenvalues --    1.74178   1.74256   1.74707   1.75110   1.75247
 Alpha virt. eigenvalues --    1.75368   1.75491   1.75719   1.75769   1.75837
 Alpha virt. eigenvalues --    1.76072   1.76574   1.76716   1.76767   1.77329
 Alpha virt. eigenvalues --    1.77428   1.77641   1.77943   1.78134   1.78171
 Alpha virt. eigenvalues --    1.78353   1.78470   1.78610   1.79390   1.79474
 Alpha virt. eigenvalues --    1.79719   1.80202   1.80365   1.80598   1.80728
 Alpha virt. eigenvalues --    1.81085   1.81215   1.81405   1.81626   1.81981
 Alpha virt. eigenvalues --    1.82066   1.82408   1.82774   1.82884   1.83424
 Alpha virt. eigenvalues --    1.83891   1.84135   1.84348   1.84683   1.84926
 Alpha virt. eigenvalues --    1.85365   1.85718   1.85876   1.86206   1.86408
 Alpha virt. eigenvalues --    1.86857   1.87288   1.87585   1.87954   1.88451
 Alpha virt. eigenvalues --    1.88470   1.88890   1.89264   1.89551   1.89593
 Alpha virt. eigenvalues --    1.90032   1.90398   1.90742   1.91096   1.91574
 Alpha virt. eigenvalues --    1.92123   1.92298   1.92621   1.93197   1.93675
 Alpha virt. eigenvalues --    1.93744   1.93924   1.94141   1.94636   1.94844
 Alpha virt. eigenvalues --    1.95438   1.96065   1.96717   1.96882   1.97175
 Alpha virt. eigenvalues --    1.97502   1.97765   1.98118   1.98262   1.98442
 Alpha virt. eigenvalues --    1.98690   1.99281   1.99609   1.99822   2.00130
 Alpha virt. eigenvalues --    2.00383   2.00717   2.01073   2.01418   2.01588
 Alpha virt. eigenvalues --    2.01750   2.02067   2.02835   2.03030   2.03128
 Alpha virt. eigenvalues --    2.03465   2.03965   2.04050   2.04378   2.05013
 Alpha virt. eigenvalues --    2.05507   2.05943   2.06143   2.06336   2.07007
 Alpha virt. eigenvalues --    2.07315   2.07729   2.07946   2.08113   2.08734
 Alpha virt. eigenvalues --    2.09041   2.09232   2.09677   2.10347   2.10580
 Alpha virt. eigenvalues --    2.11076   2.11501   2.11893   2.12358   2.12635
 Alpha virt. eigenvalues --    2.12765   2.13328   2.13526   2.13985   2.14280
 Alpha virt. eigenvalues --    2.14403   2.14830   2.14973   2.15439   2.15947
 Alpha virt. eigenvalues --    2.16545   2.16584   2.17757   2.17885   2.17944
 Alpha virt. eigenvalues --    2.18482   2.18798   2.19380   2.19901   2.20311
 Alpha virt. eigenvalues --    2.20381   2.20658   2.21007   2.21898   2.22014
 Alpha virt. eigenvalues --    2.22479   2.22618   2.23041   2.23382   2.23987
 Alpha virt. eigenvalues --    2.24485   2.24754   2.24988   2.25464   2.25903
 Alpha virt. eigenvalues --    2.26210   2.26961   2.27062   2.27552   2.27596
 Alpha virt. eigenvalues --    2.28100   2.28832   2.29389   2.29614   2.29859
 Alpha virt. eigenvalues --    2.30102   2.30295   2.30868   2.31582   2.32088
 Alpha virt. eigenvalues --    2.32932   2.33318   2.33685   2.34022   2.34938
 Alpha virt. eigenvalues --    2.35235   2.35570   2.36207   2.36352   2.37240
 Alpha virt. eigenvalues --    2.38049   2.38805   2.38985   2.39434   2.40301
 Alpha virt. eigenvalues --    2.40514   2.40819   2.41262   2.41750   2.42425
 Alpha virt. eigenvalues --    2.43033   2.43296   2.43559   2.43657   2.44877
 Alpha virt. eigenvalues --    2.45240   2.45293   2.46281   2.46914   2.47237
 Alpha virt. eigenvalues --    2.47393   2.47723   2.48338   2.48988   2.49606
 Alpha virt. eigenvalues --    2.49975   2.50028   2.51154   2.51447   2.51828
 Alpha virt. eigenvalues --    2.52155   2.52543   2.52731   2.52984   2.53447
 Alpha virt. eigenvalues --    2.53965   2.54424   2.54701   2.55190   2.55849
 Alpha virt. eigenvalues --    2.56238   2.56351   2.56757   2.57006   2.57418
 Alpha virt. eigenvalues --    2.57666   2.57815   2.57996   2.58418   2.58869
 Alpha virt. eigenvalues --    2.59086   2.59440   2.59770   2.60178   2.60441
 Alpha virt. eigenvalues --    2.60913   2.61382   2.61777   2.61936   2.62370
 Alpha virt. eigenvalues --    2.62525   2.62791   2.63125   2.63245   2.63547
 Alpha virt. eigenvalues --    2.64399   2.64624   2.64722   2.65135   2.65802
 Alpha virt. eigenvalues --    2.65898   2.66705   2.67189   2.67496   2.67741
 Alpha virt. eigenvalues --    2.67785   2.68234   2.68592   2.69403   2.69720
 Alpha virt. eigenvalues --    2.69854   2.70007   2.70699   2.70841   2.71435
 Alpha virt. eigenvalues --    2.71823   2.72036   2.72354   2.72477   2.73008
 Alpha virt. eigenvalues --    2.73469   2.73991   2.74178   2.74244   2.74782
 Alpha virt. eigenvalues --    2.75091   2.75340   2.75922   2.76002   2.76527
 Alpha virt. eigenvalues --    2.76924   2.77292   2.77585   2.78312   2.78721
 Alpha virt. eigenvalues --    2.79188   2.80040   2.80306   2.80627   2.81030
 Alpha virt. eigenvalues --    2.81197   2.81867   2.82426   2.82661   2.82978
 Alpha virt. eigenvalues --    2.83415   2.84310   2.85052   2.85284   2.85906
 Alpha virt. eigenvalues --    2.86380   2.86562   2.87383   2.87975   2.88481
 Alpha virt. eigenvalues --    2.88563   2.89191   2.89425   2.90044   2.90093
 Alpha virt. eigenvalues --    2.90257   2.91495   2.92050   2.92980   2.93433
 Alpha virt. eigenvalues --    2.93699   2.94404   2.95477   2.96197   2.96562
 Alpha virt. eigenvalues --    2.97280   2.98804   2.99259   2.99595   3.00847
 Alpha virt. eigenvalues --    3.02227   3.02975   3.05537   3.05950   3.07858
 Alpha virt. eigenvalues --    3.08612   3.09134   3.10625   3.12138   3.12904
 Alpha virt. eigenvalues --    3.13173   3.14278   3.15581   3.17051   3.18022
 Alpha virt. eigenvalues --    3.18630   3.20605   3.21661   3.22267   3.24155
 Alpha virt. eigenvalues --    3.25473   3.27454   3.29278   3.30489   3.31964
 Alpha virt. eigenvalues --    3.33988   3.35336   3.39921   3.41036   3.41507
 Alpha virt. eigenvalues --    3.42513   3.43692   3.48535   3.49835   3.51236
 Alpha virt. eigenvalues --    3.54427   3.57336   4.00509   4.01167   4.01749
 Alpha virt. eigenvalues --    4.02855   4.03503   4.04028   4.04778   4.05353
 Alpha virt. eigenvalues --    4.06282   4.06716   4.07250   4.07569   4.08712
 Alpha virt. eigenvalues --    4.09167   4.09433   4.10537   4.11415   4.11796
 Alpha virt. eigenvalues --    4.12124   4.13172   4.14428   4.14848   4.16007
 Alpha virt. eigenvalues --    4.17084   4.17757   4.18252   4.18409   4.19180
 Alpha virt. eigenvalues --    4.20044   4.20574   4.21025   4.22083   4.22609
 Alpha virt. eigenvalues --    4.23742   4.24965   4.25433   4.25936   4.26297
 Alpha virt. eigenvalues --    4.26601   4.26930   4.27362   4.27534   4.28232
 Alpha virt. eigenvalues --    4.28729   4.28963   4.29477   4.30855   4.31136
 Alpha virt. eigenvalues --    4.32372   4.33583   4.34138   4.34524   4.35669
 Alpha virt. eigenvalues --    4.37150   4.38819   4.39349   4.40002   4.41176
 Alpha virt. eigenvalues --    4.41892   4.42114   4.42845   4.43082   4.44223
 Alpha virt. eigenvalues --    4.44540   4.46808   4.47663   4.48306   4.51078
 Alpha virt. eigenvalues --    4.51506   4.53285   4.54370   4.55123   4.57443
 Alpha virt. eigenvalues --    4.57539   4.59426   4.60714   4.62226   4.64190
 Alpha virt. eigenvalues --    4.64613   4.67406   4.68369   4.70605   4.76875
 Alpha virt. eigenvalues --    4.77730   4.79638   4.81408   4.82594   4.83266
 Alpha virt. eigenvalues --    4.84380   4.91107   4.93367   4.96768   4.98354
 Alpha virt. eigenvalues --    5.03430   5.07757   5.12335   5.15069   5.21058
          Condensed to atoms (all electrons):
 Mulliken charges:
               1
     1  C   -0.353871
     2  C   -0.371297
     3  C    0.007802
     4  C   -0.383704
     5  C    0.088927
     6  C    0.086802
     7  C    0.010307
     8  C    0.089390
     9  C    0.063000
    10  C    0.127446
    11  C    0.092342
    12  C    0.042036
    13  C   -0.010029
    14  C    0.006074
    15  C    0.030676
    16  C    0.010059
    17  C    0.099486
    18  C    0.044698
    19  C    0.127057
    20  C    0.044292
    21  C   -0.375393
    22  C    0.011728
    23  C    0.176750
    24  C    0.090275
    25  C    0.187657
    26  C    0.091489
    27  C   -0.377628
    28  C   -0.380631
    29  C    0.153269
    30  C    0.086586
    31  C    0.081313
    32  C    0.092821
    33  C    0.008235
    34  C    0.005734
    35  C    0.028799
    36  C    0.035897
    37  C    0.050348
    38  C    0.077405
    39  C    0.057563
    40  C    0.040664
    41  C    0.080395
    42  C    0.117931
    43  C    0.055806
    44  C    0.121658
    45  C    0.152114
    46  C    0.078471
    47  C    0.125651
    48  C    0.119063
    49  C   -0.367015
    50  C   -0.383024
    51  C    0.151227
    52  C    0.115464
    53  C    0.115378
    54  C    0.013830
    55  C   -0.348490
    56  C   -0.009620
    57  C    0.121766
    58  C    0.009768
    59  C    0.150331
    60  C    0.078200
    61  C   -0.378229
    62  C   -0.388051
    63  C    0.114252
    64  C    0.144384
    65  C    0.119253
    66  C    0.126186
    67  C    0.143621
    68  C    0.120682
    69  C   -0.384416
    70  C   -0.377279
    71  C    0.089183
    72  C    0.094497
    73  C    0.025564
    74  C    0.024354
    75  C   -0.010057
    76  C   -0.009060
    77  C   -0.018748
    78  C   -0.045706
    79  C   -0.002922
    80  C   -0.371372
    81  C    0.008470
    82  C    0.077415
    83  C    0.104635
    84  C    0.072548
    85  Cl   0.023741
    86  Cl   0.019234
    87  Cl   0.001916
    88  Cl   0.021248
    89  Cl   0.018654
    90  Cl   0.014554
    91  Cl   0.006570
    92  Cl   0.021126
    93  Cl   0.030423
    94  Cl   0.026728
    95  Cl   0.003215
    96  Cl   0.027347
    97  Cl   0.023835
    98  Cl  -0.011073
 Sum of Mulliken charges =  -0.00000
 Mulliken charges with hydrogens summed into heavy atoms:
               1
     1  C   -0.353871
     2  C   -0.371297
     3  C    0.007802
     4  C   -0.383704
     5  C    0.088927
     6  C    0.086802
     7  C    0.010307
     8  C    0.089390
     9  C    0.063000
    10  C    0.127446
    11  C    0.092342
    12  C    0.042036
    13  C   -0.010029
    14  C    0.006074
    15  C    0.030676
    16  C    0.010059
    17  C    0.099486
    18  C    0.044698
    19  C    0.127057
    20  C    0.044292
    21  C   -0.375393
    22  C    0.011728
    23  C    0.176750
    24  C    0.090275
    25  C    0.187657
    26  C    0.091489
    27  C   -0.377628
    28  C   -0.380631
    29  C    0.153269
    30  C    0.086586
    31  C    0.081313
    32  C    0.092821
    33  C    0.008235
    34  C    0.005734
    35  C    0.028799
    36  C    0.035897
    37  C    0.050348
    38  C    0.077405
    39  C    0.057563
    40  C    0.040664
    41  C    0.080395
    42  C    0.117931
    43  C    0.055806
    44  C    0.121658
    45  C    0.152114
    46  C    0.078471
    47  C    0.125651
    48  C    0.119063
    49  C   -0.367015
    50  C   -0.383024
    51  C    0.151227
    52  C    0.115464
    53  C    0.115378
    54  C    0.013830
    55  C   -0.348490
    56  C   -0.009620
    57  C    0.121766
    58  C    0.009768
    59  C    0.150331
    60  C    0.078200
    61  C   -0.378229
    62  C   -0.388051
    63  C    0.114252
    64  C    0.144384
    65  C    0.119253
    66  C    0.126186
    67  C    0.143621
    68  C    0.120682
    69  C   -0.384416
    70  C   -0.377279
    71  C    0.089183
    72  C    0.094497
    73  C    0.025564
    74  C    0.024354
    75  C   -0.010057
    76  C   -0.009060
    77  C   -0.018748
    78  C   -0.045706
    79  C   -0.002922
    80  C   -0.371372
    81  C    0.008470
    82  C    0.077415
    83  C    0.104635
    84  C    0.072548
    85  Cl   0.023741
    86  Cl   0.019234
    87  Cl   0.001916
    88  Cl   0.021248
    89  Cl   0.018654
    90  Cl   0.014554
    91  Cl   0.006570
    92  Cl   0.021126
    93  Cl   0.030423
    94  Cl   0.026728
    95  Cl   0.003215
    96  Cl   0.027347
    97  Cl   0.023835
    98  Cl  -0.011073
 Electronic spatial extent (au):  <R**2>=          66849.6883
 Charge=              0.0000 electrons
 Dipole moment (field-independent basis, Debye):
    X=              0.2990    Y=             -4.9477    Z=             -0.4847  Tot=              4.9803
 Quadrupole moment (field-independent basis, Debye-Ang):
   XX=           -695.5362   YY=           -663.7351   ZZ=           -636.6429
   XY=             -3.8164   XZ=             -1.5745   YZ=             -1.8399
 Traceless Quadrupole moment (field-independent basis, Debye-Ang):
   XX=            -30.2314   YY=              1.5696   ZZ=             28.6618
   XY=             -3.8164   XZ=             -1.5745   YZ=             -1.8399
 Octapole moment (field-independent basis, Debye-Ang**2):
  XXX=             58.6501  YYY=            -33.9657  ZZZ=             23.9657  XYY=             28.0347
  XXY=             34.7606  XXZ=             -3.1413  XZZ=             -2.0039  YZZ=             -7.6668
  YYZ=              5.9830  XYZ=             25.0709
 Hexadecapole moment (field-independent basis, Debye-Ang**3):
 XXXX=         -39021.3744 YYYY=         -31804.5102 ZZZZ=         -23377.5036 XXXY=            189.0759
 XXXZ=            104.8233 YYYX=            -18.7396 YYYZ=            -95.8078 ZZZX=            -84.6734
 ZZZY=              3.0052 XXYY=         -12015.2104 XXZZ=         -10535.4317 YYZZ=          -9219.3554
 XXYZ=             -2.6794 YYXZ=             20.6870 ZZXY=             37.3987
 N-N= 2.603347194483D+04 E-N=-7.477094556474D+04  KE= 9.594214036760D+03
 No NMR shielding tensors so no spin-rotation constants.
 Leave Link  601 at Tue Jun 28 03:02:29 2022, MaxMem=  1342177280 cpu:              27.6 elap:               1.4
 (Enter /home/mkliu/g16/l9999.exe)
 1\1\GINC-NODE04\FOpt\RB3LYP\6-31G(d,p)\C84Cl14\MKLIU\28-Jun-2022\0\\#P
  opt b3lyp/6-31G(d, p) empiricaldispersion=GD3\\force\\0,1\C,8.4370741
 845,18.6643771445,10.7945299735\C,12.5900419392,19.9910840723,8.881878
 4955\C,8.2570015108,26.8659934206,10.5129811307\C,12.5154033921,25.753
 2047164,8.8997486507\C,8.0288638096,19.1681251216,9.4097459944\C,12.07
 02593897,19.5030743677,10.2125565119\C,7.9453039557,26.8390966759,9.11
 83822194\C,11.8967126015,26.1715144807,10.2135723835\C,8.9870448377,19
 .2538723615,8.3491219128\C,12.3279259612,20.1565833411,11.3985731186\C
 ,12.1522868266,25.5220273983,11.3732664353\C,8.9587387074,26.643686434
 9,8.1394007219\C,10.3830345354,19.0872665993,8.6573362288\C,10.2974986
 103,26.6793698204,8.6082558061\C,10.8258731234,18.8731593216,10.029192
 8876\C,10.6138552533,26.7807676247,9.9846613915\C,9.9066759566,18.8028
 672768,11.0573093464\C,9.5941094385,26.7715260154,10.9779278034\C,10.1
 785390456,19.450333079,12.269832857\C,9.8471206652,26.0502327938,12.20
 28514688\C,8.9084936214,19.8555542216,12.9675064152\C,8.7524270876,25.
 4386434524,12.8459109103\C,7.8713091078,19.5257070923,11.9064736815\C,
 7.4137896672,25.5776415887,12.3709944254\C,6.7498139388,20.2170763304,
 11.7618403857\C,7.1659232202,26.2837478588,11.2347880517\C,5.945083493
 3,20.189386207,10.4871882669\C,6.0239479247,25.9451132862,10.291041540
 3\C,6.7739244271,19.7921493914,9.2782466185\C,6.6348088532,26.30079550
 8,8.951805145\C,6.4267146387,20.3765094125,8.0636481629\C,6.3278329912
 ,25.6344893745,7.8119839461\C,7.3370841273,20.4229672744,6.9957804178\
 C,7.3081512191,25.4748746434,6.7791532653\C,8.6709232318,19.954581412,
 7.1326455392\C,8.6591655723,25.8976523716,6.9425025301\C,9.7182901911,
 20.6132542188,6.3568784871\C,9.7206415896,25.1502628394,6.2741144141\C
 ,11.0724801723,20.5856059771,6.8538540526\C,12.7506139672,22.186603392
 2,7.7675926571\C,12.7850810085,23.5866230316,7.7527850095\C,11.0697596
 988,25.1802168243,6.840544404\C,11.3713864443,19.7647805235,7.97364132
 72\C,12.9504675276,21.4636781387,8.9428925385\C,12.9424955575,24.29448
 09048,8.9331171371\C,11.3346355352,25.9533822078,7.9363143238\C,13.176
 7346068,22.1657561522,10.1469298851\C,13.1541909829,23.5824802217,10.1
 405440119\C,13.1952995507,21.3923433336,11.4770364056\C,13.0941949794,
 24.3371476655,11.464309706\C,12.4918653492,22.1629780928,12.5677721731
 \C,12.4117485913,23.4962572592,12.525537288\C,11.3710167754,20.1292451
 415,12.4349223149\C,11.122569356,25.4177167666,12.3796121982\C,11.4765
 080863,21.3299585109,13.3254488307\C,11.2653642021,24.1972961827,13.06
 0644787\C,8.9142883452,21.3468257534,13.3033835384\C,8.8887276184,24.1
 393729999,13.4456824217\C,7.6771915465,22.0597540405,13.1985792777\C,7
 .6733402034,23.4345790637,13.3148352762\C,6.4345792568,21.4287624384,1
 2.5982511563\C,6.5919630379,24.3685517869,12.7613865071\C,5.8492833155
 ,22.3479475207,11.5367634093\C,5.945432491,23.7384086372,11.5395475841
 \C,5.5616262035,21.6551089243,10.3670210526\C,5.7095575141,24.44307628
 06,10.3417895293\C,5.3460683899,22.3274319438,9.1638356898\C,5.4002363
 019,23.7368091243,9.1487060475\C,5.3679450021,21.4782693232,7.90333712
 58\C,5.3430468034,24.4775763741,7.8028089849\C,5.9062893947,22.2546074
 607,6.7253927053\C,5.8998465855,23.6187464853,6.6803648048\C,6.9935054
 128,21.5321441744,6.1350545696\C,6.9814005288,24.3080035948,6.03007564
 42\C,7.9922709671,22.1727686051,5.4292290075\C,7.9989522788,23.6131290
 17,5.3768346795\C,9.353452574,21.7103356824,5.5251594553\C,9.355594472
 5,24.0598238133,5.4525137648\C,11.8973008295,21.7211790843,6.666166796
 5\C,12.0961643518,24.1143570809,6.4936378845\C,10.1945080562,22.859816
 4058,5.4084894343\C,11.4551657456,22.8485434747,5.9696089485\C,10.1261
 691909,22.030868544,13.4757701982\C,10.1250576501,23.4636972114,13.508
 7991941\Cl,4.5116687444,26.9175931784,10.6716226137\Cl,3.6140656625,25
 .0117717132,7.4686853688\Cl,13.3211172866,24.7838765089,5.2747099281\C
 l,13.9306984573,26.8398803641,8.4419102331\Cl,14.7824344479,24.8583975
 251,11.9879045735\Cl,14.9443804387,20.9665392046,11.9007423563\Cl,14.0
 488274172,19.0106387959,8.3096792436\Cl,3.6910134984,20.8040244577,7.5
 48058356\Cl,4.4740632397,19.0931904775,10.6658951609\Cl,5.3221198227,2
 4.7841296042,14.0251836311\Cl,7.8953906121,16.8929681958,10.9702893893
 \Cl,5.2005552233,21.0393784538,13.9142032052\Cl,8.6217161547,18.883387
 8271,14.5112941465\Cl,12.11056134,20.8801464406,15.0243538366\\Version
 =ES64L-G16RevA.03\State=1-A\HF=-9643.8375266\RMSD=4.727e-09\RMSF=1.690
 e-05\Dipole=-0.2106929,1.2826745,-1.4661695\Quadrupole=-22.1591127,11.
 8098728,10.3492399,-2.3766266,3.2880612,10.3124622\PG=C01 [X(C84Cl14)]
 \\@


 UNDER MOST GREENE GRASSE LY MOST GREATE SNAKES.
 -- PROVERBS AND REASONS OF THE YEAR 1585
           AS REPRINTED IN PAISLEY MAGAZINE 1828.
 Job cpu time:       1 days 12 hours 42 minutes 27.0 seconds.
 Elapsed time:       0 days  1 hours 31 minutes 53.8 seconds.
 File lengths (MBytes):  RWF=   1429 Int=      0 D2E=      0 Chk=    179 Scr=      1
 Normal termination of Gaussian 16 at Tue Jun 28 03:02:31 2022.
