 Entering Gaussian System, Link 0=g16
 Input=14_addons_C84_11_Cl22_rank_4.gjf
 Output=14_addons_C84_11_Cl22_rank_4.log
 Initial command:
 /home/mkliu/g16/l1.exe "/data/scratch/Gau-171581.inp" -scrdir="/data/scratch/"
 Entering Link 1 = /home/mkliu/g16/l1.exe PID=    171582.
  
 Copyright (c) 1988,1990,1992,1993,1995,1998,2003,2009,2016,
            Gaussian, Inc.  All Rights Reserved.
  
 This is part of the Gaussian(R) 16 program.  It is based on
 the Gaussian(R) 09 system (copyright 2009, Gaussian, Inc.),
 the Gaussian(R) 03 system (copyright 2003, Gaussian, Inc.),
 the Gaussian(R) 98 system (copyright 1998, Gaussian, Inc.),
 the Gaussian(R) 94 system (copyright 1995, Gaussian, Inc.),
 the Gaussian 92(TM) system (copyright 1992, Gaussian, Inc.),
 the Gaussian 90(TM) system (copyright 1990, Gaussian, Inc.),
 the Gaussian 88(TM) system (copyright 1988, Gaussian, Inc.),
 the Gaussian 86(TM) system (copyright 1986, Carnegie Mellon
 University), and the Gaussian 82(TM) system (copyright 1983,
 Carnegie Mellon University). Gaussian is a federally registered
 trademark of Gaussian, Inc.
  
 This software contains proprietary and confidential information,
 including trade secrets, belonging to Gaussian, Inc.
  
 This software is provided under written license and may be
 used, copied, transmitted, or stored only in accord with that
 written license.
  
 The following legend is applicable only to US Government
 contracts under FAR:
  
                    RESTRICTED RIGHTS LEGEND
  
 Use, reproduction and disclosure by the US Government is
 subject to restrictions as set forth in subparagraphs (a)
 and (c) of the Commercial Computer Software - Restricted
 Rights clause in FAR 52.227-19.
  
 Gaussian, Inc.
 340 Quinnipiac St., Bldg. 40, Wallingford CT 06492
  
  
 ---------------------------------------------------------------
 Warning -- This program may not be used in any manner that
 competes with the business of Gaussian, Inc. or will provide
 assistance to any competitor of Gaussian, Inc.  The licensee
 of this program is prohibited from giving any competitor of
 Gaussian, Inc. access to this program.  By using this program,
 the user acknowledges that Gaussian, Inc. is engaged in the
 business of creating and licensing software in the field of
 computational chemistry and represents and warrants to the
 licensee that it is not a competitor of Gaussian, Inc. and that
 it will not use this program in any manner prohibited above.
 ---------------------------------------------------------------
  

 Cite this work as:
 Gaussian 16, Revision A.03,
 M. J. Frisch, G. W. Trucks, H. B. Schlegel, G. E. Scuseria, 
 M. A. Robb, J. R. Cheeseman, G. Scalmani, V. Barone, 
 G. A. Petersson, H. Nakatsuji, X. Li, M. Caricato, A. V. Marenich, 
 J. Bloino, B. G. Janesko, R. Gomperts, B. Mennucci, H. P. Hratchian, 
 J. V. Ortiz, A. F. Izmaylov, J. L. Sonnenberg, D. Williams-Young, 
 F. Ding, F. Lipparini, F. Egidi, J. Goings, B. Peng, A. Petrone, 
 T. Henderson, D. Ranasinghe, V. G. Zakrzewski, J. Gao, N. Rega, 
 G. Zheng, W. Liang, M. Hada, M. Ehara, K. Toyota, R. Fukuda, 
 J. Hasegawa, M. Ishida, T. Nakajima, Y. Honda, O. Kitao, H. Nakai, 
 T. Vreven, K. Throssell, J. A. Montgomery, Jr., J. E. Peralta, 
 F. Ogliaro, M. J. Bearpark, J. J. Heyd, E. N. Brothers, K. N. Kudin, 
 V. N. Staroverov, T. A. Keith, R. Kobayashi, J. Normand, 
 K. Raghavachari, A. P. Rendell, J. C. Burant, S. S. Iyengar, 
 J. Tomasi, M. Cossi, J. M. Millam, M. Klene, C. Adamo, R. Cammi, 
 J. W. Ochterski, R. L. Martin, K. Morokuma, O. Farkas, 
 J. B. Foresman, and D. J. Fox, Gaussian, Inc., Wallingford CT, 2016.
 
 ******************************************
 Gaussian 16:  ES64L-G16RevA.03 25-Dec-2016
                30-Jun-2022 
 ******************************************
 %mem=10GB
 %chk=14_addons_C84_11_Cl22_rank_4.chk
 %nprocshared=24
 Will use up to   24 processors via shared memory.
 ------------------------------------------------
 #P opt b3lyp/6-31G(d, p) empiricaldispersion=GD3
 ------------------------------------------------
 1/18=20,19=15,26=3,38=1/1,3;
 2/9=110,12=2,17=6,18=5,40=1/2;
 3/5=1,6=6,7=101,11=2,25=1,30=1,71=1,74=-5,124=31/1,2,3;
 4//1;
 5/5=2,38=5/2;
 6/7=2,8=2,9=2,10=2,28=1/1;
 7//1,2,3,16;
 1/18=20,19=15,26=3/3(2);
 2/9=110/2;
 99//99;
 2/9=110/2;
 3/5=1,6=6,7=101,11=2,25=1,30=1,71=1,74=-5,124=31/1,2,3;
 4/5=5,16=3,69=1/1;
 5/5=2,38=5/2;
 7//1,2,3,16;
 1/18=20,19=15,26=3/3(-5);
 2/9=110/2;
 6/7=2,8=2,9=2,10=2,19=2,28=1/1;
 99/9=1/99;
 Leave Link    1 at Thu Jun 30 00:41:32 2022, MaxMem=  1342177280 cpu:               0.7 elap:               0.1
 (Enter /home/mkliu/g16/l101.exe)
 -----
 force
 -----
 Symbolic Z-matrix:
 Charge =  0 Multiplicity = 1
 C                     8.49141   18.90621   10.7656 
 C                     12.56533   19.97447   8.86781 
 C                     8.24948   26.85496   10.54166 
 C                     12.43224   25.71254   8.93534 
 C                     8.01855   19.11126   9.45685 
 C                     12.06076   19.47356   10.18749 
 C                     7.85763   27.09126   9.09927 
 C                     11.85374   26.16617   10.24423 
 C                     8.97713   19.21184   8.37438 
 C                     12.31952   20.10901   11.36552 
 C                     12.10188   25.5213   11.37434 
 C                     8.92552   26.54383   8.18521 
 C                     10.3376   19.07326   8.68286 
 C                     10.22531   26.58616   8.6585 
 C                     10.80232   18.84194   10.00863 
 C                     10.6509   27.04361   10.0307 
 C                     9.88136   18.77831   11.04813 
 C                     9.54995   26.75873   11.01181 
 C                     10.16922   19.38793   12.28991 
 C                     9.8054    26.03328   12.18883 
 C                     8.89909   19.80954   12.97612 
 C                     8.74474   25.39916   12.8318 
 C                     7.87797   19.49909   11.9115 
 C                     7.42908   25.49942   12.36212 
 C                     6.74142   20.22225   11.76924 
 C                     7.19779   26.18554   11.19848 
 C                     6.1655    20.35637   10.47964 
 C                     6.24764   25.69939   10.22209 
 C                     6.75823   19.77958   9.33404 
 C                     6.62801   26.23468   8.98129 
 C                     6.41177   20.36006   8.10554 
 C                     6.3347    25.55559   7.83217 
 C                     7.32854   20.35301   6.99614 
 C                     7.19804   25.62845   6.59938 
 C                     8.65609   19.92459   7.16746 
 C                     8.64608   25.79609   7.02948 
 C                     9.69239   20.61144   6.43224 
 C                     9.66875   25.07351   6.39637 
 C                     11.04424   20.56613   6.90428 
 C                     12.66832   22.16912   7.78107 
 C                     12.64968   23.55536   7.78512 
 C                     10.96968   25.09249   6.91685 
 C                     11.35033   19.77912   7.97518 
 C                     12.86619   21.45045   8.9474 
 C                     12.8131   24.25839   8.96661 
 C                     11.23307   25.86276   8.03572 
 C                     13.07441   22.14612   10.1469 
 C                     13.04009   23.55248   10.15242 
 C                     13.13851   21.37065   11.45265 
 C                     13.02044   24.32736   11.45391 
 C                     12.38385   22.13233   12.50774 
 C                     12.32411   23.51164   12.49397 
 C                     11.33776   20.0938   12.40163 
 C                     11.18802   25.59165   12.56545 
 C                     11.3306   21.38995   13.03511 
 C                     11.23326   24.16163   13.03809 
 C                     8.87779   21.29608   13.29503 
 C                     8.87586   24.09248   13.44936 
 C                     7.67892   22.00225   13.19129 
 C                     7.68635   23.39473   13.30342 
 C                     6.41155   21.405    12.62925 
 C                     6.60563   24.31476   12.76896 
 C                     5.78036   22.33548   11.60734 
 C                     5.89758   23.69469   11.59392 
 C                     5.52175   21.62013   10.40543 
 C                     5.67695   24.41791   10.36278 
 C                     5.29607   22.27438   9.18297 
 C                     5.35455   23.70984   9.15927 
 C                     5.61439   21.53005   8.02253 
 C                     5.64786   24.33114   7.91929 
 C                     5.95119   22.18985   6.79646 
 C                     5.9747    23.56736   6.74867 
 C                     6.99433   21.44961   6.1611 
 C                     6.97671   24.26605   6.00336 
 C                     8.00149   22.1389   5.49153 
 C                     7.97034   23.56651   5.39248 
 C                     9.33406   21.69128   5.60102 
 C                     9.36786   24.09907   5.27329 
 C                     12.05024   21.61877   6.52359 
 C                     12.03576   24.10367   6.52193 
 C                     10.19265   22.8464   5.46107 
 C                     11.43339   22.85825   5.95126 
 C                     10.11337   21.99991   13.43604 
 C                     10.11362   23.4296   13.48278 
 Cl                    13.82558   26.72243   8.40496 
 Cl                    13.25312   24.88485   5.44786 
 Cl                    9.69468   24.909    3.69829 
 Cl                    6.76009   26.97781   5.49118 
 Cl                    14.70305   24.79329   11.89957 
 Cl                    14.86537   21.07173   11.86417 
 Cl                    7.57193   28.83156   8.7411 
 Cl                    11.08348   28.79499   10.04056 
 Cl                    5.26586   21.01956   13.96779 
 Cl                    5.40604   24.72825   14.06063 
 Cl                    14.01328   19.08233   8.2785 
 Cl                    13.29883   20.92391   5.408 
 Cl                    8.613     18.89458   14.51191 
 Cl                    11.83963   26.71232   13.84047 
 
 ITRead=  0  0  0  0  0  0  0  0  0  0  0  0  0  0  0  0  0  0  0  0
 ITRead=  0  0  0  0  0  0  0  0  0  0  0  0  0  0  0  0  0  0  0  0
 ITRead=  0  0  0  0  0  0  0  0  0  0  0  0  0  0  0  0  0  0  0  0
 ITRead=  0  0  0  0  0  0  0  0  0  0  0  0  0  0  0  0  0  0  0  0
 ITRead=  0  0  0  0  0  0  0  0  0  0  0  0  0  0  0  0  0  0
 MicOpt= -1 -1 -1 -1 -1 -1 -1 -1 -1 -1 -1 -1 -1 -1 -1 -1 -1 -1 -1 -1
 MicOpt= -1 -1 -1 -1 -1 -1 -1 -1 -1 -1 -1 -1 -1 -1 -1 -1 -1 -1 -1 -1
 MicOpt= -1 -1 -1 -1 -1 -1 -1 -1 -1 -1 -1 -1 -1 -1 -1 -1 -1 -1 -1 -1
 MicOpt= -1 -1 -1 -1 -1 -1 -1 -1 -1 -1 -1 -1 -1 -1 -1 -1 -1 -1 -1 -1
 MicOpt= -1 -1 -1 -1 -1 -1 -1 -1 -1 -1 -1 -1 -1 -1 -1 -1 -1 -1
 NAtoms=     98 NQM=       98 NQMF=       0 NMMI=      0 NMMIF=      0
                NMic=       0 NMicF=      0.
                    Isotopes and Nuclear Properties:
 (Nuclear quadrupole moments (NQMom) in fm**2, nuclear magnetic moments (NMagM)
  in nuclear magnetons)

  Atom         1           2           3           4           5           6           7           8           9          10
 IAtWgt=          12          12          12          12          12          12          12          12          12          12
 AtmWgt=  12.0000000  12.0000000  12.0000000  12.0000000  12.0000000  12.0000000  12.0000000  12.0000000  12.0000000  12.0000000
 NucSpn=           0           0           0           0           0           0           0           0           0           0
 AtZEff=  -0.0000000  -0.0000000  -0.0000000  -0.0000000  -0.0000000  -0.0000000  -0.0000000  -0.0000000  -0.0000000  -0.0000000
 NQMom=    0.0000000   0.0000000   0.0000000   0.0000000   0.0000000   0.0000000   0.0000000   0.0000000   0.0000000   0.0000000
 NMagM=    0.0000000   0.0000000   0.0000000   0.0000000   0.0000000   0.0000000   0.0000000   0.0000000   0.0000000   0.0000000
 AtZNuc=   6.0000000   6.0000000   6.0000000   6.0000000   6.0000000   6.0000000   6.0000000   6.0000000   6.0000000   6.0000000

  Atom        11          12          13          14          15          16          17          18          19          20
 IAtWgt=          12          12          12          12          12          12          12          12          12          12
 AtmWgt=  12.0000000  12.0000000  12.0000000  12.0000000  12.0000000  12.0000000  12.0000000  12.0000000  12.0000000  12.0000000
 NucSpn=           0           0           0           0           0           0           0           0           0           0
 AtZEff=  -0.0000000  -0.0000000  -0.0000000  -0.0000000  -0.0000000  -0.0000000  -0.0000000  -0.0000000  -0.0000000  -0.0000000
 NQMom=    0.0000000   0.0000000   0.0000000   0.0000000   0.0000000   0.0000000   0.0000000   0.0000000   0.0000000   0.0000000
 NMagM=    0.0000000   0.0000000   0.0000000   0.0000000   0.0000000   0.0000000   0.0000000   0.0000000   0.0000000   0.0000000
 AtZNuc=   6.0000000   6.0000000   6.0000000   6.0000000   6.0000000   6.0000000   6.0000000   6.0000000   6.0000000   6.0000000

  Atom        21          22          23          24          25          26          27          28          29          30
 IAtWgt=          12          12          12          12          12          12          12          12          12          12
 AtmWgt=  12.0000000  12.0000000  12.0000000  12.0000000  12.0000000  12.0000000  12.0000000  12.0000000  12.0000000  12.0000000
 NucSpn=           0           0           0           0           0           0           0           0           0           0
 AtZEff=  -0.0000000  -0.0000000  -0.0000000  -0.0000000  -0.0000000  -0.0000000  -0.0000000  -0.0000000  -0.0000000  -0.0000000
 NQMom=    0.0000000   0.0000000   0.0000000   0.0000000   0.0000000   0.0000000   0.0000000   0.0000000   0.0000000   0.0000000
 NMagM=    0.0000000   0.0000000   0.0000000   0.0000000   0.0000000   0.0000000   0.0000000   0.0000000   0.0000000   0.0000000
 AtZNuc=   6.0000000   6.0000000   6.0000000   6.0000000   6.0000000   6.0000000   6.0000000   6.0000000   6.0000000   6.0000000

  Atom        31          32          33          34          35          36          37          38          39          40
 IAtWgt=          12          12          12          12          12          12          12          12          12          12
 AtmWgt=  12.0000000  12.0000000  12.0000000  12.0000000  12.0000000  12.0000000  12.0000000  12.0000000  12.0000000  12.0000000
 NucSpn=           0           0           0           0           0           0           0           0           0           0
 AtZEff=  -0.0000000  -0.0000000  -0.0000000  -0.0000000  -0.0000000  -0.0000000  -0.0000000  -0.0000000  -0.0000000  -0.0000000
 NQMom=    0.0000000   0.0000000   0.0000000   0.0000000   0.0000000   0.0000000   0.0000000   0.0000000   0.0000000   0.0000000
 NMagM=    0.0000000   0.0000000   0.0000000   0.0000000   0.0000000   0.0000000   0.0000000   0.0000000   0.0000000   0.0000000
 AtZNuc=   6.0000000   6.0000000   6.0000000   6.0000000   6.0000000   6.0000000   6.0000000   6.0000000   6.0000000   6.0000000

  Atom        41          42          43          44          45          46          47          48          49          50
 IAtWgt=          12          12          12          12          12          12          12          12          12          12
 AtmWgt=  12.0000000  12.0000000  12.0000000  12.0000000  12.0000000  12.0000000  12.0000000  12.0000000  12.0000000  12.0000000
 NucSpn=           0           0           0           0           0           0           0           0           0           0
 AtZEff=  -0.0000000  -0.0000000  -0.0000000  -0.0000000  -0.0000000  -0.0000000  -0.0000000  -0.0000000  -0.0000000  -0.0000000
 NQMom=    0.0000000   0.0000000   0.0000000   0.0000000   0.0000000   0.0000000   0.0000000   0.0000000   0.0000000   0.0000000
 NMagM=    0.0000000   0.0000000   0.0000000   0.0000000   0.0000000   0.0000000   0.0000000   0.0000000   0.0000000   0.0000000
 AtZNuc=   6.0000000   6.0000000   6.0000000   6.0000000   6.0000000   6.0000000   6.0000000   6.0000000   6.0000000   6.0000000

  Atom        51          52          53          54          55          56          57          58          59          60
 IAtWgt=          12          12          12          12          12          12          12          12          12          12
 AtmWgt=  12.0000000  12.0000000  12.0000000  12.0000000  12.0000000  12.0000000  12.0000000  12.0000000  12.0000000  12.0000000
 NucSpn=           0           0           0           0           0           0           0           0           0           0
 AtZEff=  -0.0000000  -0.0000000  -0.0000000  -0.0000000  -0.0000000  -0.0000000  -0.0000000  -0.0000000  -0.0000000  -0.0000000
 NQMom=    0.0000000   0.0000000   0.0000000   0.0000000   0.0000000   0.0000000   0.0000000   0.0000000   0.0000000   0.0000000
 NMagM=    0.0000000   0.0000000   0.0000000   0.0000000   0.0000000   0.0000000   0.0000000   0.0000000   0.0000000   0.0000000
 AtZNuc=   6.0000000   6.0000000   6.0000000   6.0000000   6.0000000   6.0000000   6.0000000   6.0000000   6.0000000   6.0000000

  Atom        61          62          63          64          65          66          67          68          69          70
 IAtWgt=          12          12          12          12          12          12          12          12          12          12
 AtmWgt=  12.0000000  12.0000000  12.0000000  12.0000000  12.0000000  12.0000000  12.0000000  12.0000000  12.0000000  12.0000000
 NucSpn=           0           0           0           0           0           0           0           0           0           0
 AtZEff=  -0.0000000  -0.0000000  -0.0000000  -0.0000000  -0.0000000  -0.0000000  -0.0000000  -0.0000000  -0.0000000  -0.0000000
 NQMom=    0.0000000   0.0000000   0.0000000   0.0000000   0.0000000   0.0000000   0.0000000   0.0000000   0.0000000   0.0000000
 NMagM=    0.0000000   0.0000000   0.0000000   0.0000000   0.0000000   0.0000000   0.0000000   0.0000000   0.0000000   0.0000000
 AtZNuc=   6.0000000   6.0000000   6.0000000   6.0000000   6.0000000   6.0000000   6.0000000   6.0000000   6.0000000   6.0000000

  Atom        71          72          73          74          75          76          77          78          79          80
 IAtWgt=          12          12          12          12          12          12          12          12          12          12
 AtmWgt=  12.0000000  12.0000000  12.0000000  12.0000000  12.0000000  12.0000000  12.0000000  12.0000000  12.0000000  12.0000000
 NucSpn=           0           0           0           0           0           0           0           0           0           0
 AtZEff=  -0.0000000  -0.0000000  -0.0000000  -0.0000000  -0.0000000  -0.0000000  -0.0000000  -0.0000000  -0.0000000  -0.0000000
 NQMom=    0.0000000   0.0000000   0.0000000   0.0000000   0.0000000   0.0000000   0.0000000   0.0000000   0.0000000   0.0000000
 NMagM=    0.0000000   0.0000000   0.0000000   0.0000000   0.0000000   0.0000000   0.0000000   0.0000000   0.0000000   0.0000000
 AtZNuc=   6.0000000   6.0000000   6.0000000   6.0000000   6.0000000   6.0000000   6.0000000   6.0000000   6.0000000   6.0000000

  Atom        81          82          83          84          85          86          87          88          89          90
 IAtWgt=          12          12          12          12          35          35          35          35          35          35
 AtmWgt=  12.0000000  12.0000000  12.0000000  12.0000000  34.9688527  34.9688527  34.9688527  34.9688527  34.9688527  34.9688527
 NucSpn=           0           0           0           0           3           3           3           3           3           3
 AtZEff=  -0.0000000  -0.0000000  -0.0000000  -0.0000000  -0.0000000  -0.0000000  -0.0000000  -0.0000000  -0.0000000  -0.0000000
 NQMom=    0.0000000   0.0000000   0.0000000   0.0000000  -8.1650000  -8.1650000  -8.1650000  -8.1650000  -8.1650000  -8.1650000
 NMagM=    0.0000000   0.0000000   0.0000000   0.0000000   0.8218740   0.8218740   0.8218740   0.8218740   0.8218740   0.8218740
 AtZNuc=   6.0000000   6.0000000   6.0000000   6.0000000  17.0000000  17.0000000  17.0000000  17.0000000  17.0000000  17.0000000

  Atom        91          92          93          94          95          96          97          98
 IAtWgt=          35          35          35          35          35          35          35          35
 AtmWgt=  34.9688527  34.9688527  34.9688527  34.9688527  34.9688527  34.9688527  34.9688527  34.9688527
 NucSpn=           3           3           3           3           3           3           3           3
 AtZEff=  -0.0000000  -0.0000000  -0.0000000  -0.0000000  -0.0000000  -0.0000000  -0.0000000  -0.0000000
 NQMom=   -8.1650000  -8.1650000  -8.1650000  -8.1650000  -8.1650000  -8.1650000  -8.1650000  -8.1650000
 NMagM=    0.8218740   0.8218740   0.8218740   0.8218740   0.8218740   0.8218740   0.8218740   0.8218740
 AtZNuc=  17.0000000  17.0000000  17.0000000  17.0000000  17.0000000  17.0000000  17.0000000  17.0000000
 Leave Link  101 at Thu Jun 30 00:41:32 2022, MaxMem=  1342177280 cpu:               6.7 elap:               0.3
 (Enter /home/mkliu/g16/l103.exe)

 GradGradGradGradGradGradGradGradGradGradGradGradGradGradGradGradGradGrad
 Berny optimization.
 Initialization pass.
                           ----------------------------
                           !    Initial Parameters    !
                           ! (Angstroms and Degrees)  !
 --------------------------                            --------------------------
 ! Name  Definition              Value          Derivative Info.                !
 --------------------------------------------------------------------------------
 ! R1    R(1,5)                  1.4066         estimate D2E/DX2                !
 ! R2    R(1,17)                 1.4241         estimate D2E/DX2                !
 ! R3    R(1,23)                 1.4286         estimate D2E/DX2                !
 ! R4    R(2,6)                  1.499          estimate D2E/DX2                !
 ! R5    R(2,43)                 1.5203         estimate D2E/DX2                !
 ! R6    R(2,44)                 1.5084         estimate D2E/DX2                !
 ! R7    R(2,95)                 1.7999         estimate D2E/DX2                !
 ! R8    R(3,7)                  1.5132         estimate D2E/DX2                !
 ! R9    R(3,18)                 1.3862         estimate D2E/DX2                !
 ! R10   R(3,26)                 1.4091         estimate D2E/DX2                !
 ! R11   R(4,8)                  1.5012         estimate D2E/DX2                !
 ! R12   R(4,45)                 1.5035         estimate D2E/DX2                !
 ! R13   R(4,46)                 1.5066         estimate D2E/DX2                !
 ! R14   R(4,85)                 1.8007         estimate D2E/DX2                !
 ! R15   R(5,9)                  1.4494         estimate D2E/DX2                !
 ! R16   R(5,29)                 1.4318         estimate D2E/DX2                !
 ! R17   R(6,10)                 1.3633         estimate D2E/DX2                !
 ! R18   R(6,15)                 1.4194         estimate D2E/DX2                !
 ! R19   R(7,12)                 1.5085         estimate D2E/DX2                !
 ! R20   R(7,30)                 1.5032         estimate D2E/DX2                !
 ! R21   R(7,91)                 1.7996         estimate D2E/DX2                !
 ! R22   R(8,11)                 1.3246         estimate D2E/DX2                !
 ! R23   R(8,16)                 1.5041         estimate D2E/DX2                !
 ! R24   R(9,13)                 1.4019         estimate D2E/DX2                !
 ! R25   R(9,35)                 1.438          estimate D2E/DX2                !
 ! R26   R(10,49)                1.5067         estimate D2E/DX2                !
 ! R27   R(10,53)                1.4275         estimate D2E/DX2                !
 ! R28   R(11,50)                1.5085         estimate D2E/DX2                !
 ! R29   R(11,54)                1.5029         estimate D2E/DX2                !
 ! R30   R(12,14)                1.3839         estimate D2E/DX2                !
 ! R31   R(12,36)                1.4046         estimate D2E/DX2                !
 ! R32   R(13,15)                1.4238         estimate D2E/DX2                !
 ! R33   R(13,43)                1.4229         estimate D2E/DX2                !
 ! R34   R(14,16)                1.5078         estimate D2E/DX2                !
 ! R35   R(14,46)                1.3881         estimate D2E/DX2                !
 ! R36   R(15,17)                1.3902         estimate D2E/DX2                !
 ! R37   R(16,18)                1.5019         estimate D2E/DX2                !
 ! R38   R(16,92)                1.804          estimate D2E/DX2                !
 ! R39   R(17,19)                1.413          estimate D2E/DX2                !
 ! R40   R(18,20)                1.406          estimate D2E/DX2                !
 ! R41   R(19,21)                1.504          estimate D2E/DX2                !
 ! R42   R(19,53)                1.3697         estimate D2E/DX2                !
 ! R43   R(20,22)                1.393          estimate D2E/DX2                !
 ! R44   R(20,54)                1.4995         estimate D2E/DX2                !
 ! R45   R(21,23)                1.5075         estimate D2E/DX2                !
 ! R46   R(21,57)                1.5205         estimate D2E/DX2                !
 ! R47   R(21,97)                1.8104         estimate D2E/DX2                !
 ! R48   R(22,24)                1.4006         estimate D2E/DX2                !
 ! R49   R(22,58)                1.4512         estimate D2E/DX2                !
 ! R50   R(23,25)                1.3546         estimate D2E/DX2                !
 ! R51   R(24,26)                1.3705         estimate D2E/DX2                !
 ! R52   R(24,62)                1.499          estimate D2E/DX2                !
 ! R53   R(25,27)                1.4187         estimate D2E/DX2                !
 ! R54   R(25,61)                1.4991         estimate D2E/DX2                !
 ! R55   R(26,28)                1.4465         estimate D2E/DX2                !
 ! R56   R(27,29)                1.4129         estimate D2E/DX2                !
 ! R57   R(27,65)                1.4202         estimate D2E/DX2                !
 ! R58   R(28,30)                1.4039         estimate D2E/DX2                !
 ! R59   R(28,66)                1.4098         estimate D2E/DX2                !
 ! R60   R(29,31)                1.4022         estimate D2E/DX2                !
 ! R61   R(30,32)                1.3666         estimate D2E/DX2                !
 ! R62   R(31,33)                1.4392         estimate D2E/DX2                !
 ! R63   R(31,69)                1.4183         estimate D2E/DX2                !
 ! R64   R(32,34)                1.5068         estimate D2E/DX2                !
 ! R65   R(32,70)                1.4066         estimate D2E/DX2                !
 ! R66   R(33,35)                1.4054         estimate D2E/DX2                !
 ! R67   R(33,73)                1.4183         estimate D2E/DX2                !
 ! R68   R(34,36)                1.5198         estimate D2E/DX2                !
 ! R69   R(34,74)                1.5034         estimate D2E/DX2                !
 ! R70   R(34,88)                1.8002         estimate D2E/DX2                !
 ! R71   R(35,37)                1.4444         estimate D2E/DX2                !
 ! R72   R(36,38)                1.4031         estimate D2E/DX2                !
 ! R73   R(37,39)                1.4326         estimate D2E/DX2                !
 ! R74   R(37,77)                1.409          estimate D2E/DX2                !
 ! R75   R(38,42)                1.4013         estimate D2E/DX2                !
 ! R76   R(38,78)                1.517          estimate D2E/DX2                !
 ! R77   R(39,43)                1.3638         estimate D2E/DX2                !
 ! R78   R(39,79)                1.505          estimate D2E/DX2                !
 ! R79   R(40,41)                1.3864         estimate D2E/DX2                !
 ! R80   R(40,44)                1.3842         estimate D2E/DX2                !
 ! R81   R(40,79)                1.5054         estimate D2E/DX2                !
 ! R82   R(41,45)                1.3845         estimate D2E/DX2                !
 ! R83   R(41,80)                1.5077         estimate D2E/DX2                !
 ! R84   R(42,46)                1.3837         estimate D2E/DX2                !
 ! R85   R(42,80)                1.5067         estimate D2E/DX2                !
 ! R86   R(44,47)                1.4022         estimate D2E/DX2                !
 ! R87   R(45,48)                1.3986         estimate D2E/DX2                !
 ! R88   R(47,48)                1.4068         estimate D2E/DX2                !
 ! R89   R(47,49)                1.52           estimate D2E/DX2                !
 ! R90   R(48,50)                1.5148         estimate D2E/DX2                !
 ! R91   R(49,51)                1.5043         estimate D2E/DX2                !
 ! R92   R(49,90)                1.8002         estimate D2E/DX2                !
 ! R93   R(50,52)                1.494          estimate D2E/DX2                !
 ! R94   R(50,89)                1.8019         estimate D2E/DX2                !
 ! R95   R(51,52)                1.3807         estimate D2E/DX2                !
 ! R96   R(51,55)                1.3923         estimate D2E/DX2                !
 ! R97   R(52,56)                1.3815         estimate D2E/DX2                !
 ! R98   R(53,55)                1.4427         estimate D2E/DX2                !
 ! R99   R(54,56)                1.5068         estimate D2E/DX2                !
 ! R100  R(54,98)                1.8183         estimate D2E/DX2                !
 ! R101  R(55,83)                1.4193         estimate D2E/DX2                !
 ! R102  R(56,84)                1.4097         estimate D2E/DX2                !
 ! R103  R(57,59)                1.3953         estimate D2E/DX2                !
 ! R104  R(57,83)                1.4289         estimate D2E/DX2                !
 ! R105  R(58,60)                1.3868         estimate D2E/DX2                !
 ! R106  R(58,84)                1.4045         estimate D2E/DX2                !
 ! R107  R(59,60)                1.397          estimate D2E/DX2                !
 ! R108  R(59,61)                1.5096         estimate D2E/DX2                !
 ! R109  R(60,62)                1.5166         estimate D2E/DX2                !
 ! R110  R(61,63)                1.5194         estimate D2E/DX2                !
 ! R111  R(61,93)                1.8036         estimate D2E/DX2                !
 ! R112  R(62,64)                1.5055         estimate D2E/DX2                !
 ! R113  R(62,94)                1.8106         estimate D2E/DX2                !
 ! R114  R(63,64)                1.3643         estimate D2E/DX2                !
 ! R115  R(63,65)                1.4224         estimate D2E/DX2                !
 ! R116  R(64,66)                1.4448         estimate D2E/DX2                !
 ! R117  R(65,67)                1.4048         estimate D2E/DX2                !
 ! R118  R(66,68)                1.4331         estimate D2E/DX2                !
 ! R119  R(67,68)                1.4368         estimate D2E/DX2                !
 ! R120  R(67,69)                1.4149         estimate D2E/DX2                !
 ! R121  R(68,70)                1.4176         estimate D2E/DX2                !
 ! R122  R(69,71)                1.4325         estimate D2E/DX2                !
 ! R123  R(70,72)                1.4355         estimate D2E/DX2                !
 ! R124  R(71,72)                1.3785         estimate D2E/DX2                !
 ! R125  R(71,73)                1.4282         estimate D2E/DX2                !
 ! R126  R(72,74)                1.431          estimate D2E/DX2                !
 ! R127  R(73,75)                1.392          estimate D2E/DX2                !
 ! R128  R(74,76)                1.3601         estimate D2E/DX2                !
 ! R129  R(75,76)                1.4314         estimate D2E/DX2                !
 ! R130  R(75,77)                1.41           estimate D2E/DX2                !
 ! R131  R(76,78)                1.5003         estimate D2E/DX2                !
 ! R132  R(77,81)                1.4461         estimate D2E/DX2                !
 ! R133  R(78,81)                1.5115         estimate D2E/DX2                !
 ! R134  R(78,87)                1.801          estimate D2E/DX2                !
 ! R135  R(79,82)                1.4981         estimate D2E/DX2                !
 ! R136  R(79,96)                1.8128         estimate D2E/DX2                !
 ! R137  R(80,82)                1.4965         estimate D2E/DX2                !
 ! R138  R(80,86)                1.8016         estimate D2E/DX2                !
 ! R139  R(81,82)                1.3341         estimate D2E/DX2                !
 ! R140  R(83,84)                1.4305         estimate D2E/DX2                !
 ! A1    A(5,1,17)             121.7214         estimate D2E/DX2                !
 ! A2    A(5,1,23)             122.7837         estimate D2E/DX2                !
 ! A3    A(17,1,23)            107.2915         estimate D2E/DX2                !
 ! A4    A(6,2,43)             101.8272         estimate D2E/DX2                !
 ! A5    A(6,2,44)             110.3439         estimate D2E/DX2                !
 ! A6    A(6,2,95)             113.1655         estimate D2E/DX2                !
 ! A7    A(43,2,44)            108.4282         estimate D2E/DX2                !
 ! A8    A(43,2,95)            112.7673         estimate D2E/DX2                !
 ! A9    A(44,2,95)            109.9875         estimate D2E/DX2                !
 ! A10   A(7,3,18)             125.2448         estimate D2E/DX2                !
 ! A11   A(7,3,26)             108.9784         estimate D2E/DX2                !
 ! A12   A(18,3,26)            120.6054         estimate D2E/DX2                !
 ! A13   A(8,4,45)             111.8224         estimate D2E/DX2                !
 ! A14   A(8,4,46)             100.5896         estimate D2E/DX2                !
 ! A15   A(8,4,85)             112.6755         estimate D2E/DX2                !
 ! A16   A(45,4,46)            108.0876         estimate D2E/DX2                !
 ! A17   A(45,4,85)            110.642          estimate D2E/DX2                !
 ! A18   A(46,4,85)            112.587          estimate D2E/DX2                !
 ! A19   A(1,5,9)              118.8608         estimate D2E/DX2                !
 ! A20   A(1,5,29)             116.344          estimate D2E/DX2                !
 ! A21   A(9,5,29)             119.058          estimate D2E/DX2                !
 ! A22   A(2,6,10)             122.7581         estimate D2E/DX2                !
 ! A23   A(2,6,15)             109.6456         estimate D2E/DX2                !
 ! A24   A(10,6,15)            118.9861         estimate D2E/DX2                !
 ! A25   A(3,7,12)             109.73           estimate D2E/DX2                !
 ! A26   A(3,7,30)             101.3999         estimate D2E/DX2                !
 ! A27   A(3,7,91)             112.4472         estimate D2E/DX2                !
 ! A28   A(12,7,30)            108.9485         estimate D2E/DX2                !
 ! A29   A(12,7,91)            110.043          estimate D2E/DX2                !
 ! A30   A(30,7,91)            113.9274         estimate D2E/DX2                !
 ! A31   A(4,8,11)             121.6397         estimate D2E/DX2                !
 ! A32   A(4,8,16)             111.1412         estimate D2E/DX2                !
 ! A33   A(11,8,16)            123.7059         estimate D2E/DX2                !
 ! A34   A(5,9,13)             118.075          estimate D2E/DX2                !
 ! A35   A(5,9,35)             120.9031         estimate D2E/DX2                !
 ! A36   A(13,9,35)            116.7669         estimate D2E/DX2                !
 ! A37   A(6,10,49)            122.9196         estimate D2E/DX2                !
 ! A38   A(6,10,53)            119.4534         estimate D2E/DX2                !
 ! A39   A(49,10,53)           109.9255         estimate D2E/DX2                !
 ! A40   A(8,11,50)            122.9827         estimate D2E/DX2                !
 ! A41   A(8,11,54)            122.6473         estimate D2E/DX2                !
 ! A42   A(50,11,54)           111.4382         estimate D2E/DX2                !
 ! A43   A(7,12,14)            116.5227         estimate D2E/DX2                !
 ! A44   A(7,12,36)            123.4308         estimate D2E/DX2                !
 ! A45   A(14,12,36)           118.9815         estimate D2E/DX2                !
 ! A46   A(9,13,15)            122.529          estimate D2E/DX2                !
 ! A47   A(9,13,43)            122.1562         estimate D2E/DX2                !
 ! A48   A(15,13,43)           108.1435         estimate D2E/DX2                !
 ! A49   A(12,14,16)           125.8474         estimate D2E/DX2                !
 ! A50   A(12,14,46)           120.8305         estimate D2E/DX2                !
 ! A51   A(16,14,46)           111.1932         estimate D2E/DX2                !
 ! A52   A(6,15,13)            109.538          estimate D2E/DX2                !
 ! A53   A(6,15,17)            120.8964         estimate D2E/DX2                !
 ! A54   A(13,15,17)           119.1733         estimate D2E/DX2                !
 ! A55   A(8,16,14)            100.25           estimate D2E/DX2                !
 ! A56   A(8,16,18)            112.5082         estimate D2E/DX2                !
 ! A57   A(8,16,92)            111.9505         estimate D2E/DX2                !
 ! A58   A(14,16,18)           109.2717         estimate D2E/DX2                !
 ! A59   A(14,16,92)           111.543          estimate D2E/DX2                !
 ! A60   A(18,16,92)           110.875          estimate D2E/DX2                !
 ! A61   A(1,17,15)            119.6106         estimate D2E/DX2                !
 ! A62   A(1,17,19)            109.5386         estimate D2E/DX2                !
 ! A63   A(15,17,19)           120.1593         estimate D2E/DX2                !
 ! A64   A(3,18,16)            116.9341         estimate D2E/DX2                !
 ! A65   A(3,18,20)            119.3534         estimate D2E/DX2                !
 ! A66   A(16,18,20)           120.7653         estimate D2E/DX2                !
 ! A67   A(17,19,21)           110.4801         estimate D2E/DX2                !
 ! A68   A(17,19,53)           117.8928         estimate D2E/DX2                !
 ! A69   A(21,19,53)           122.6011         estimate D2E/DX2                !
 ! A70   A(18,20,22)           118.8766         estimate D2E/DX2                !
 ! A71   A(18,20,54)           121.9874         estimate D2E/DX2                !
 ! A72   A(22,20,54)           116.8758         estimate D2E/DX2                !
 ! A73   A(19,21,23)           101.075          estimate D2E/DX2                !
 ! A74   A(19,21,57)           112.4327         estimate D2E/DX2                !
 ! A75   A(19,21,97)           112.2613         estimate D2E/DX2                !
 ! A76   A(23,21,57)           109.8758         estimate D2E/DX2                !
 ! A77   A(23,21,97)           112.8285         estimate D2E/DX2                !
 ! A78   A(57,21,97)           108.2978         estimate D2E/DX2                !
 ! A79   A(20,22,24)           121.8619         estimate D2E/DX2                !
 ! A80   A(20,22,58)           122.5141         estimate D2E/DX2                !
 ! A81   A(24,22,58)           106.9796         estimate D2E/DX2                !
 ! A82   A(1,23,21)            111.1668         estimate D2E/DX2                !
 ! A83   A(1,23,25)            119.8412         estimate D2E/DX2                !
 ! A84   A(21,23,25)           122.178          estimate D2E/DX2                !
 ! A85   A(22,24,26)           118.626          estimate D2E/DX2                !
 ! A86   A(22,24,62)           111.6194         estimate D2E/DX2                !
 ! A87   A(26,24,62)           122.2341         estimate D2E/DX2                !
 ! A88   A(23,25,27)           119.1127         estimate D2E/DX2                !
 ! A89   A(23,25,61)           123.0641         estimate D2E/DX2                !
 ! A90   A(27,25,61)           110.9503         estimate D2E/DX2                !
 ! A91   A(3,26,24)            120.5068         estimate D2E/DX2                !
 ! A92   A(3,26,28)            109.5896         estimate D2E/DX2                !
 ! A93   A(24,26,28)           121.0438         estimate D2E/DX2                !
 ! A94   A(25,27,29)           121.8779         estimate D2E/DX2                !
 ! A95   A(25,27,65)           108.3985         estimate D2E/DX2                !
 ! A96   A(29,27,65)           120.7329         estimate D2E/DX2                !
 ! A97   A(26,28,30)           106.8858         estimate D2E/DX2                !
 ! A98   A(26,28,66)           120.2656         estimate D2E/DX2                !
 ! A99   A(30,28,66)           122.9874         estimate D2E/DX2                !
 ! A100  A(5,29,27)            119.357          estimate D2E/DX2                !
 ! A101  A(5,29,31)            119.0689         estimate D2E/DX2                !
 ! A102  A(27,29,31)           115.9571         estimate D2E/DX2                !
 ! A103  A(7,30,28)            111.6874         estimate D2E/DX2                !
 ! A104  A(7,30,32)            121.6494         estimate D2E/DX2                !
 ! A105  A(28,30,32)           119.7066         estimate D2E/DX2                !
 ! A106  A(29,31,33)           121.0594         estimate D2E/DX2                !
 ! A107  A(29,31,69)           122.1193         estimate D2E/DX2                !
 ! A108  A(33,31,69)           108.4848         estimate D2E/DX2                !
 ! A109  A(30,32,34)           122.7476         estimate D2E/DX2                !
 ! A110  A(30,32,70)           119.0306         estimate D2E/DX2                !
 ! A111  A(34,32,70)           111.8717         estimate D2E/DX2                !
 ! A112  A(31,33,35)           120.6125         estimate D2E/DX2                !
 ! A113  A(31,33,73)           107.4552         estimate D2E/DX2                !
 ! A114  A(35,33,73)           122.0083         estimate D2E/DX2                !
 ! A115  A(32,34,36)           108.6445         estimate D2E/DX2                !
 ! A116  A(32,34,74)           101.3136         estimate D2E/DX2                !
 ! A117  A(32,34,88)           113.6099         estimate D2E/DX2                !
 ! A118  A(36,34,74)           110.6343         estimate D2E/DX2                !
 ! A119  A(36,34,88)           108.8639         estimate D2E/DX2                !
 ! A120  A(74,34,88)           113.5398         estimate D2E/DX2                !
 ! A121  A(9,35,33)            117.6642         estimate D2E/DX2                !
 ! A122  A(9,35,37)            120.1826         estimate D2E/DX2                !
 ! A123  A(33,35,37)           118.0801         estimate D2E/DX2                !
 ! A124  A(12,36,34)           118.7584         estimate D2E/DX2                !
 ! A125  A(12,36,38)           120.0269         estimate D2E/DX2                !
 ! A126  A(34,36,38)           120.6585         estimate D2E/DX2                !
 ! A127  A(35,37,39)           119.6214         estimate D2E/DX2                !
 ! A128  A(35,37,77)           118.8327         estimate D2E/DX2                !
 ! A129  A(39,37,77)           117.296          estimate D2E/DX2                !
 ! A130  A(36,38,42)           120.1369         estimate D2E/DX2                !
 ! A131  A(36,38,78)           121.3496         estimate D2E/DX2                !
 ! A132  A(42,38,78)           117.892          estimate D2E/DX2                !
 ! A133  A(37,39,43)           119.2604         estimate D2E/DX2                !
 ! A134  A(37,39,79)           121.688          estimate D2E/DX2                !
 ! A135  A(43,39,79)           116.8863         estimate D2E/DX2                !
 ! A136  A(41,40,44)           121.2391         estimate D2E/DX2                !
 ! A137  A(41,40,79)           111.2525         estimate D2E/DX2                !
 ! A138  A(44,40,79)           124.9412         estimate D2E/DX2                !
 ! A139  A(40,41,45)           120.5735         estimate D2E/DX2                !
 ! A140  A(40,41,80)           111.51           estimate D2E/DX2                !
 ! A141  A(45,41,80)           125.3352         estimate D2E/DX2                !
 ! A142  A(38,42,46)           118.9864         estimate D2E/DX2                !
 ! A143  A(38,42,80)           123.4095         estimate D2E/DX2                !
 ! A144  A(46,42,80)           116.269          estimate D2E/DX2                !
 ! A145  A(2,43,13)            109.91           estimate D2E/DX2                !
 ! A146  A(2,43,39)            124.4919         estimate D2E/DX2                !
 ! A147  A(13,43,39)           121.1354         estimate D2E/DX2                !
 ! A148  A(2,44,40)            115.789          estimate D2E/DX2                !
 ! A149  A(2,44,47)            124.0706         estimate D2E/DX2                !
 ! A150  A(40,44,47)           118.9765         estimate D2E/DX2                !
 ! A151  A(4,45,41)            116.3247         estimate D2E/DX2                !
 ! A152  A(4,45,48)            123.1555         estimate D2E/DX2                !
 ! A153  A(41,45,48)           119.1045         estimate D2E/DX2                !
 ! A154  A(4,46,14)            111.2182         estimate D2E/DX2                !
 ! A155  A(4,46,42)            125.3696         estimate D2E/DX2                !
 ! A156  A(14,46,42)           120.9784         estimate D2E/DX2                !
 ! A157  A(44,47,48)           119.717          estimate D2E/DX2                !
 ! A158  A(44,47,49)           119.2102         estimate D2E/DX2                !
 ! A159  A(48,47,49)           120.509          estimate D2E/DX2                !
 ! A160  A(45,48,47)           120.3458         estimate D2E/DX2                !
 ! A161  A(45,48,50)           117.9159         estimate D2E/DX2                !
 ! A162  A(47,48,50)           121.0015         estimate D2E/DX2                !
 ! A163  A(10,49,47)           110.7689         estimate D2E/DX2                !
 ! A164  A(10,49,51)           101.0616         estimate D2E/DX2                !
 ! A165  A(10,49,90)           113.3035         estimate D2E/DX2                !
 ! A166  A(47,49,51)           108.8471         estimate D2E/DX2                !
 ! A167  A(47,49,90)           108.7556         estimate D2E/DX2                !
 ! A168  A(51,49,90)           113.8896         estimate D2E/DX2                !
 ! A169  A(11,50,48)           111.5581         estimate D2E/DX2                !
 ! A170  A(11,50,52)           100.6641         estimate D2E/DX2                !
 ! A171  A(11,50,89)           112.1479         estimate D2E/DX2                !
 ! A172  A(48,50,52)           108.9578         estimate D2E/DX2                !
 ! A173  A(48,50,89)           109.4299         estimate D2E/DX2                !
 ! A174  A(52,50,89)           113.8429         estimate D2E/DX2                !
 ! A175  A(49,51,52)           121.3697         estimate D2E/DX2                !
 ! A176  A(49,51,55)           112.0356         estimate D2E/DX2                !
 ! A177  A(52,51,55)           120.2457         estimate D2E/DX2                !
 ! A178  A(50,52,51)           122.1567         estimate D2E/DX2                !
 ! A179  A(50,52,56)           112.6644         estimate D2E/DX2                !
 ! A180  A(51,52,56)           120.0182         estimate D2E/DX2                !
 ! A181  A(10,53,19)           122.21           estimate D2E/DX2                !
 ! A182  A(10,53,55)           108.2132         estimate D2E/DX2                !
 ! A183  A(19,53,55)           119.6415         estimate D2E/DX2                !
 ! A184  A(11,54,20)           112.0478         estimate D2E/DX2                !
 ! A185  A(11,54,56)           100.7148         estimate D2E/DX2                !
 ! A186  A(11,54,98)           111.5109         estimate D2E/DX2                !
 ! A187  A(20,54,56)           112.7043         estimate D2E/DX2                !
 ! A188  A(20,54,98)           108.9674         estimate D2E/DX2                !
 ! A189  A(56,54,98)           110.7457         estimate D2E/DX2                !
 ! A190  A(51,55,53)           107.997          estimate D2E/DX2                !
 ! A191  A(51,55,83)           121.7772         estimate D2E/DX2                !
 ! A192  A(53,55,83)           120.9566         estimate D2E/DX2                !
 ! A193  A(52,56,54)           110.2849         estimate D2E/DX2                !
 ! A194  A(52,56,84)           120.4693         estimate D2E/DX2                !
 ! A195  A(54,56,84)           124.6068         estimate D2E/DX2                !
 ! A196  A(21,57,59)           119.4228         estimate D2E/DX2                !
 ! A197  A(21,57,83)           119.3494         estimate D2E/DX2                !
 ! A198  A(59,57,83)           120.0673         estimate D2E/DX2                !
 ! A199  A(22,58,60)           109.3151         estimate D2E/DX2                !
 ! A200  A(22,58,84)           120.9788         estimate D2E/DX2                !
 ! A201  A(60,58,84)           121.3974         estimate D2E/DX2                !
 ! A202  A(57,59,60)           119.6            estimate D2E/DX2                !
 ! A203  A(57,59,61)           123.2869         estimate D2E/DX2                !
 ! A204  A(60,59,61)           115.3854         estimate D2E/DX2                !
 ! A205  A(58,60,59)           120.9662         estimate D2E/DX2                !
 ! A206  A(58,60,62)           110.0653         estimate D2E/DX2                !
 ! A207  A(59,60,62)           124.9318         estimate D2E/DX2                !
 ! A208  A(25,61,59)           109.9376         estimate D2E/DX2                !
 ! A209  A(25,61,63)           100.8791         estimate D2E/DX2                !
 ! A210  A(25,61,93)           113.3864         estimate D2E/DX2                !
 ! A211  A(59,61,63)           110.9098         estimate D2E/DX2                !
 ! A212  A(59,61,93)           109.9714         estimate D2E/DX2                !
 ! A213  A(63,61,93)           111.4784         estimate D2E/DX2                !
 ! A214  A(24,62,60)           100.581          estimate D2E/DX2                !
 ! A215  A(24,62,64)           111.8406         estimate D2E/DX2                !
 ! A216  A(24,62,94)           112.1529         estimate D2E/DX2                !
 ! A217  A(60,62,64)           111.1209         estimate D2E/DX2                !
 ! A218  A(60,62,94)           111.0538         estimate D2E/DX2                !
 ! A219  A(64,62,94)           109.8317         estimate D2E/DX2                !
 ! A220  A(61,63,64)           125.5238         estimate D2E/DX2                !
 ! A221  A(61,63,65)           109.6251         estimate D2E/DX2                !
 ! A222  A(64,63,65)           120.554          estimate D2E/DX2                !
 ! A223  A(62,64,63)           116.2989         estimate D2E/DX2                !
 ! A224  A(62,64,66)           122.0545         estimate D2E/DX2                !
 ! A225  A(63,64,66)           119.6012         estimate D2E/DX2                !
 ! A226  A(27,65,63)           108.7208         estimate D2E/DX2                !
 ! A227  A(27,65,67)           122.1891         estimate D2E/DX2                !
 ! A228  A(63,65,67)           122.0261         estimate D2E/DX2                !
 ! A229  A(28,66,64)           118.5686         estimate D2E/DX2                !
 ! A230  A(28,66,68)           117.1529         estimate D2E/DX2                !
 ! A231  A(64,66,68)           120.1747         estimate D2E/DX2                !
 ! A232  A(65,67,68)           118.2356         estimate D2E/DX2                !
 ! A233  A(65,67,69)           115.6302         estimate D2E/DX2                !
 ! A234  A(68,67,69)           120.1903         estimate D2E/DX2                !
 ! A235  A(66,68,67)           119.2696         estimate D2E/DX2                !
 ! A236  A(66,68,70)           118.1303         estimate D2E/DX2                !
 ! A237  A(67,68,70)           117.4322         estimate D2E/DX2                !
 ! A238  A(31,69,67)           120.8267         estimate D2E/DX2                !
 ! A239  A(31,69,71)           107.3294         estimate D2E/DX2                !
 ! A240  A(67,69,71)           120.8346         estimate D2E/DX2                !
 ! A241  A(32,70,68)           122.4602         estimate D2E/DX2                !
 ! A242  A(32,70,72)           107.5469         estimate D2E/DX2                !
 ! A243  A(68,70,72)           121.8189         estimate D2E/DX2                !
 ! A244  A(69,71,72)           119.5995         estimate D2E/DX2                !
 ! A245  A(69,71,73)           108.2862         estimate D2E/DX2                !
 ! A246  A(72,71,73)           119.3427         estimate D2E/DX2                !
 ! A247  A(70,72,71)           119.9689         estimate D2E/DX2                !
 ! A248  A(70,72,74)           108.9286         estimate D2E/DX2                !
 ! A249  A(71,72,74)           121.1911         estimate D2E/DX2                !
 ! A250  A(33,73,71)           108.1151         estimate D2E/DX2                !
 ! A251  A(33,73,75)           119.7066         estimate D2E/DX2                !
 ! A252  A(71,73,75)           119.063          estimate D2E/DX2                !
 ! A253  A(34,74,72)           109.8196         estimate D2E/DX2                !
 ! A254  A(34,74,76)           122.4516         estimate D2E/DX2                !
 ! A255  A(72,74,76)           119.6284         estimate D2E/DX2                !
 ! A256  A(73,75,76)           120.7573         estimate D2E/DX2                !
 ! A257  A(73,75,77)           119.2898         estimate D2E/DX2                !
 ! A258  A(76,75,77)           110.0332         estimate D2E/DX2                !
 ! A259  A(74,76,75)           119.8541         estimate D2E/DX2                !
 ! A260  A(74,76,78)           122.2512         estimate D2E/DX2                !
 ! A261  A(75,76,78)           109.832          estimate D2E/DX2                !
 ! A262  A(37,77,75)           121.9681         estimate D2E/DX2                !
 ! A263  A(37,77,81)           121.2172         estimate D2E/DX2                !
 ! A264  A(75,77,81)           107.4594         estimate D2E/DX2                !
 ! A265  A(38,78,76)           110.7292         estimate D2E/DX2                !
 ! A266  A(38,78,81)           109.3979         estimate D2E/DX2                !
 ! A267  A(38,78,87)           108.8178         estimate D2E/DX2                !
 ! A268  A(76,78,81)           101.7852         estimate D2E/DX2                !
 ! A269  A(76,78,87)           113.4632         estimate D2E/DX2                !
 ! A270  A(81,78,87)           112.4781         estimate D2E/DX2                !
 ! A271  A(39,79,40)           108.5937         estimate D2E/DX2                !
 ! A272  A(39,79,82)           113.5833         estimate D2E/DX2                !
 ! A273  A(39,79,96)           110.3627         estimate D2E/DX2                !
 ! A274  A(40,79,82)           100.7017         estimate D2E/DX2                !
 ! A275  A(40,79,96)           111.8018         estimate D2E/DX2                !
 ! A276  A(82,79,96)           111.4459         estimate D2E/DX2                !
 ! A277  A(41,80,42)           107.8889         estimate D2E/DX2                !
 ! A278  A(41,80,82)           100.4125         estimate D2E/DX2                !
 ! A279  A(41,80,86)           112.4598         estimate D2E/DX2                !
 ! A280  A(42,80,82)           111.1802         estimate D2E/DX2                !
 ! A281  A(42,80,86)           110.4746         estimate D2E/DX2                !
 ! A282  A(82,80,86)           113.9214         estimate D2E/DX2                !
 ! A283  A(77,81,78)           110.4899         estimate D2E/DX2                !
 ! A284  A(77,81,82)           121.5825         estimate D2E/DX2                !
 ! A285  A(78,81,82)           123.0768         estimate D2E/DX2                !
 ! A286  A(79,82,80)           112.1554         estimate D2E/DX2                !
 ! A287  A(79,82,81)           121.0607         estimate D2E/DX2                !
 ! A288  A(80,82,81)           121.456          estimate D2E/DX2                !
 ! A289  A(55,83,57)           120.1333         estimate D2E/DX2                !
 ! A290  A(55,83,84)           116.0147         estimate D2E/DX2                !
 ! A291  A(57,83,84)           119.7137         estimate D2E/DX2                !
 ! A292  A(56,84,58)           116.5748         estimate D2E/DX2                !
 ! A293  A(56,84,83)           120.5868         estimate D2E/DX2                !
 ! A294  A(58,84,83)           118.0854         estimate D2E/DX2                !
 ! D1    D(17,1,5,9)            -0.8315         estimate D2E/DX2                !
 ! D2    D(17,1,5,29)         -153.9268         estimate D2E/DX2                !
 ! D3    D(23,1,5,9)           143.6319         estimate D2E/DX2                !
 ! D4    D(23,1,5,29)           -9.4634         estimate D2E/DX2                !
 ! D5    D(5,1,17,15)           -0.7055         estimate D2E/DX2                !
 ! D6    D(5,1,17,19)          143.8689         estimate D2E/DX2                !
 ! D7    D(23,1,17,15)        -149.9232         estimate D2E/DX2                !
 ! D8    D(23,1,17,19)          -5.3488         estimate D2E/DX2                !
 ! D9    D(5,1,23,21)         -147.2379         estimate D2E/DX2                !
 ! D10   D(5,1,23,25)            4.465          estimate D2E/DX2                !
 ! D11   D(17,1,23,21)           1.5774         estimate D2E/DX2                !
 ! D12   D(17,1,23,25)         153.2803         estimate D2E/DX2                !
 ! D13   D(43,2,6,10)         -137.6239         estimate D2E/DX2                !
 ! D14   D(43,2,6,15)            9.68           estimate D2E/DX2                !
 ! D15   D(44,2,6,10)          -22.6565         estimate D2E/DX2                !
 ! D16   D(44,2,6,15)          124.6474         estimate D2E/DX2                !
 ! D17   D(95,2,6,10)          101.0666         estimate D2E/DX2                !
 ! D18   D(95,2,6,15)         -111.6295         estimate D2E/DX2                !
 ! D19   D(6,2,43,13)           -7.2165         estimate D2E/DX2                !
 ! D20   D(6,2,43,39)          149.143          estimate D2E/DX2                !
 ! D21   D(44,2,43,13)        -123.5867         estimate D2E/DX2                !
 ! D22   D(44,2,43,39)          32.7728         estimate D2E/DX2                !
 ! D23   D(95,2,43,13)         114.3689         estimate D2E/DX2                !
 ! D24   D(95,2,43,39)         -89.2716         estimate D2E/DX2                !
 ! D25   D(6,2,44,40)         -147.9969         estimate D2E/DX2                !
 ! D26   D(6,2,44,47)           19.5068         estimate D2E/DX2                !
 ! D27   D(43,2,44,40)         -37.2673         estimate D2E/DX2                !
 ! D28   D(43,2,44,47)         130.2363         estimate D2E/DX2                !
 ! D29   D(95,2,44,40)          86.4602         estimate D2E/DX2                !
 ! D30   D(95,2,44,47)        -106.0362         estimate D2E/DX2                !
 ! D31   D(18,3,7,12)           28.0219         estimate D2E/DX2                !
 ! D32   D(18,3,7,30)          143.1237         estimate D2E/DX2                !
 ! D33   D(18,3,7,91)          -94.8059         estimate D2E/DX2                !
 ! D34   D(26,3,7,12)         -126.431          estimate D2E/DX2                !
 ! D35   D(26,3,7,30)          -11.3292         estimate D2E/DX2                !
 ! D36   D(26,3,7,91)          110.7412         estimate D2E/DX2                !
 ! D37   D(7,3,18,16)            6.2042         estimate D2E/DX2                !
 ! D38   D(7,3,18,20)         -154.5332         estimate D2E/DX2                !
 ! D39   D(26,3,18,16)         157.9219         estimate D2E/DX2                !
 ! D40   D(26,3,18,20)          -2.8155         estimate D2E/DX2                !
 ! D41   D(7,3,26,24)          160.1006         estimate D2E/DX2                !
 ! D42   D(7,3,26,28)           12.4277         estimate D2E/DX2                !
 ! D43   D(18,3,26,24)           4.2556         estimate D2E/DX2                !
 ! D44   D(18,3,26,28)        -143.4173         estimate D2E/DX2                !
 ! D45   D(45,4,8,11)           22.3375         estimate D2E/DX2                !
 ! D46   D(45,4,8,16)         -137.235          estimate D2E/DX2                !
 ! D47   D(46,4,8,11)          136.8627         estimate D2E/DX2                !
 ! D48   D(46,4,8,16)          -22.7098         estimate D2E/DX2                !
 ! D49   D(85,4,8,11)         -103.0322         estimate D2E/DX2                !
 ! D50   D(85,4,8,16)           97.3952         estimate D2E/DX2                !
 ! D51   D(8,4,45,41)          145.6724         estimate D2E/DX2                !
 ! D52   D(8,4,45,48)          -20.6008         estimate D2E/DX2                !
 ! D53   D(46,4,45,41)          35.8544         estimate D2E/DX2                !
 ! D54   D(46,4,45,48)        -130.4188         estimate D2E/DX2                !
 ! D55   D(85,4,45,41)         -87.8433         estimate D2E/DX2                !
 ! D56   D(85,4,45,48)         105.8835         estimate D2E/DX2                !
 ! D57   D(8,4,46,14)           12.4024         estimate D2E/DX2                !
 ! D58   D(8,4,46,42)         -149.908          estimate D2E/DX2                !
 ! D59   D(45,4,46,14)         129.7182         estimate D2E/DX2                !
 ! D60   D(45,4,46,42)         -32.5922         estimate D2E/DX2                !
 ! D61   D(85,4,46,14)        -107.7661         estimate D2E/DX2                !
 ! D62   D(85,4,46,42)          89.9235         estimate D2E/DX2                !
 ! D63   D(1,5,9,13)             1.2088         estimate D2E/DX2                !
 ! D64   D(1,5,9,35)          -154.875          estimate D2E/DX2                !
 ! D65   D(29,5,9,13)          153.5694         estimate D2E/DX2                !
 ! D66   D(29,5,9,35)           -2.5144         estimate D2E/DX2                !
 ! D67   D(1,5,29,27)            9.0183         estimate D2E/DX2                !
 ! D68   D(1,5,29,31)          161.5461         estimate D2E/DX2                !
 ! D69   D(9,5,29,27)         -144.0216         estimate D2E/DX2                !
 ! D70   D(9,5,29,31)            8.5063         estimate D2E/DX2                !
 ! D71   D(2,6,10,49)           -0.1578         estimate D2E/DX2                !
 ! D72   D(2,6,10,53)          146.1304         estimate D2E/DX2                !
 ! D73   D(15,6,10,49)        -144.5952         estimate D2E/DX2                !
 ! D74   D(15,6,10,53)           1.693          estimate D2E/DX2                !
 ! D75   D(2,6,15,13)           -9.0049         estimate D2E/DX2                !
 ! D76   D(2,6,15,17)         -153.6043         estimate D2E/DX2                !
 ! D77   D(10,6,15,13)         139.708          estimate D2E/DX2                !
 ! D78   D(10,6,15,17)          -4.8914         estimate D2E/DX2                !
 ! D79   D(3,7,12,14)          -31.8827         estimate D2E/DX2                !
 ! D80   D(3,7,12,36)          136.1695         estimate D2E/DX2                !
 ! D81   D(30,7,12,14)        -142.0733         estimate D2E/DX2                !
 ! D82   D(30,7,12,36)          25.9789         estimate D2E/DX2                !
 ! D83   D(91,7,12,14)          92.3557         estimate D2E/DX2                !
 ! D84   D(91,7,12,36)         -99.5921         estimate D2E/DX2                !
 ! D85   D(3,7,30,28)            6.5727         estimate D2E/DX2                !
 ! D86   D(3,7,30,32)         -144.0745         estimate D2E/DX2                !
 ! D87   D(12,7,30,28)         122.2524         estimate D2E/DX2                !
 ! D88   D(12,7,30,32)         -28.3949         estimate D2E/DX2                !
 ! D89   D(91,7,30,28)        -114.4652         estimate D2E/DX2                !
 ! D90   D(91,7,30,32)          94.8875         estimate D2E/DX2                !
 ! D91   D(4,8,11,50)            2.6388         estimate D2E/DX2                !
 ! D92   D(4,8,11,54)         -156.312          estimate D2E/DX2                !
 ! D93   D(16,8,11,50)         159.6027         estimate D2E/DX2                !
 ! D94   D(16,8,11,54)           0.652          estimate D2E/DX2                !
 ! D95   D(4,8,16,14)           23.671          estimate D2E/DX2                !
 ! D96   D(4,8,16,18)          139.6467         estimate D2E/DX2                !
 ! D97   D(4,8,16,92)          -94.7012         estimate D2E/DX2                !
 ! D98   D(11,8,16,14)        -135.4014         estimate D2E/DX2                !
 ! D99   D(11,8,16,18)         -19.4257         estimate D2E/DX2                !
 ! D100  D(11,8,16,92)         106.2264         estimate D2E/DX2                !
 ! D101  D(5,9,13,15)           -0.1004         estimate D2E/DX2                !
 ! D102  D(5,9,13,43)         -146.9475         estimate D2E/DX2                !
 ! D103  D(35,9,13,15)         156.9703         estimate D2E/DX2                !
 ! D104  D(35,9,13,43)          10.1232         estimate D2E/DX2                !
 ! D105  D(5,9,35,33)           -8.8154         estimate D2E/DX2                !
 ! D106  D(5,9,35,37)          148.0667         estimate D2E/DX2                !
 ! D107  D(13,9,35,33)        -165.1981         estimate D2E/DX2                !
 ! D108  D(13,9,35,37)          -8.316          estimate D2E/DX2                !
 ! D109  D(6,10,49,47)          26.0375         estimate D2E/DX2                !
 ! D110  D(6,10,49,51)         141.2626         estimate D2E/DX2                !
 ! D111  D(6,10,49,90)         -96.495          estimate D2E/DX2                !
 ! D112  D(53,10,49,47)       -123.0281         estimate D2E/DX2                !
 ! D113  D(53,10,49,51)         -7.8029         estimate D2E/DX2                !
 ! D114  D(53,10,49,90)        114.4394         estimate D2E/DX2                !
 ! D115  D(6,10,53,19)           4.2649         estimate D2E/DX2                !
 ! D116  D(6,10,53,55)        -141.0857         estimate D2E/DX2                !
 ! D117  D(49,10,53,19)        154.5578         estimate D2E/DX2                !
 ! D118  D(49,10,53,55)          9.2073         estimate D2E/DX2                !
 ! D119  D(8,11,50,48)         -29.1138         estimate D2E/DX2                !
 ! D120  D(8,11,50,52)        -144.5713         estimate D2E/DX2                !
 ! D121  D(8,11,50,89)          94.0461         estimate D2E/DX2                !
 ! D122  D(54,11,50,48)        131.9265         estimate D2E/DX2                !
 ! D123  D(54,11,50,52)         16.469          estimate D2E/DX2                !
 ! D124  D(54,11,50,89)       -104.9135         estimate D2E/DX2                !
 ! D125  D(8,11,54,20)          20.1006         estimate D2E/DX2                !
 ! D126  D(8,11,54,56)         140.1305         estimate D2E/DX2                !
 ! D127  D(8,11,54,98)        -102.3485         estimate D2E/DX2                !
 ! D128  D(50,11,54,20)       -141.0138         estimate D2E/DX2                !
 ! D129  D(50,11,54,56)        -20.984          estimate D2E/DX2                !
 ! D130  D(50,11,54,98)         96.537          estimate D2E/DX2                !
 ! D131  D(7,12,14,16)           4.2685         estimate D2E/DX2                !
 ! D132  D(7,12,14,46)         166.1837         estimate D2E/DX2                !
 ! D133  D(36,12,14,16)       -164.3406         estimate D2E/DX2                !
 ! D134  D(36,12,14,46)         -2.4254         estimate D2E/DX2                !
 ! D135  D(7,12,36,34)           5.6774         estimate D2E/DX2                !
 ! D136  D(7,12,36,38)        -165.8286         estimate D2E/DX2                !
 ! D137  D(14,12,36,34)        173.4525         estimate D2E/DX2                !
 ! D138  D(14,12,36,38)          1.9465         estimate D2E/DX2                !
 ! D139  D(9,13,15,6)         -146.7302         estimate D2E/DX2                !
 ! D140  D(9,13,15,17)          -1.4318         estimate D2E/DX2                !
 ! D141  D(43,13,15,6)           4.1125         estimate D2E/DX2                !
 ! D142  D(43,13,15,17)        149.4109         estimate D2E/DX2                !
 ! D143  D(9,13,43,2)          153.2581         estimate D2E/DX2                !
 ! D144  D(9,13,43,39)          -4.0283         estimate D2E/DX2                !
 ! D145  D(15,13,43,2)           2.284          estimate D2E/DX2                !
 ! D146  D(15,13,43,39)       -155.0023         estimate D2E/DX2                !
 ! D147  D(12,14,16,8)         148.1564         estimate D2E/DX2                !
 ! D148  D(12,14,16,18)         29.7747         estimate D2E/DX2                !
 ! D149  D(12,14,16,92)        -93.1723         estimate D2E/DX2                !
 ! D150  D(46,14,16,8)         -15.2314         estimate D2E/DX2                !
 ! D151  D(46,14,16,18)       -133.6131         estimate D2E/DX2                !
 ! D152  D(46,14,16,92)        103.4399         estimate D2E/DX2                !
 ! D153  D(12,14,46,4)        -162.451          estimate D2E/DX2                !
 ! D154  D(12,14,46,42)          0.7508         estimate D2E/DX2                !
 ! D155  D(16,14,46,4)           1.8921         estimate D2E/DX2                !
 ! D156  D(16,14,46,42)        165.094          estimate D2E/DX2                !
 ! D157  D(6,15,17,1)          143.1089         estimate D2E/DX2                !
 ! D158  D(6,15,17,19)           2.2914         estimate D2E/DX2                !
 ! D159  D(13,15,17,1)           1.8092         estimate D2E/DX2                !
 ! D160  D(13,15,17,19)       -139.0084         estimate D2E/DX2                !
 ! D161  D(8,16,18,3)         -143.9036         estimate D2E/DX2                !
 ! D162  D(8,16,18,20)          16.5459         estimate D2E/DX2                !
 ! D163  D(14,16,18,3)         -33.4815         estimate D2E/DX2                !
 ! D164  D(14,16,18,20)        126.968          estimate D2E/DX2                !
 ! D165  D(92,16,18,3)          89.8626         estimate D2E/DX2                !
 ! D166  D(92,16,18,20)       -109.6879         estimate D2E/DX2                !
 ! D167  D(1,17,19,21)           7.1766         estimate D2E/DX2                !
 ! D168  D(1,17,19,53)        -140.865          estimate D2E/DX2                !
 ! D169  D(15,17,19,21)        151.5257         estimate D2E/DX2                !
 ! D170  D(15,17,19,53)          3.4842         estimate D2E/DX2                !
 ! D171  D(3,18,20,22)           1.7168         estimate D2E/DX2                !
 ! D172  D(3,18,20,54)         164.1014         estimate D2E/DX2                !
 ! D173  D(16,18,20,22)       -158.2671         estimate D2E/DX2                !
 ! D174  D(16,18,20,54)          4.1175         estimate D2E/DX2                !
 ! D175  D(17,19,21,23)         -5.7511         estimate D2E/DX2                !
 ! D176  D(17,19,21,57)       -122.8549         estimate D2E/DX2                !
 ! D177  D(17,19,21,97)        114.733          estimate D2E/DX2                !
 ! D178  D(53,19,21,23)        140.5172         estimate D2E/DX2                !
 ! D179  D(53,19,21,57)         23.4134         estimate D2E/DX2                !
 ! D180  D(53,19,21,97)        -98.9987         estimate D2E/DX2                !
 ! D181  D(17,19,53,10)         -6.7976         estimate D2E/DX2                !
 ! D182  D(17,19,53,55)        134.785          estimate D2E/DX2                !
 ! D183  D(21,19,53,10)       -150.7409         estimate D2E/DX2                !
 ! D184  D(21,19,53,55)         -9.1583         estimate D2E/DX2                !
 ! D185  D(18,20,22,24)         -2.0352         estimate D2E/DX2                !
 ! D186  D(18,20,22,58)        141.4709         estimate D2E/DX2                !
 ! D187  D(54,20,22,24)       -165.3114         estimate D2E/DX2                !
 ! D188  D(54,20,22,58)        -21.8054         estimate D2E/DX2                !
 ! D189  D(18,20,54,11)        -22.2367         estimate D2E/DX2                !
 ! D190  D(18,20,54,56)       -134.9977         estimate D2E/DX2                !
 ! D191  D(18,20,54,98)        101.6476         estimate D2E/DX2                !
 ! D192  D(22,20,54,11)        140.4806         estimate D2E/DX2                !
 ! D193  D(22,20,54,56)         27.7196         estimate D2E/DX2                !
 ! D194  D(22,20,54,98)        -95.6351         estimate D2E/DX2                !
 ! D195  D(19,21,23,1)           2.4614         estimate D2E/DX2                !
 ! D196  D(19,21,23,25)       -148.473          estimate D2E/DX2                !
 ! D197  D(57,21,23,1)         121.4236         estimate D2E/DX2                !
 ! D198  D(57,21,23,25)        -29.5108         estimate D2E/DX2                !
 ! D199  D(97,21,23,1)        -117.6195         estimate D2E/DX2                !
 ! D200  D(97,21,23,25)         91.4461         estimate D2E/DX2                !
 ! D201  D(19,21,57,59)        143.3769         estimate D2E/DX2                !
 ! D202  D(19,21,57,83)        -24.3236         estimate D2E/DX2                !
 ! D203  D(23,21,57,59)         31.6471         estimate D2E/DX2                !
 ! D204  D(23,21,57,83)       -136.0535         estimate D2E/DX2                !
 ! D205  D(97,21,57,59)        -91.9992         estimate D2E/DX2                !
 ! D206  D(97,21,57,83)        100.3003         estimate D2E/DX2                !
 ! D207  D(20,22,24,26)          3.404          estimate D2E/DX2                !
 ! D208  D(20,22,24,62)        153.8572         estimate D2E/DX2                !
 ! D209  D(58,22,24,26)       -144.9697         estimate D2E/DX2                !
 ! D210  D(58,22,24,62)          5.4835         estimate D2E/DX2                !
 ! D211  D(20,22,58,60)       -145.4937         estimate D2E/DX2                !
 ! D212  D(20,22,58,84)          3.1898         estimate D2E/DX2                !
 ! D213  D(24,22,58,60)          2.626          estimate D2E/DX2                !
 ! D214  D(24,22,58,84)        151.3094         estimate D2E/DX2                !
 ! D215  D(1,23,25,27)           1.1719         estimate D2E/DX2                !
 ! D216  D(1,23,25,61)        -147.135          estimate D2E/DX2                !
 ! D217  D(21,23,25,27)        149.6862         estimate D2E/DX2                !
 ! D218  D(21,23,25,61)          1.3793         estimate D2E/DX2                !
 ! D219  D(22,24,26,3)          -4.4368         estimate D2E/DX2                !
 ! D220  D(22,24,26,28)        139.5467         estimate D2E/DX2                !
 ! D221  D(62,24,26,3)        -151.6187         estimate D2E/DX2                !
 ! D222  D(62,24,26,28)         -7.6352         estimate D2E/DX2                !
 ! D223  D(22,24,62,60)        -10.4625         estimate D2E/DX2                !
 ! D224  D(22,24,62,64)       -128.4828         estimate D2E/DX2                !
 ! D225  D(22,24,62,94)        107.6134         estimate D2E/DX2                !
 ! D226  D(26,24,62,60)        138.7587         estimate D2E/DX2                !
 ! D227  D(26,24,62,64)         20.7383         estimate D2E/DX2                !
 ! D228  D(26,24,62,94)       -103.1654         estimate D2E/DX2                !
 ! D229  D(23,25,27,29)         -1.3036         estimate D2E/DX2                !
 ! D230  D(23,25,27,65)       -148.5587         estimate D2E/DX2                !
 ! D231  D(61,25,27,29)        150.5673         estimate D2E/DX2                !
 ! D232  D(61,25,27,65)          3.3123         estimate D2E/DX2                !
 ! D233  D(23,25,61,59)         24.2468         estimate D2E/DX2                !
 ! D234  D(23,25,61,63)        141.3964         estimate D2E/DX2                !
 ! D235  D(23,25,61,93)        -99.3066         estimate D2E/DX2                !
 ! D236  D(27,25,61,59)       -126.3148         estimate D2E/DX2                !
 ! D237  D(27,25,61,63)         -9.1652         estimate D2E/DX2                !
 ! D238  D(27,25,61,93)        110.1318         estimate D2E/DX2                !
 ! D239  D(3,26,28,30)          -7.9956         estimate D2E/DX2                !
 ! D240  D(3,26,28,66)         138.7158         estimate D2E/DX2                !
 ! D241  D(24,26,28,30)       -155.4654         estimate D2E/DX2                !
 ! D242  D(24,26,28,66)         -8.754          estimate D2E/DX2                !
 ! D243  D(25,27,29,5)          -4.0023         estimate D2E/DX2                !
 ! D244  D(25,27,29,31)       -157.3582         estimate D2E/DX2                !
 ! D245  D(65,27,29,5)         139.3345         estimate D2E/DX2                !
 ! D246  D(65,27,29,31)        -14.0215         estimate D2E/DX2                !
 ! D247  D(25,27,65,63)          4.7037         estimate D2E/DX2                !
 ! D248  D(25,27,65,67)        155.7419         estimate D2E/DX2                !
 ! D249  D(29,27,65,63)       -142.9954         estimate D2E/DX2                !
 ! D250  D(29,27,65,67)          8.0428         estimate D2E/DX2                !
 ! D251  D(26,28,30,7)           0.3838         estimate D2E/DX2                !
 ! D252  D(26,28,30,32)        151.6708         estimate D2E/DX2                !
 ! D253  D(66,28,30,7)        -145.2031         estimate D2E/DX2                !
 ! D254  D(66,28,30,32)          6.0839         estimate D2E/DX2                !
 ! D255  D(26,28,66,64)          9.4423         estimate D2E/DX2                !
 ! D256  D(26,28,66,68)       -147.8491         estimate D2E/DX2                !
 ! D257  D(30,28,66,64)        150.6769         estimate D2E/DX2                !
 ! D258  D(30,28,66,68)         -6.6144         estimate D2E/DX2                !
 ! D259  D(5,29,31,33)          -3.2327         estimate D2E/DX2                !
 ! D260  D(5,29,31,69)        -147.8289         estimate D2E/DX2                !
 ! D261  D(27,29,31,33)        150.2039         estimate D2E/DX2                !
 ! D262  D(27,29,31,69)          5.6078         estimate D2E/DX2                !
 ! D263  D(7,30,32,34)          -1.0206         estimate D2E/DX2                !
 ! D264  D(7,30,32,70)         148.695          estimate D2E/DX2                !
 ! D265  D(28,30,32,34)       -149.3922         estimate D2E/DX2                !
 ! D266  D(28,30,32,70)          0.3234         estimate D2E/DX2                !
 ! D267  D(29,31,33,35)         -8.5249         estimate D2E/DX2                !
 ! D268  D(29,31,33,73)       -154.7941         estimate D2E/DX2                !
 ! D269  D(69,31,33,35)        140.32           estimate D2E/DX2                !
 ! D270  D(69,31,33,73)         -5.9492         estimate D2E/DX2                !
 ! D271  D(29,31,69,67)          9.3434         estimate D2E/DX2                !
 ! D272  D(29,31,69,71)        153.5836         estimate D2E/DX2                !
 ! D273  D(33,31,69,67)       -139.1044         estimate D2E/DX2                !
 ! D274  D(33,31,69,71)          5.1358         estimate D2E/DX2                !
 ! D275  D(30,32,34,36)         32.7578         estimate D2E/DX2                !
 ! D276  D(30,32,34,74)        149.2959         estimate D2E/DX2                !
[...]
 Alpha virt. eigenvalues --    1.44891   1.45277   1.45446   1.46189   1.46753
 Alpha virt. eigenvalues --    1.47282   1.47691   1.48291   1.48781   1.49338
 Alpha virt. eigenvalues --    1.49703   1.50127   1.50804   1.51563   1.51879
 Alpha virt. eigenvalues --    1.52225   1.52633   1.53362   1.53766   1.54273
 Alpha virt. eigenvalues --    1.54787   1.56033   1.56322   1.56889   1.57532
 Alpha virt. eigenvalues --    1.57633   1.58074   1.58725   1.59334   1.60105
 Alpha virt. eigenvalues --    1.60378   1.60722   1.61313   1.62084   1.62177
 Alpha virt. eigenvalues --    1.62402   1.62659   1.63127   1.63174   1.63485
 Alpha virt. eigenvalues --    1.63579   1.63820   1.63953   1.64331   1.64431
 Alpha virt. eigenvalues --    1.64623   1.64805   1.64893   1.65211   1.65671
 Alpha virt. eigenvalues --    1.65959   1.66025   1.66276   1.66437   1.66732
 Alpha virt. eigenvalues --    1.66997   1.67326   1.67782   1.68032   1.68149
 Alpha virt. eigenvalues --    1.68359   1.68436   1.68653   1.68917   1.68935
 Alpha virt. eigenvalues --    1.69249   1.69323   1.69780   1.70239   1.70328
 Alpha virt. eigenvalues --    1.70567   1.70883   1.71039   1.71275   1.71853
 Alpha virt. eigenvalues --    1.71884   1.71937   1.72131   1.72500   1.72626
 Alpha virt. eigenvalues --    1.72768   1.73065   1.73272   1.73479   1.73889
 Alpha virt. eigenvalues --    1.74255   1.74325   1.74635   1.74776   1.74868
 Alpha virt. eigenvalues --    1.75273   1.75482   1.75548   1.75752   1.76079
 Alpha virt. eigenvalues --    1.76219   1.76450   1.76533   1.76703   1.76986
 Alpha virt. eigenvalues --    1.77437   1.77792   1.77855   1.77919   1.78109
 Alpha virt. eigenvalues --    1.78415   1.78645   1.78926   1.79080   1.79550
 Alpha virt. eigenvalues --    1.79702   1.80022   1.80068   1.80571   1.80911
 Alpha virt. eigenvalues --    1.81172   1.81518   1.81765   1.81978   1.82248
 Alpha virt. eigenvalues --    1.82344   1.82716   1.82863   1.83062   1.83214
 Alpha virt. eigenvalues --    1.83716   1.83819   1.84512   1.84673   1.85166
 Alpha virt. eigenvalues --    1.85306   1.85818   1.86048   1.86504   1.86944
 Alpha virt. eigenvalues --    1.87149   1.87512   1.87756   1.88090   1.88698
 Alpha virt. eigenvalues --    1.88863   1.88982   1.89632   1.89814   1.90215
 Alpha virt. eigenvalues --    1.90344   1.90699   1.90964   1.91225   1.91421
 Alpha virt. eigenvalues --    1.91674   1.92131   1.92505   1.92893   1.93115
 Alpha virt. eigenvalues --    1.93611   1.94068   1.94431   1.94621   1.95084
 Alpha virt. eigenvalues --    1.95370   1.95687   1.95937   1.96544   1.96924
 Alpha virt. eigenvalues --    1.97009   1.97827   1.97945   1.98487   1.98925
 Alpha virt. eigenvalues --    1.98991   1.99535   1.99739   1.99922   2.00068
 Alpha virt. eigenvalues --    2.00435   2.00856   2.01028   2.01297   2.01671
 Alpha virt. eigenvalues --    2.02190   2.02360   2.02645   2.03103   2.03246
 Alpha virt. eigenvalues --    2.03703   2.03917   2.04378   2.04626   2.04922
 Alpha virt. eigenvalues --    2.05014   2.05740   2.06199   2.06430   2.07019
 Alpha virt. eigenvalues --    2.07114   2.07521   2.07709   2.08138   2.08424
 Alpha virt. eigenvalues --    2.08950   2.09681   2.09820   2.10140   2.10413
 Alpha virt. eigenvalues --    2.11165   2.11489   2.12265   2.12326   2.12628
 Alpha virt. eigenvalues --    2.12991   2.13381   2.13745   2.14190   2.14658
 Alpha virt. eigenvalues --    2.15018   2.15121   2.15695   2.16095   2.16599
 Alpha virt. eigenvalues --    2.16837   2.16961   2.17622   2.17910   2.18101
 Alpha virt. eigenvalues --    2.18301   2.18624   2.19531   2.19978   2.20346
 Alpha virt. eigenvalues --    2.20635   2.21075   2.21295   2.21703   2.22008
 Alpha virt. eigenvalues --    2.22397   2.23078   2.23515   2.23614   2.23970
 Alpha virt. eigenvalues --    2.24336   2.24547   2.24924   2.25569   2.25955
 Alpha virt. eigenvalues --    2.26427   2.26671   2.26815   2.27833   2.28386
 Alpha virt. eigenvalues --    2.28477   2.28941   2.29214   2.29621   2.29684
 Alpha virt. eigenvalues --    2.30169   2.30664   2.30967   2.31325   2.31746
 Alpha virt. eigenvalues --    2.32729   2.32892   2.33424   2.34079   2.35185
 Alpha virt. eigenvalues --    2.35709   2.35770   2.36284   2.36344   2.36839
 Alpha virt. eigenvalues --    2.37874   2.38832   2.39076   2.39467   2.39788
 Alpha virt. eigenvalues --    2.40344   2.40723   2.41043   2.41587   2.42046
 Alpha virt. eigenvalues --    2.42627   2.43314   2.43717   2.44261   2.44503
 Alpha virt. eigenvalues --    2.45017   2.45383   2.46104   2.46688   2.47259
 Alpha virt. eigenvalues --    2.47355   2.47757   2.48428   2.48777   2.49415
 Alpha virt. eigenvalues --    2.50025   2.50178   2.50856   2.51242   2.51703
 Alpha virt. eigenvalues --    2.52280   2.52823   2.53104   2.53374   2.53637
 Alpha virt. eigenvalues --    2.54050   2.54380   2.54987   2.55157   2.55463
 Alpha virt. eigenvalues --    2.55700   2.56060   2.56295   2.56911   2.57558
 Alpha virt. eigenvalues --    2.57929   2.58357   2.58567   2.58607   2.58842
 Alpha virt. eigenvalues --    2.59065   2.59399   2.59703   2.60427   2.60902
 Alpha virt. eigenvalues --    2.61184   2.61341   2.61692   2.61748   2.62397
 Alpha virt. eigenvalues --    2.62759   2.63275   2.63378   2.63693   2.64101
 Alpha virt. eigenvalues --    2.64436   2.64642   2.64710   2.65007   2.65134
 Alpha virt. eigenvalues --    2.65905   2.66257   2.66716   2.66873   2.67421
 Alpha virt. eigenvalues --    2.67797   2.68569   2.68809   2.69343   2.69761
 Alpha virt. eigenvalues --    2.70112   2.70497   2.70830   2.71064   2.71132
 Alpha virt. eigenvalues --    2.71718   2.72139   2.72336   2.73061   2.73289
 Alpha virt. eigenvalues --    2.73508   2.73829   2.74550   2.74614   2.74729
 Alpha virt. eigenvalues --    2.75347   2.75480   2.75937   2.76011   2.76706
 Alpha virt. eigenvalues --    2.76925   2.77075   2.77844   2.77965   2.78211
 Alpha virt. eigenvalues --    2.78812   2.79498   2.79903   2.80501   2.81033
 Alpha virt. eigenvalues --    2.81322   2.81487   2.82114   2.82784   2.83045
 Alpha virt. eigenvalues --    2.83414   2.84290   2.84671   2.85300   2.85362
 Alpha virt. eigenvalues --    2.86400   2.86933   2.87256   2.87366   2.88291
 Alpha virt. eigenvalues --    2.88726   2.88888   2.89152   2.89719   2.89996
 Alpha virt. eigenvalues --    2.90651   2.91659   2.91912   2.92723   2.93376
 Alpha virt. eigenvalues --    2.93655   2.94745   2.95899   2.96642   2.97294
 Alpha virt. eigenvalues --    2.98203   2.99508   3.00102   3.00537   3.01148
 Alpha virt. eigenvalues --    3.01926   3.04014   3.04335   3.05685   3.06156
 Alpha virt. eigenvalues --    3.08646   3.09292   3.09947   3.12011   3.12874
 Alpha virt. eigenvalues --    3.13459   3.14597   3.15442   3.16312   3.17350
 Alpha virt. eigenvalues --    3.19471   3.20388   3.22851   3.23561   3.24886
 Alpha virt. eigenvalues --    3.26751   3.27847   3.28109   3.30925   3.32321
 Alpha virt. eigenvalues --    3.33516   3.35317   3.38807   3.40668   3.41835
 Alpha virt. eigenvalues --    3.43111   3.44592   3.46717   3.48628   3.50367
 Alpha virt. eigenvalues --    3.54201   3.55235   4.00074   4.01077   4.02450
 Alpha virt. eigenvalues --    4.02744   4.03670   4.04002   4.04355   4.05395
 Alpha virt. eigenvalues --    4.06174   4.06874   4.07249   4.07970   4.08947
 Alpha virt. eigenvalues --    4.09139   4.09428   4.10628   4.11252   4.11755
 Alpha virt. eigenvalues --    4.13504   4.13620   4.13999   4.14748   4.16040
 Alpha virt. eigenvalues --    4.16826   4.17165   4.18043   4.19360   4.19561
 Alpha virt. eigenvalues --    4.20372   4.20699   4.21495   4.22260   4.23136
 Alpha virt. eigenvalues --    4.23514   4.24822   4.25384   4.25589   4.26092
 Alpha virt. eigenvalues --    4.26884   4.27258   4.27476   4.27995   4.28310
 Alpha virt. eigenvalues --    4.28352   4.28978   4.29598   4.30362   4.31280
 Alpha virt. eigenvalues --    4.33094   4.33476   4.34564   4.34778   4.35518
 Alpha virt. eigenvalues --    4.38048   4.38807   4.39028   4.39697   4.41104
 Alpha virt. eigenvalues --    4.41217   4.41948   4.42825   4.43641   4.44610
 Alpha virt. eigenvalues --    4.45251   4.47652   4.47904   4.49135   4.50216
 Alpha virt. eigenvalues --    4.51213   4.53037   4.53744   4.55325   4.57324
 Alpha virt. eigenvalues --    4.58794   4.59587   4.60739   4.62123   4.64207
 Alpha virt. eigenvalues --    4.64499   4.66168   4.68349   4.69810   4.76737
 Alpha virt. eigenvalues --    4.78088   4.78650   4.80887   4.82811   4.84849
 Alpha virt. eigenvalues --    4.86538   4.91469   4.92986   4.96897   5.01738
 Alpha virt. eigenvalues --    5.02792   5.05664   5.09628   5.16111   5.18582
          Condensed to atoms (all electrons):
 Mulliken charges:
               1
     1  C    0.000304
     2  C   -0.385230
     3  C    0.076650
     4  C   -0.380867
     5  C    0.042022
     6  C    0.093655
     7  C   -0.384933
     8  C    0.180039
     9  C    0.035323
    10  C    0.092593
    11  C    0.180941
    12  C    0.146254
    13  C    0.009998
    14  C    0.113973
    15  C    0.014218
    16  C   -0.380155
    17  C    0.019280
    18  C    0.157454
    19  C    0.066865
    20  C    0.113288
    21  C   -0.357650
    22  C    0.047435
    23  C    0.089355
    24  C    0.066545
    25  C    0.093712
    26  C    0.042581
    27  C    0.009530
    28  C   -0.016108
    29  C    0.046682
    30  C    0.094926
    31  C   -0.029548
    32  C    0.091217
    33  C   -0.022175
    34  C   -0.379043
    35  C    0.041843
    36  C    0.123466
    37  C    0.059200
    38  C    0.119402
    39  C    0.121116
    40  C    0.118893
    41  C    0.113916
    42  C    0.146897
    43  C    0.075869
    44  C    0.142004
    45  C    0.143888
    46  C    0.118675
    47  C    0.124775
    48  C    0.122163
    49  C   -0.380538
    50  C   -0.373808
    51  C    0.087143
    52  C    0.135404
    53  C    0.039185
    54  C   -0.355994
    55  C   -0.009697
    56  C    0.080272
    57  C    0.096815
    58  C   -0.017828
    59  C    0.153212
    60  C    0.085597
    61  C   -0.381224
    62  C   -0.370833
    63  C    0.077387
    64  C    0.117742
    65  C    0.005165
    66  C    0.069411
    67  C    0.050511
    68  C    0.031713
    69  C   -0.018238
    70  C    0.007084
    71  C   -0.021072
    72  C    0.039423
    73  C   -0.022846
    74  C    0.087799
    75  C    0.032820
    76  C    0.096967
    77  C   -0.018042
    78  C   -0.381294
    79  C   -0.358920
    80  C   -0.375227
    81  C    0.112117
    82  C    0.157521
    83  C    0.062995
    84  C    0.060316
    85  Cl   0.032646
    86  Cl   0.025307
    87  Cl   0.021319
    88  Cl   0.019711
    89  Cl   0.027084
    90  Cl   0.020638
    91  Cl   0.023407
    92  Cl   0.025489
    93  Cl   0.019208
    94  Cl   0.002082
    95  Cl   0.023790
    96  Cl   0.001546
    97  Cl  -0.003146
    98  Cl  -0.001354
 Sum of Mulliken charges =  -0.00000
 Mulliken charges with hydrogens summed into heavy atoms:
               1
     1  C    0.000304
     2  C   -0.385230
     3  C    0.076650
     4  C   -0.380867
     5  C    0.042022
     6  C    0.093655
     7  C   -0.384933
     8  C    0.180039
     9  C    0.035323
    10  C    0.092593
    11  C    0.180941
    12  C    0.146254
    13  C    0.009998
    14  C    0.113973
    15  C    0.014218
    16  C   -0.380155
    17  C    0.019280
    18  C    0.157454
    19  C    0.066865
    20  C    0.113288
    21  C   -0.357650
    22  C    0.047435
    23  C    0.089355
    24  C    0.066545
    25  C    0.093712
    26  C    0.042581
    27  C    0.009530
    28  C   -0.016108
    29  C    0.046682
    30  C    0.094926
    31  C   -0.029548
    32  C    0.091217
    33  C   -0.022175
    34  C   -0.379043
    35  C    0.041843
    36  C    0.123466
    37  C    0.059200
    38  C    0.119402
    39  C    0.121116
    40  C    0.118893
    41  C    0.113916
    42  C    0.146897
    43  C    0.075869
    44  C    0.142004
    45  C    0.143888
    46  C    0.118675
    47  C    0.124775
    48  C    0.122163
    49  C   -0.380538
    50  C   -0.373808
    51  C    0.087143
    52  C    0.135404
    53  C    0.039185
    54  C   -0.355994
    55  C   -0.009697
    56  C    0.080272
    57  C    0.096815
    58  C   -0.017828
    59  C    0.153212
    60  C    0.085597
    61  C   -0.381224
    62  C   -0.370833
    63  C    0.077387
    64  C    0.117742
    65  C    0.005165
    66  C    0.069411
    67  C    0.050511
    68  C    0.031713
    69  C   -0.018238
    70  C    0.007084
    71  C   -0.021072
    72  C    0.039423
    73  C   -0.022846
    74  C    0.087799
    75  C    0.032820
    76  C    0.096967
    77  C   -0.018042
    78  C   -0.381294
    79  C   -0.358920
    80  C   -0.375227
    81  C    0.112117
    82  C    0.157521
    83  C    0.062995
    84  C    0.060316
    85  Cl   0.032646
    86  Cl   0.025307
    87  Cl   0.021319
    88  Cl   0.019711
    89  Cl   0.027084
    90  Cl   0.020638
    91  Cl   0.023407
    92  Cl   0.025489
    93  Cl   0.019208
    94  Cl   0.002082
    95  Cl   0.023790
    96  Cl   0.001546
    97  Cl  -0.003146
    98  Cl  -0.001354
 Electronic spatial extent (au):  <R**2>=          66260.9941
 Charge=             -0.0000 electrons
 Dipole moment (field-independent basis, Debye):
    X=              3.5136    Y=             -1.7743    Z=             -5.2376  Tot=              6.5518
 Quadrupole moment (field-independent basis, Debye-Ang):
   XX=           -680.0789   YY=           -662.9195   ZZ=           -647.8378
   XY=              7.0202   XZ=             -1.0503   YZ=              3.8245
 Traceless Quadrupole moment (field-independent basis, Debye-Ang):
   XX=            -16.4668   YY=              0.6926   ZZ=             15.7743
   XY=              7.0202   XZ=             -1.0503   YZ=              3.8245
 Octapole moment (field-independent basis, Debye-Ang**2):
  XXX=           -101.0417  YYY=            -27.6961  ZZZ=            -36.8014  XYY=             11.1260
  XXY=             42.0344  XXZ=             48.9787  XZZ=             17.6403  YZZ=             -5.7612
  YYZ=              5.6778  XYZ=             -9.3515
 Hexadecapole moment (field-independent basis, Debye-Ang**3):
 XXXX=         -35529.5279 YYYY=         -31754.4560 ZZZZ=         -26813.7390 XXXY=             44.4061
 XXXZ=            -54.4489 YYYX=            -59.8902 YYYZ=             87.8709 ZZZX=            -18.6235
 ZZZY=            -39.3459 XXYY=         -11225.5156 XXZZ=         -10198.4338 YYZZ=          -9688.6714
 XXYZ=             26.5977 YYXZ=           -114.9716 ZZXY=              0.8826
 N-N= 2.607079308836D+04 E-N=-7.484572684458D+04  KE= 9.594216289472D+03
 No NMR shielding tensors so no spin-rotation constants.
 Leave Link  601 at Thu Jun 30 02:12:17 2022, MaxMem=  1342177280 cpu:              27.6 elap:               1.4
 (Enter /home/mkliu/g16/l9999.exe)
 1\1\GINC-NODE03\FOpt\RB3LYP\6-31G(d,p)\C84Cl14\MKLIU\30-Jun-2022\0\\#P
  opt b3lyp/6-31G(d, p) empiricaldispersion=GD3\\force\\0,1\C,8.4830815
 19,18.8755728343,10.7735004596\C,12.5810620306,19.9593120432,8.8659628
 509\C,8.2374580252,26.8831744815,10.5541850281\C,12.4507480366,25.7305
 058592,8.934152006\C,8.0045892018,19.082857126,9.4573134663\C,12.06446
 04164,19.4574078486,10.191362179\C,7.8450827147,27.1121214049,9.095866
 1182\C,11.8674868731,26.1847273302,10.2493217317\C,8.9735314829,19.178
 7041934,8.3596077853\C,12.3278025853,20.0883904872,11.3734177291\C,12.
 1191861487,25.5439616823,11.3856386329\C,8.9306387989,26.5868754307,8.
 1680702226\C,10.3419129749,19.0433045538,8.6704522909\C,10.2406662779,
 26.6294861779,8.6407943046\C,10.8031949798,18.8179219242,10.0066853846
 \C,10.6579016797,27.0675039819,10.0355529732\C,9.8816826764,18.7528512
 766,11.0520563097\C,9.5455683539,26.788114172,11.0230870841\C,10.17582
 00393,19.3650420789,12.3008391215\C,9.8030201643,26.0577120634,12.2097
 978541\C,8.8951350537,19.7902603391,12.9929122741\C,8.7368047947,25.42
 14386436,12.8548063278\C,7.8606872202,19.4698668669,11.9247167649\C,7.
 4210221791,25.5233977499,12.3812238658\C,6.7270217465,20.2001235073,11
 .7791483726\C,7.1855250537,26.2106647434,11.215086395\C,6.1453871023,2
 0.3411041044,10.4869469157\C,6.231912291,25.7152996473,10.2264899889\C
 ,6.7353046406,19.7597250799,9.3303921107\C,6.6033027725,26.2493109122,
 8.9796304848\C,6.3849048446,20.3378745771,8.0924566282\C,6.3087360815,
 25.5662804684,7.8265792273\C,7.3058839644,20.3296839357,6.9707855061\C
 ,7.1859454672,25.6378776805,6.5859090683\C,8.6443635065,19.8980592785,
 7.1437152288\C,8.6484268523,25.8341044913,7.0059614867\C,9.6943556369,
 20.589140356,6.4027620593\C,9.6822632522,25.1066132318,6.3674346217\C,
 11.058022065,20.5427407235,6.8800241986\C,12.718323906,22.1674969997,7
 .7560657039\C,12.6936598912,23.5570854752,7.763158179\C,10.9905296838,
 25.1281350134,6.8906135309\C,11.3595122897,19.7525188207,7.954948293\C
 ,12.9145177868,21.4426942149,8.9297602798\C,12.8535182192,24.268169830
 4,8.9525883846\C,11.2525291373,25.9053172281,8.01631158\C,13.117770438
 1,22.1402380714,10.1389485012\C,13.0813456512,23.56206269,10.145930850
 8\C,13.153650313,21.3601984806,11.4596160708\C,13.0362965993,24.335984
 4144,11.4637924275\C,12.3964354231,22.12806298,12.5275702979\C,12.3325
 75522,23.5157550368,12.5087686769\C,11.3444404786,20.0732698033,12.417
 2521902\C,11.196598863,25.6111653845,12.5805850194\C,11.3430882781,21.
 3810081861,13.0525338611\C,11.2422776163,24.1699337565,13.0510282916\C
 ,8.874876512,21.2869014091,13.327624399\C,8.8714344937,24.1033712555,1
 3.4856003072\C,7.6697004206,22.0021950488,13.2308422468\C,7.6781929022
 ,23.4033818501,13.351724688\C,6.4026446756,21.3935666773,12.6459606182
 \C,6.5916001817,24.329008488,12.7910037706\C,5.7588143513,22.334439662
 9,11.6169714292\C,5.8758998824,23.6980836309,11.6124008826\C,5.4944472
 367,21.6111455188,10.411545683\C,5.6495654947,24.4297566009,10.3691638
 809\C,5.2682447882,22.2630914875,9.1811797078\C,5.3270731945,23.711909
 9985,9.1573775916\C,5.5856502269,21.5146289621,8.0074091084\C,5.625683
 3085,24.3361956912,7.9070162181\C,5.927448413,22.1776963563,6.77583862
 57\C,5.9596927358,23.5598235603,6.7342875925\C,6.975286187,21.43091831
 53,6.1335054277\C,6.9650355526,24.2649663412,5.9833598667\C,7.99505165
 16,22.1253667188,5.4704472168\C,7.9632217257,23.5642336468,5.376516053
 4\C,9.3314837741,21.681990555,5.5757402243\C,9.3688034155,24.104886898
 6,5.2538835968\C,12.0673547742,21.6134098308,6.4998171675\C,12.0491611
 609,24.1084141571,6.5004071796\C,10.2020181357,22.8422107068,5.4380929
 465\C,11.4415281264,22.8572360794,5.9331355543\C,10.1199532567,21.9988
 723082,13.4673537526\C,10.1147614843,23.4376146106,13.515117153\Cl,13.
 8770074778,26.7852930688,8.4353770053\Cl,13.2893721872,24.8701768125,5
 .3656884731\Cl,9.6681058983,24.8881976665,3.6149094113\Cl,6.6842449548
 ,26.9903604321,5.4430323869\Cl,14.7436840029,24.8172330857,11.96482228
 36\Cl,14.9010151992,21.0151353355,11.9256682268\Cl,7.5040459106,28.886
 8128322,8.7477661974\Cl,11.1166565928,28.855269067,10.0725408365\Cl,5.
 2131861993,20.9716833915,13.9893698608\Cl,5.3669309789,24.8023051677,1
 4.1020976047\Cl,14.0422292696,18.9840328392,8.3172462417\Cl,13.3259572
 239,20.9263219453,5.313161441\Cl,8.6201823761,18.8161976388,14.5472048
 205\Cl,11.8717991006,26.7470654805,13.8963497738\\Version=ES64L-G16Rev
 A.03\State=1-A\HF=-9643.8418409\RMSD=3.511e-09\RMSF=1.785e-05\Dipole=-
 1.9833934,-1.6407,-0.1363606\Quadrupole=0.8511868,3.4907881,-4.3419749
 ,1.1952254,11.2500344,5.992306\PG=C01 [X(C84Cl14)]\\@


 GOORD'S AXIOM:  A MEETING IS AN EVENT AT WHICH
 THE MINUTES ARE KEPT AND THE HOURS ARE LOST.
 Job cpu time:       1 days 12 hours  5 minutes 17.5 seconds.
 Elapsed time:       0 days  1 hours 30 minutes 20.9 seconds.
 File lengths (MBytes):  RWF=   1429 Int=      0 D2E=      0 Chk=    179 Scr=      1
 Normal termination of Gaussian 16 at Thu Jun 30 02:12:20 2022.
