 Entering Gaussian System, Link 0=g16
 Input=14_addons_C84_11_Cl22_rank_2.gjf
 Output=14_addons_C84_11_Cl22_rank_2.log
 Initial command:
 /home/mkliu/g16/l1.exe "/data/scratch/Gau-38543.inp" -scrdir="/data/scratch/"
 Entering Link 1 = /home/mkliu/g16/l1.exe PID=     38544.
  
 Copyright (c) 1988,1990,1992,1993,1995,1998,2003,2009,2016,
            Gaussian, Inc.  All Rights Reserved.
  
 This is part of the Gaussian(R) 16 program.  It is based on
 the Gaussian(R) 09 system (copyright 2009, Gaussian, Inc.),
 the Gaussian(R) 03 system (copyright 2003, Gaussian, Inc.),
 the Gaussian(R) 98 system (copyright 1998, Gaussian, Inc.),
 the Gaussian(R) 94 system (copyright 1995, Gaussian, Inc.),
 the Gaussian 92(TM) system (copyright 1992, Gaussian, Inc.),
 the Gaussian 90(TM) system (copyright 1990, Gaussian, Inc.),
 the Gaussian 88(TM) system (copyright 1988, Gaussian, Inc.),
 the Gaussian 86(TM) system (copyright 1986, Carnegie Mellon
 University), and the Gaussian 82(TM) system (copyright 1983,
 Carnegie Mellon University). Gaussian is a federally registered
 trademark of Gaussian, Inc.
  
 This software contains proprietary and confidential information,
 including trade secrets, belonging to Gaussian, Inc.
  
 This software is provided under written license and may be
 used, copied, transmitted, or stored only in accord with that
 written license.
  
 The following legend is applicable only to US Government
 contracts under FAR:
  
                    RESTRICTED RIGHTS LEGEND
  
 Use, reproduction and disclosure by the US Government is
 subject to restrictions as set forth in subparagraphs (a)
 and (c) of the Commercial Computer Software - Restricted
 Rights clause in FAR 52.227-19.
  
 Gaussian, Inc.
 340 Quinnipiac St., Bldg. 40, Wallingford CT 06492
  
  
 ---------------------------------------------------------------
 Warning -- This program may not be used in any manner that
 competes with the business of Gaussian, Inc. or will provide
 assistance to any competitor of Gaussian, Inc.  The licensee
 of this program is prohibited from giving any competitor of
 Gaussian, Inc. access to this program.  By using this program,
 the user acknowledges that Gaussian, Inc. is engaged in the
 business of creating and licensing software in the field of
 computational chemistry and represents and warrants to the
 licensee that it is not a competitor of Gaussian, Inc. and that
 it will not use this program in any manner prohibited above.
 ---------------------------------------------------------------
  

 Cite this work as:
 Gaussian 16, Revision A.03,
 M. J. Frisch, G. W. Trucks, H. B. Schlegel, G. E. Scuseria, 
 M. A. Robb, J. R. Cheeseman, G. Scalmani, V. Barone, 
 G. A. Petersson, H. Nakatsuji, X. Li, M. Caricato, A. V. Marenich, 
 J. Bloino, B. G. Janesko, R. Gomperts, B. Mennucci, H. P. Hratchian, 
 J. V. Ortiz, A. F. Izmaylov, J. L. Sonnenberg, D. Williams-Young, 
 F. Ding, F. Lipparini, F. Egidi, J. Goings, B. Peng, A. Petrone, 
 T. Henderson, D. Ranasinghe, V. G. Zakrzewski, J. Gao, N. Rega, 
 G. Zheng, W. Liang, M. Hada, M. Ehara, K. Toyota, R. Fukuda, 
 J. Hasegawa, M. Ishida, T. Nakajima, Y. Honda, O. Kitao, H. Nakai, 
 T. Vreven, K. Throssell, J. A. Montgomery, Jr., J. E. Peralta, 
 F. Ogliaro, M. J. Bearpark, J. J. Heyd, E. N. Brothers, K. N. Kudin, 
 V. N. Staroverov, T. A. Keith, R. Kobayashi, J. Normand, 
 K. Raghavachari, A. P. Rendell, J. C. Burant, S. S. Iyengar, 
 J. Tomasi, M. Cossi, J. M. Millam, M. Klene, C. Adamo, R. Cammi, 
 J. W. Ochterski, R. L. Martin, K. Morokuma, O. Farkas, 
 J. B. Foresman, and D. J. Fox, Gaussian, Inc., Wallingford CT, 2016.
 
 ******************************************
 Gaussian 16:  ES64L-G16RevA.03 25-Dec-2016
                28-Jun-2022 
 ******************************************
 %mem=10GB
 %chk=14_addons_C84_11_Cl22_rank_2.chk
 %nprocshared=24
 Will use up to   24 processors via shared memory.
 ------------------------------------------------
 #P opt b3lyp/6-31G(d, p) empiricaldispersion=GD3
 ------------------------------------------------
 1/18=20,19=15,26=3,38=1/1,3;
 2/9=110,12=2,17=6,18=5,40=1/2;
 3/5=1,6=6,7=101,11=2,25=1,30=1,71=1,74=-5,124=31/1,2,3;
 4//1;
 5/5=2,38=5/2;
 6/7=2,8=2,9=2,10=2,28=1/1;
 7//1,2,3,16;
 1/18=20,19=15,26=3/3(2);
 2/9=110/2;
 99//99;
 2/9=110/2;
 3/5=1,6=6,7=101,11=2,25=1,30=1,71=1,74=-5,124=31/1,2,3;
 4/5=5,16=3,69=1/1;
 5/5=2,38=5/2;
 7//1,2,3,16;
 1/18=20,19=15,26=3/3(-5);
 2/9=110/2;
 6/7=2,8=2,9=2,10=2,19=2,28=1/1;
 99/9=1/99;
 Leave Link    1 at Tue Jun 28 03:41:55 2022, MaxMem=  1342177280 cpu:               0.7 elap:               0.1
 (Enter /home/mkliu/g16/l101.exe)
 -----
 force
 -----
 Symbolic Z-matrix:
 Charge =  0 Multiplicity = 1
 C                     8.42381   18.61843   10.83977 
 C                     12.56098   19.98707   8.91274 
 C                     8.26987   26.89433   10.56807 
 C                     12.45276   25.73681   8.93848 
 C                     8.01445   19.16106   9.48166 
 C                     12.06425   19.49367   10.24009 
 C                     7.87213   27.11494   9.12145 
 C                     11.88725   26.20474   10.24522 
 C                     8.98038   19.27608   8.43756 
 C                     12.33741   20.14385   11.40652 
 C                     12.10414   25.52288   11.37388 
 C                     8.935     26.56142   8.20584 
 C                     10.35318   19.0923   8.72598 
 C                     10.23636   26.6027   8.67368 
 C                     10.81223   18.83425   10.07029 
 C                     10.66251   27.05426   10.0453 
 C                     9.90047   18.72816   11.08703 
 C                     9.5576    26.79115   11.02991 
 C                     10.15326   19.45372   12.27352 
 C                     9.82961   26.04427   12.22826 
 C                     8.93331   20.01979   12.74778 
 C                     8.76248   25.41883   12.90474 
 C                     7.88083   19.51098   11.92731 
 C                     7.4423    25.49583   12.37847 
 C                     6.73868   20.22193   11.77039 
 C                     7.21055   26.20275   11.22428 
 C                     5.90939   20.16591   10.52261 
 C                     6.2766    25.71284   10.25075 
 C                     6.77759   19.78692   9.34977 
 C                     6.64648   26.25294   9.00882 
 C                     6.44189   20.37217   8.13056 
 C                     6.33374   25.57269   7.86545 
 C                     7.34265   20.40704   7.07489 
 C                     7.19733   25.63901   6.63269 
 C                     8.6804    19.99015   7.23576 
 C                     8.6471    25.80927   7.05499 
 C                     9.70921   20.6322   6.48373 
 C                     9.66707   25.08384   6.42058 
 C                     11.0183   20.59345   6.94045 
 C                     12.65775   22.17651   7.80665 
 C                     12.64324   23.56348   7.80693 
 C                     10.96874   25.10471   6.93701 
 C                     11.3352   19.79206   8.03902 
 C                     12.86382   21.4625   8.97582 
 C                     12.82065   24.27537   8.98167 
 C                     11.24306   25.88046   8.049 
 C                     13.0867   22.16565   10.16799 
 C                     13.05475   23.57068   10.16756 
 C                     13.16152   21.40171   11.48126 
 C                     13.04347   24.34682   11.46943 
 C                     12.4229   22.17735   12.54044 
 C                     12.37667   23.52714   12.53128 
 C                     11.34464   20.15511   12.42533 
 C                     11.08851   25.43347   12.39759 
 C                     11.32696   21.42466   13.06491 
 C                     11.23186   24.19551   13.0546 
 C                     8.89072   21.29797   13.335 
 C                     8.89292   24.13941   13.51416 
 C                     7.65789   22.02268   13.20221 
 C                     7.66015   23.42333   13.32605 
 C                     6.61968   21.48596   12.40468 
 C                     6.77178   24.24732   12.59395 
 C                     5.81193   22.31706   11.58162 
 C                     5.91472   23.7178   11.60274 
 C                     5.47664   21.6148   10.39161 
 C                     5.67913   24.43596   10.38072 
 C                     5.28615   22.27536   9.2115 
 C                     5.36742   23.71642   9.1811 
 C                     5.37916   21.44306   7.95802 
 C                     5.63555   24.35514   7.95164 
 C                     5.93567   22.21273   6.79675 
 C                     5.96818   23.58704   6.77074 
 C                     7.00028   21.51049   6.20643 
 C                     6.97313   24.27464   6.0497 
 C                     7.98479   22.16647   5.50047 
 C                     7.97601   23.56716   5.43462 
 C                     9.36035   21.60157   5.37364 
 C                     9.36492   24.10681   5.30099 
 C                     12.04261   21.62212   6.54791 
 C                     12.02109   24.1047   6.54652 
 C                     10.18988   22.85321   5.46173 
 C                     11.40469   22.85856   5.98694 
 C                     10.13338   22.02503   13.50279 
 C                     10.11599   23.46254   13.55125 
 Cl                    13.85108   26.71688   8.36171 
 Cl                    13.23075   24.84803   5.44015 
 Cl                    9.67279   24.91985   3.72093 
 Cl                    6.75911   26.9749   5.50852 
 Cl                    14.72349   24.84404   11.8802 
 Cl                    14.89146   21.10111   11.87617 
 Cl                    14.00211   19.08687   8.31863 
 Cl                    4.50285   19.04777   10.65379 
 Cl                    3.7615    20.72747   7.57446 
 Cl                    13.26929   20.91958   5.43136 
 Cl                    7.57474   28.85011   8.74507 
 Cl                    11.08353   28.8193   10.04433 
 Cl                    7.83637   16.91072   10.96629 
 Cl                    9.59484   20.75458   3.78407 
 
 ITRead=  0  0  0  0  0  0  0  0  0  0  0  0  0  0  0  0  0  0  0  0
 ITRead=  0  0  0  0  0  0  0  0  0  0  0  0  0  0  0  0  0  0  0  0
 ITRead=  0  0  0  0  0  0  0  0  0  0  0  0  0  0  0  0  0  0  0  0
 ITRead=  0  0  0  0  0  0  0  0  0  0  0  0  0  0  0  0  0  0  0  0
 ITRead=  0  0  0  0  0  0  0  0  0  0  0  0  0  0  0  0  0  0
 MicOpt= -1 -1 -1 -1 -1 -1 -1 -1 -1 -1 -1 -1 -1 -1 -1 -1 -1 -1 -1 -1
 MicOpt= -1 -1 -1 -1 -1 -1 -1 -1 -1 -1 -1 -1 -1 -1 -1 -1 -1 -1 -1 -1
 MicOpt= -1 -1 -1 -1 -1 -1 -1 -1 -1 -1 -1 -1 -1 -1 -1 -1 -1 -1 -1 -1
 MicOpt= -1 -1 -1 -1 -1 -1 -1 -1 -1 -1 -1 -1 -1 -1 -1 -1 -1 -1 -1 -1
 MicOpt= -1 -1 -1 -1 -1 -1 -1 -1 -1 -1 -1 -1 -1 -1 -1 -1 -1 -1
 NAtoms=     98 NQM=       98 NQMF=       0 NMMI=      0 NMMIF=      0
                NMic=       0 NMicF=      0.
                    Isotopes and Nuclear Properties:
 (Nuclear quadrupole moments (NQMom) in fm**2, nuclear magnetic moments (NMagM)
  in nuclear magnetons)

  Atom         1           2           3           4           5           6           7           8           9          10
 IAtWgt=          12          12          12          12          12          12          12          12          12          12
 AtmWgt=  12.0000000  12.0000000  12.0000000  12.0000000  12.0000000  12.0000000  12.0000000  12.0000000  12.0000000  12.0000000
 NucSpn=           0           0           0           0           0           0           0           0           0           0
 AtZEff=  -0.0000000  -0.0000000  -0.0000000  -0.0000000  -0.0000000  -0.0000000  -0.0000000  -0.0000000  -0.0000000  -0.0000000
 NQMom=    0.0000000   0.0000000   0.0000000   0.0000000   0.0000000   0.0000000   0.0000000   0.0000000   0.0000000   0.0000000
 NMagM=    0.0000000   0.0000000   0.0000000   0.0000000   0.0000000   0.0000000   0.0000000   0.0000000   0.0000000   0.0000000
 AtZNuc=   6.0000000   6.0000000   6.0000000   6.0000000   6.0000000   6.0000000   6.0000000   6.0000000   6.0000000   6.0000000

  Atom        11          12          13          14          15          16          17          18          19          20
 IAtWgt=          12          12          12          12          12          12          12          12          12          12
 AtmWgt=  12.0000000  12.0000000  12.0000000  12.0000000  12.0000000  12.0000000  12.0000000  12.0000000  12.0000000  12.0000000
 NucSpn=           0           0           0           0           0           0           0           0           0           0
 AtZEff=  -0.0000000  -0.0000000  -0.0000000  -0.0000000  -0.0000000  -0.0000000  -0.0000000  -0.0000000  -0.0000000  -0.0000000
 NQMom=    0.0000000   0.0000000   0.0000000   0.0000000   0.0000000   0.0000000   0.0000000   0.0000000   0.0000000   0.0000000
 NMagM=    0.0000000   0.0000000   0.0000000   0.0000000   0.0000000   0.0000000   0.0000000   0.0000000   0.0000000   0.0000000
 AtZNuc=   6.0000000   6.0000000   6.0000000   6.0000000   6.0000000   6.0000000   6.0000000   6.0000000   6.0000000   6.0000000

  Atom        21          22          23          24          25          26          27          28          29          30
 IAtWgt=          12          12          12          12          12          12          12          12          12          12
 AtmWgt=  12.0000000  12.0000000  12.0000000  12.0000000  12.0000000  12.0000000  12.0000000  12.0000000  12.0000000  12.0000000
 NucSpn=           0           0           0           0           0           0           0           0           0           0
 AtZEff=  -0.0000000  -0.0000000  -0.0000000  -0.0000000  -0.0000000  -0.0000000  -0.0000000  -0.0000000  -0.0000000  -0.0000000
 NQMom=    0.0000000   0.0000000   0.0000000   0.0000000   0.0000000   0.0000000   0.0000000   0.0000000   0.0000000   0.0000000
 NMagM=    0.0000000   0.0000000   0.0000000   0.0000000   0.0000000   0.0000000   0.0000000   0.0000000   0.0000000   0.0000000
 AtZNuc=   6.0000000   6.0000000   6.0000000   6.0000000   6.0000000   6.0000000   6.0000000   6.0000000   6.0000000   6.0000000

  Atom        31          32          33          34          35          36          37          38          39          40
 IAtWgt=          12          12          12          12          12          12          12          12          12          12
 AtmWgt=  12.0000000  12.0000000  12.0000000  12.0000000  12.0000000  12.0000000  12.0000000  12.0000000  12.0000000  12.0000000
 NucSpn=           0           0           0           0           0           0           0           0           0           0
 AtZEff=  -0.0000000  -0.0000000  -0.0000000  -0.0000000  -0.0000000  -0.0000000  -0.0000000  -0.0000000  -0.0000000  -0.0000000
 NQMom=    0.0000000   0.0000000   0.0000000   0.0000000   0.0000000   0.0000000   0.0000000   0.0000000   0.0000000   0.0000000
 NMagM=    0.0000000   0.0000000   0.0000000   0.0000000   0.0000000   0.0000000   0.0000000   0.0000000   0.0000000   0.0000000
 AtZNuc=   6.0000000   6.0000000   6.0000000   6.0000000   6.0000000   6.0000000   6.0000000   6.0000000   6.0000000   6.0000000

  Atom        41          42          43          44          45          46          47          48          49          50
 IAtWgt=          12          12          12          12          12          12          12          12          12          12
 AtmWgt=  12.0000000  12.0000000  12.0000000  12.0000000  12.0000000  12.0000000  12.0000000  12.0000000  12.0000000  12.0000000
 NucSpn=           0           0           0           0           0           0           0           0           0           0
 AtZEff=  -0.0000000  -0.0000000  -0.0000000  -0.0000000  -0.0000000  -0.0000000  -0.0000000  -0.0000000  -0.0000000  -0.0000000
 NQMom=    0.0000000   0.0000000   0.0000000   0.0000000   0.0000000   0.0000000   0.0000000   0.0000000   0.0000000   0.0000000
 NMagM=    0.0000000   0.0000000   0.0000000   0.0000000   0.0000000   0.0000000   0.0000000   0.0000000   0.0000000   0.0000000
 AtZNuc=   6.0000000   6.0000000   6.0000000   6.0000000   6.0000000   6.0000000   6.0000000   6.0000000   6.0000000   6.0000000

  Atom        51          52          53          54          55          56          57          58          59          60
 IAtWgt=          12          12          12          12          12          12          12          12          12          12
 AtmWgt=  12.0000000  12.0000000  12.0000000  12.0000000  12.0000000  12.0000000  12.0000000  12.0000000  12.0000000  12.0000000
 NucSpn=           0           0           0           0           0           0           0           0           0           0
 AtZEff=  -0.0000000  -0.0000000  -0.0000000  -0.0000000  -0.0000000  -0.0000000  -0.0000000  -0.0000000  -0.0000000  -0.0000000
 NQMom=    0.0000000   0.0000000   0.0000000   0.0000000   0.0000000   0.0000000   0.0000000   0.0000000   0.0000000   0.0000000
 NMagM=    0.0000000   0.0000000   0.0000000   0.0000000   0.0000000   0.0000000   0.0000000   0.0000000   0.0000000   0.0000000
 AtZNuc=   6.0000000   6.0000000   6.0000000   6.0000000   6.0000000   6.0000000   6.0000000   6.0000000   6.0000000   6.0000000

  Atom        61          62          63          64          65          66          67          68          69          70
 IAtWgt=          12          12          12          12          12          12          12          12          12          12
 AtmWgt=  12.0000000  12.0000000  12.0000000  12.0000000  12.0000000  12.0000000  12.0000000  12.0000000  12.0000000  12.0000000
 NucSpn=           0           0           0           0           0           0           0           0           0           0
 AtZEff=  -0.0000000  -0.0000000  -0.0000000  -0.0000000  -0.0000000  -0.0000000  -0.0000000  -0.0000000  -0.0000000  -0.0000000
 NQMom=    0.0000000   0.0000000   0.0000000   0.0000000   0.0000000   0.0000000   0.0000000   0.0000000   0.0000000   0.0000000
 NMagM=    0.0000000   0.0000000   0.0000000   0.0000000   0.0000000   0.0000000   0.0000000   0.0000000   0.0000000   0.0000000
 AtZNuc=   6.0000000   6.0000000   6.0000000   6.0000000   6.0000000   6.0000000   6.0000000   6.0000000   6.0000000   6.0000000

  Atom        71          72          73          74          75          76          77          78          79          80
 IAtWgt=          12          12          12          12          12          12          12          12          12          12
 AtmWgt=  12.0000000  12.0000000  12.0000000  12.0000000  12.0000000  12.0000000  12.0000000  12.0000000  12.0000000  12.0000000
 NucSpn=           0           0           0           0           0           0           0           0           0           0
 AtZEff=  -0.0000000  -0.0000000  -0.0000000  -0.0000000  -0.0000000  -0.0000000  -0.0000000  -0.0000000  -0.0000000  -0.0000000
 NQMom=    0.0000000   0.0000000   0.0000000   0.0000000   0.0000000   0.0000000   0.0000000   0.0000000   0.0000000   0.0000000
 NMagM=    0.0000000   0.0000000   0.0000000   0.0000000   0.0000000   0.0000000   0.0000000   0.0000000   0.0000000   0.0000000
 AtZNuc=   6.0000000   6.0000000   6.0000000   6.0000000   6.0000000   6.0000000   6.0000000   6.0000000   6.0000000   6.0000000

  Atom        81          82          83          84          85          86          87          88          89          90
 IAtWgt=          12          12          12          12          35          35          35          35          35          35
 AtmWgt=  12.0000000  12.0000000  12.0000000  12.0000000  34.9688527  34.9688527  34.9688527  34.9688527  34.9688527  34.9688527
 NucSpn=           0           0           0           0           3           3           3           3           3           3
 AtZEff=  -0.0000000  -0.0000000  -0.0000000  -0.0000000  -0.0000000  -0.0000000  -0.0000000  -0.0000000  -0.0000000  -0.0000000
 NQMom=    0.0000000   0.0000000   0.0000000   0.0000000  -8.1650000  -8.1650000  -8.1650000  -8.1650000  -8.1650000  -8.1650000
 NMagM=    0.0000000   0.0000000   0.0000000   0.0000000   0.8218740   0.8218740   0.8218740   0.8218740   0.8218740   0.8218740
 AtZNuc=   6.0000000   6.0000000   6.0000000   6.0000000  17.0000000  17.0000000  17.0000000  17.0000000  17.0000000  17.0000000

  Atom        91          92          93          94          95          96          97          98
 IAtWgt=          35          35          35          35          35          35          35          35
 AtmWgt=  34.9688527  34.9688527  34.9688527  34.9688527  34.9688527  34.9688527  34.9688527  34.9688527
 NucSpn=           3           3           3           3           3           3           3           3
 AtZEff=  -0.0000000  -0.0000000  -0.0000000  -0.0000000  -0.0000000  -0.0000000  -0.0000000  -0.0000000
 NQMom=   -8.1650000  -8.1650000  -8.1650000  -8.1650000  -8.1650000  -8.1650000  -8.1650000  -8.1650000
 NMagM=    0.8218740   0.8218740   0.8218740   0.8218740   0.8218740   0.8218740   0.8218740   0.8218740
 AtZNuc=  17.0000000  17.0000000  17.0000000  17.0000000  17.0000000  17.0000000  17.0000000  17.0000000
 Leave Link  101 at Tue Jun 28 03:41:55 2022, MaxMem=  1342177280 cpu:               6.7 elap:               0.3
 (Enter /home/mkliu/g16/l103.exe)

 GradGradGradGradGradGradGradGradGradGradGradGradGradGradGradGradGradGrad
 Berny optimization.
 Initialization pass.
                           ----------------------------
                           !    Initial Parameters    !
                           ! (Angstroms and Degrees)  !
 --------------------------                            --------------------------
 ! Name  Definition              Value          Derivative Info.                !
 --------------------------------------------------------------------------------
 ! R1    R(1,5)                  1.5187         estimate D2E/DX2                !
 ! R2    R(1,17)                 1.5012         estimate D2E/DX2                !
 ! R3    R(1,23)                 1.5081         estimate D2E/DX2                !
 ! R4    R(1,97)                 1.8104         estimate D2E/DX2                !
 ! R5    R(2,6)                  1.5007         estimate D2E/DX2                !
 ! R6    R(2,43)                 1.5179         estimate D2E/DX2                !
 ! R7    R(2,44)                 1.5075         estimate D2E/DX2                !
 ! R8    R(2,91)                 1.8001         estimate D2E/DX2                !
 ! R9    R(3,7)                  1.5164         estimate D2E/DX2                !
 ! R10   R(3,18)                 1.3719         estimate D2E/DX2                !
 ! R11   R(3,26)                 1.4251         estimate D2E/DX2                !
 ! R12   R(4,8)                  1.4988         estimate D2E/DX2                !
 ! R13   R(4,45)                 1.5077         estimate D2E/DX2                !
 ! R14   R(4,46)                 1.5084         estimate D2E/DX2                !
 ! R15   R(4,85)                 1.8024         estimate D2E/DX2                !
 ! R16   R(5,9)                  1.427          estimate D2E/DX2                !
 ! R17   R(5,29)                 1.3925         estimate D2E/DX2                !
 ! R18   R(6,10)                 1.363          estimate D2E/DX2                !
 ! R19   R(6,15)                 1.4252         estimate D2E/DX2                !
 ! R20   R(7,12)                 1.5081         estimate D2E/DX2                !
 ! R21   R(7,30)                 1.5027         estimate D2E/DX2                !
 ! R22   R(7,95)                 1.8003         estimate D2E/DX2                !
 ! R23   R(8,11)                 1.3364         estimate D2E/DX2                !
 ! R24   R(8,16)                 1.5039         estimate D2E/DX2                !
 ! R25   R(9,13)                 1.4148         estimate D2E/DX2                !
 ! R26   R(9,35)                 1.4298         estimate D2E/DX2                !
 ! R27   R(10,49)                1.5056         estimate D2E/DX2                !
 ! R28   R(10,53)                1.4226         estimate D2E/DX2                !
 ! R29   R(11,50)                1.5082         estimate D2E/DX2                !
 ! R30   R(11,54)                1.4448         estimate D2E/DX2                !
 ! R31   R(12,14)                1.3835         estimate D2E/DX2                !
 ! R32   R(12,36)                1.4047         estimate D2E/DX2                !
 ! R33   R(13,15)                1.4438         estimate D2E/DX2                !
 ! R34   R(13,43)                1.3878         estimate D2E/DX2                !
 ! R35   R(14,16)                1.5056         estimate D2E/DX2                !
 ! R36   R(14,46)                1.3875         estimate D2E/DX2                !
 ! R37   R(15,17)                1.3698         estimate D2E/DX2                !
 ! R38   R(16,18)                1.5032         estimate D2E/DX2                !
 ! R39   R(16,96)                1.8146         estimate D2E/DX2                !
 ! R40   R(17,19)                1.4135         estimate D2E/DX2                !
 ! R41   R(18,20)                1.438          estimate D2E/DX2                !
 ! R42   R(19,21)                1.4261         estimate D2E/DX2                !
 ! R43   R(19,53)                1.3908         estimate D2E/DX2                !
 ! R44   R(20,22)                1.4098         estimate D2E/DX2                !
 ! R45   R(20,54)                1.4095         estimate D2E/DX2                !
 ! R46   R(21,23)                1.4282         estimate D2E/DX2                !
 ! R47   R(21,57)                1.4073         estimate D2E/DX2                !
 ! R48   R(22,24)                1.4233         estimate D2E/DX2                !
 ! R49   R(22,58)                1.4231         estimate D2E/DX2                !
 ! R50   R(23,25)                1.3545         estimate D2E/DX2                !
 ! R51   R(24,26)                1.3732         estimate D2E/DX2                !
 ! R52   R(24,62)                1.4335         estimate D2E/DX2                !
 ! R53   R(25,27)                1.4993         estimate D2E/DX2                !
 ! R54   R(25,61)                1.4192         estimate D2E/DX2                !
 ! R55   R(26,28)                1.4353         estimate D2E/DX2                !
 ! R56   R(27,29)                1.5076         estimate D2E/DX2                !
 ! R57   R(27,65)                1.5178         estimate D2E/DX2                !
 ! R58   R(27,92)                1.8016         estimate D2E/DX2                !
 ! R59   R(28,30)                1.4039         estimate D2E/DX2                !
 ! R60   R(28,66)                1.4157         estimate D2E/DX2                !
 ! R61   R(29,31)                1.3934         estimate D2E/DX2                !
 ! R62   R(30,32)                1.3667         estimate D2E/DX2                !
 ! R63   R(31,33)                1.3882         estimate D2E/DX2                !
 ! R64   R(31,69)                1.5185         estimate D2E/DX2                !
 ! R65   R(32,34)                1.5066         estimate D2E/DX2                !
 ! R66   R(32,70)                1.4062         estimate D2E/DX2                !
 ! R67   R(33,35)                1.4104         estimate D2E/DX2                !
 ! R68   R(33,73)                1.4454         estimate D2E/DX2                !
 ! R69   R(34,36)                1.5196         estimate D2E/DX2                !
 ! R70   R(34,74)                1.5005         estimate D2E/DX2                !
 ! R71   R(34,88)                1.8001         estimate D2E/DX2                !
 ! R72   R(35,37)                1.427          estimate D2E/DX2                !
 ! R73   R(36,38)                1.4032         estimate D2E/DX2                !
 ! R74   R(37,39)                1.387          estimate D2E/DX2                !
 ! R75   R(37,77)                1.5145         estimate D2E/DX2                !
 ! R76   R(38,42)                1.4005         estimate D2E/DX2                !
 ! R77   R(38,78)                1.5164         estimate D2E/DX2                !
 ! R78   R(39,43)                1.3962         estimate D2E/DX2                !
 ! R79   R(39,79)                1.5038         estimate D2E/DX2                !
 ! R80   R(40,41)                1.387          estimate D2E/DX2                !
 ! R81   R(40,44)                1.3854         estimate D2E/DX2                !
 ! R82   R(40,79)                1.5067         estimate D2E/DX2                !
 ! R83   R(41,45)                1.385          estimate D2E/DX2                !
 ! R84   R(41,80)                1.5062         estimate D2E/DX2                !
 ! R85   R(42,46)                1.3833         estimate D2E/DX2                !
 ! R86   R(42,80)                1.5033         estimate D2E/DX2                !
 ! R87   R(44,47)                1.4019         estimate D2E/DX2                !
 ! R88   R(45,48)                1.3992         estimate D2E/DX2                !
 ! R89   R(47,48)                1.4054         estimate D2E/DX2                !
 ! R90   R(47,49)                1.5211         estimate D2E/DX2                !
 ! R91   R(48,50)                1.5157         estimate D2E/DX2                !
 ! R92   R(49,51)                1.5063         estimate D2E/DX2                !
 ! R93   R(49,90)                1.7997         estimate D2E/DX2                !
 ! R94   R(50,52)                1.498          estimate D2E/DX2                !
 ! R95   R(50,89)                1.7996         estimate D2E/DX2                !
 ! R96   R(51,52)                1.3506         estimate D2E/DX2                !
 ! R97   R(51,55)                1.4292         estimate D2E/DX2                !
 ! R98   R(52,56)                1.4252         estimate D2E/DX2                !
 ! R99   R(53,55)                1.4217         estimate D2E/DX2                !
 ! R100  R(54,56)                1.4088         estimate D2E/DX2                !
 ! R101  R(55,83)                1.406          estimate D2E/DX2                !
 ! R102  R(56,84)                1.4245         estimate D2E/DX2                !
 ! R103  R(57,59)                1.4362         estimate D2E/DX2                !
 ! R104  R(57,83)                1.4495         estimate D2E/DX2                !
 ! R105  R(58,60)                1.438          estimate D2E/DX2                !
 ! R106  R(58,84)                1.3984         estimate D2E/DX2                !
 ! R107  R(59,60)                1.4061         estimate D2E/DX2                !
 ! R108  R(59,61)                1.4149         estimate D2E/DX2                !
 ! R109  R(60,62)                1.4157         estimate D2E/DX2                !
 ! R110  R(61,63)                1.4215         estimate D2E/DX2                !
 ! R111  R(62,64)                1.4133         estimate D2E/DX2                !
 ! R112  R(63,64)                1.4047         estimate D2E/DX2                !
 ! R113  R(63,65)                1.4219         estimate D2E/DX2                !
 ! R114  R(64,66)                1.4369         estimate D2E/DX2                !
 ! R115  R(65,67)                1.3658         estimate D2E/DX2                !
 ! R116  R(66,68)                1.4332         estimate D2E/DX2                !
 ! R117  R(67,68)                1.4437         estimate D2E/DX2                !
 ! R118  R(67,69)                1.5075         estimate D2E/DX2                !
 ! R119  R(68,70)                1.4112         estimate D2E/DX2                !
 ! R120  R(69,71)                1.5002         estimate D2E/DX2                !
 ! R121  R(69,93)                1.81           estimate D2E/DX2                !
 ! R122  R(70,72)                1.4475         estimate D2E/DX2                !
 ! R123  R(71,72)                1.3749         estimate D2E/DX2                !
 ! R124  R(71,73)                1.4053         estimate D2E/DX2                !
 ! R125  R(72,74)                1.4151         estimate D2E/DX2                !
 ! R126  R(73,75)                1.3777         estimate D2E/DX2                !
 ! R127  R(74,76)                1.3728         estimate D2E/DX2                !
 ! R128  R(75,76)                1.4023         estimate D2E/DX2                !
 ! R129  R(75,77)                1.4924         estimate D2E/DX2                !
 ! R130  R(76,78)                1.496          estimate D2E/DX2                !
 ! R131  R(77,81)                1.5042         estimate D2E/DX2                !
 ! R132  R(77,98)                1.8164         estimate D2E/DX2                !
 ! R133  R(78,81)                1.5093         estimate D2E/DX2                !
 ! R134  R(78,87)                1.8034         estimate D2E/DX2                !
 ! R135  R(79,82)                1.5001         estimate D2E/DX2                !
 ! R136  R(79,94)                1.8014         estimate D2E/DX2                !
 ! R137  R(80,82)                1.4986         estimate D2E/DX2                !
 ! R138  R(80,86)                1.8            estimate D2E/DX2                !
 ! R139  R(81,82)                1.3235         estimate D2E/DX2                !
 ! R140  R(83,84)                1.4384         estimate D2E/DX2                !
 ! A1    A(5,1,17)             112.7244         estimate D2E/DX2                !
 ! A2    A(5,1,23)             109.6564         estimate D2E/DX2                !
 ! A3    A(5,1,97)             108.1838         estimate D2E/DX2                !
 ! A4    A(17,1,23)            101.0771         estimate D2E/DX2                !
 ! A5    A(17,1,97)            112.1241         estimate D2E/DX2                !
 ! A6    A(23,1,97)            113.0211         estimate D2E/DX2                !
 ! A7    A(6,2,43)             101.5133         estimate D2E/DX2                !
 ! A8    A(6,2,44)             110.5652         estimate D2E/DX2                !
 ! A9    A(6,2,91)             113.1107         estimate D2E/DX2                !
 ! A10   A(43,2,44)            108.1831         estimate D2E/DX2                !
 ! A11   A(43,2,91)            113.0977         estimate D2E/DX2                !
 ! A12   A(44,2,91)            110.0251         estimate D2E/DX2                !
 ! A13   A(7,3,18)             125.3287         estimate D2E/DX2                !
 ! A14   A(7,3,26)             108.3544         estimate D2E/DX2                !
 ! A15   A(18,3,26)            120.4102         estimate D2E/DX2                !
 ! A16   A(8,4,45)             111.6994         estimate D2E/DX2                !
 ! A17   A(8,4,46)             100.4747         estimate D2E/DX2                !
 ! A18   A(8,4,85)             113.7014         estimate D2E/DX2                !
 ! A19   A(45,4,46)            107.7526         estimate D2E/DX2                !
 ! A20   A(45,4,85)            110.3009         estimate D2E/DX2                !
 ! A21   A(46,4,85)            112.4398         estimate D2E/DX2                !
 ! A22   A(1,5,9)              120.0424         estimate D2E/DX2                !
 ! A23   A(1,5,29)             118.9941         estimate D2E/DX2                !
 ! A24   A(9,5,29)             119.7173         estimate D2E/DX2                !
 ! A25   A(2,6,10)             122.259          estimate D2E/DX2                !
 ! A26   A(2,6,15)             109.7256         estimate D2E/DX2                !
 ! A27   A(10,6,15)            119.9146         estimate D2E/DX2                !
 ! A28   A(3,7,12)             109.9331         estimate D2E/DX2                !
 ! A29   A(3,7,30)             101.6527         estimate D2E/DX2                !
 ! A30   A(3,7,95)             112.5193         estimate D2E/DX2                !
 ! A31   A(12,7,30)            108.5903         estimate D2E/DX2                !
 ! A32   A(12,7,95)            110.0752         estimate D2E/DX2                !
 ! A33   A(30,7,95)            113.7348         estimate D2E/DX2                !
 ! A34   A(4,8,11)             121.0524         estimate D2E/DX2                !
 ! A35   A(4,8,16)             111.5766         estimate D2E/DX2                !
 ! A36   A(11,8,16)            122.1867         estimate D2E/DX2                !
 ! A37   A(5,9,13)             119.8139         estimate D2E/DX2                !
 ! A38   A(5,9,35)             120.88           estimate D2E/DX2                !
 ! A39   A(13,9,35)            116.0929         estimate D2E/DX2                !
 ! A40   A(6,10,49)            123.413          estimate D2E/DX2                !
 ! A41   A(6,10,53)            118.4761         estimate D2E/DX2                !
 ! A42   A(49,10,53)           109.8657         estimate D2E/DX2                !
 ! A43   A(8,11,50)            123.537          estimate D2E/DX2                !
 ! A44   A(8,11,54)            121.0578         estimate D2E/DX2                !
 ! A45   A(50,11,54)           110.1615         estimate D2E/DX2                !
 ! A46   A(7,12,14)            116.5301         estimate D2E/DX2                !
 ! A47   A(7,12,36)            123.3328         estimate D2E/DX2                !
 ! A48   A(14,12,36)           119.0659         estimate D2E/DX2                !
 ! A49   A(9,13,15)            121.4366         estimate D2E/DX2                !
 ! A50   A(9,13,43)            121.3469         estimate D2E/DX2                !
 ! A51   A(15,13,43)           109.0285         estimate D2E/DX2                !
 ! A52   A(12,14,16)           125.6786         estimate D2E/DX2                !
 ! A53   A(12,14,46)           120.9756         estimate D2E/DX2                !
 ! A54   A(16,14,46)           111.1554         estimate D2E/DX2                !
 ! A55   A(6,15,13)            107.9119         estimate D2E/DX2                !
 ! A56   A(6,15,17)            122.1498         estimate D2E/DX2                !
 ! A57   A(13,15,17)           119.5599         estimate D2E/DX2                !
 ! A58   A(8,16,14)            100.4972         estimate D2E/DX2                !
 ! A59   A(8,16,18)            114.3725         estimate D2E/DX2                !
 ! A60   A(8,16,96)            111.1359         estimate D2E/DX2                !
 ! A61   A(14,16,18)           109.6449         estimate D2E/DX2                !
 ! A62   A(14,16,96)           110.9109         estimate D2E/DX2                !
 ! A63   A(18,16,96)           109.9479         estimate D2E/DX2                !
 ! A64   A(1,17,15)            122.557          estimate D2E/DX2                !
 ! A65   A(1,17,19)            110.5891         estimate D2E/DX2                !
 ! A66   A(15,17,19)           117.6614         estimate D2E/DX2                !
 ! A67   A(3,18,16)            117.1468         estimate D2E/DX2                !
 ! A68   A(3,18,20)            119.8109         estimate D2E/DX2                !
 ! A69   A(16,18,20)           119.8503         estimate D2E/DX2                !
 ! A70   A(17,19,21)           109.2638         estimate D2E/DX2                !
 ! A71   A(17,19,53)           120.2423         estimate D2E/DX2                !
 ! A72   A(21,19,53)           119.7565         estimate D2E/DX2                !
 ! A73   A(18,20,22)           119.1511         estimate D2E/DX2                !
 ! A74   A(18,20,54)           119.6134         estimate D2E/DX2                !
 ! A75   A(22,20,54)           115.2246         estimate D2E/DX2                !
 ! A76   A(19,21,23)           107.3347         estimate D2E/DX2                !
 ! A77   A(19,21,57)           121.6819         estimate D2E/DX2                !
 ! A78   A(23,21,57)           122.7508         estimate D2E/DX2                !
 ! A79   A(20,22,24)           120.0437         estimate D2E/DX2                !
 ! A80   A(20,22,58)           122.3399         estimate D2E/DX2                !
 ! A81   A(24,22,58)           106.9773         estimate D2E/DX2                !
 ! A82   A(1,23,21)            111.0879         estimate D2E/DX2                !
 ! A83   A(1,23,25)            122.0544         estimate D2E/DX2                !
 ! A84   A(21,23,25)           120.0646         estimate D2E/DX2                !
 ! A85   A(22,24,26)           119.6824         estimate D2E/DX2                !
 ! A86   A(22,24,62)           109.3398         estimate D2E/DX2                !
 ! A87   A(26,24,62)           119.7218         estimate D2E/DX2                !
 ! A88   A(23,25,27)           122.9041         estimate D2E/DX2                !
 ! A89   A(23,25,61)           119.1051         estimate D2E/DX2                !
 ! A90   A(27,25,61)           111.0302         estimate D2E/DX2                !
 ! A91   A(3,26,24)            120.7565         estimate D2E/DX2                !
 ! A92   A(3,26,28)            109.6936         estimate D2E/DX2                !
 ! A93   A(24,26,28)           120.2796         estimate D2E/DX2                !
 ! A94   A(25,27,29)           109.7737         estimate D2E/DX2                !
 ! A95   A(25,27,65)           101.1784         estimate D2E/DX2                !
 ! A96   A(25,27,92)           113.2305         estimate D2E/DX2                !
 ! A97   A(29,27,65)           109.6951         estimate D2E/DX2                !
 ! A98   A(29,27,92)           110.5005         estimate D2E/DX2                !
 ! A99   A(65,27,92)           112.095          estimate D2E/DX2                !
 ! A100  A(26,28,30)           107.2944         estimate D2E/DX2                !
 ! A101  A(26,28,66)           121.3457         estimate D2E/DX2                !
 ! A102  A(30,28,66)           122.642          estimate D2E/DX2                !
 ! A103  A(5,29,27)            123.4234         estimate D2E/DX2                !
 ! A104  A(5,29,31)            119.055          estimate D2E/DX2                !
 ! A105  A(27,29,31)           115.8711         estimate D2E/DX2                !
 ! A106  A(7,30,28)            111.6717         estimate D2E/DX2                !
 ! A107  A(7,30,32)            122.3356         estimate D2E/DX2                !
 ! A108  A(28,30,32)           119.2299         estimate D2E/DX2                !
 ! A109  A(29,31,33)           121.3065         estimate D2E/DX2                !
 ! A110  A(29,31,69)           124.3474         estimate D2E/DX2                !
 ! A111  A(33,31,69)           110.4863         estimate D2E/DX2                !
 ! A112  A(30,32,34)           122.1044         estimate D2E/DX2                !
 ! A113  A(30,32,70)           119.5581         estimate D2E/DX2                !
 ! A114  A(34,32,70)           111.8923         estimate D2E/DX2                !
 ! A115  A(31,33,35)           121.4185         estimate D2E/DX2                !
 ! A116  A(31,33,73)           108.8091         estimate D2E/DX2                !
 ! A117  A(35,33,73)           121.2565         estimate D2E/DX2                !
 ! A118  A(32,34,36)           108.9292         estimate D2E/DX2                !
 ! A119  A(32,34,74)           101.0832         estimate D2E/DX2                !
 ! A120  A(32,34,88)           113.8356         estimate D2E/DX2                !
 ! A121  A(36,34,74)           110.634          estimate D2E/DX2                !
 ! A122  A(36,34,88)           108.8235         estimate D2E/DX2                !
 ! A123  A(74,34,88)           113.3137         estimate D2E/DX2                !
 ! A124  A(9,35,33)            116.2638         estimate D2E/DX2                !
 ! A125  A(9,35,37)            121.0931         estimate D2E/DX2                !
 ! A126  A(33,35,37)           119.3885         estimate D2E/DX2                !
 ! A127  A(12,36,34)           118.8964         estimate D2E/DX2                !
 ! A128  A(12,36,38)           119.8847         estimate D2E/DX2                !
 ! A129  A(34,36,38)           120.6576         estimate D2E/DX2                !
 ! A130  A(35,37,39)           119.6279         estimate D2E/DX2                !
 ! A131  A(35,37,77)           120.5445         estimate D2E/DX2                !
 ! A132  A(39,37,77)           118.4664         estimate D2E/DX2                !
 ! A133  A(36,38,42)           120.0764         estimate D2E/DX2                !
 ! A134  A(36,38,78)           121.4709         estimate D2E/DX2                !
 ! A135  A(42,38,78)           117.8428         estimate D2E/DX2                !
 ! A136  A(37,39,43)           119.2967         estimate D2E/DX2                !
 ! A137  A(37,39,79)           122.5347         estimate D2E/DX2                !
 ! A138  A(43,39,79)           116.3206         estimate D2E/DX2                !
 ! A139  A(41,40,44)           121.1148         estimate D2E/DX2                !
 ! A140  A(41,40,79)           111.3349         estimate D2E/DX2                !
 ! A141  A(44,40,79)           125.1796         estimate D2E/DX2                !
 ! A142  A(40,41,45)           120.8502         estimate D2E/DX2                !
 ! A143  A(40,41,80)           111.3135         estimate D2E/DX2                !
 ! A144  A(45,41,80)           125.3087         estimate D2E/DX2                !
 ! A145  A(38,42,46)           119.2798         estimate D2E/DX2                !
 ! A146  A(38,42,80)           123.0194         estimate D2E/DX2                !
 ! A147  A(46,42,80)           116.2971         estimate D2E/DX2                !
 ! A148  A(2,43,13)            110.5661         estimate D2E/DX2                !
 ! A149  A(2,43,39)            124.2255         estimate D2E/DX2                !
 ! A150  A(13,43,39)           121.2164         estimate D2E/DX2                !
 ! A151  A(2,44,40)            116.0551         estimate D2E/DX2                !
 ! A152  A(2,44,47)            123.9459         estimate D2E/DX2                !
 ! A153  A(40,44,47)           118.8701         estimate D2E/DX2                !
 ! A154  A(4,45,41)            116.2755         estimate D2E/DX2                !
 ! A155  A(4,45,48)            123.5943         estimate D2E/DX2                !
 ! A156  A(41,45,48)           118.7792         estimate D2E/DX2                !
 ! A157  A(4,46,14)            111.4661         estimate D2E/DX2                !
 ! A158  A(4,46,42)            125.4269         estimate D2E/DX2                !
 ! A159  A(14,46,42)           120.6588         estimate D2E/DX2                !
 ! A160  A(44,47,48)           119.839          estimate D2E/DX2                !
 ! A161  A(44,47,49)           119.3472         estimate D2E/DX2                !
 ! A162  A(48,47,49)           120.2293         estimate D2E/DX2                !
 ! A163  A(45,48,47)           120.5022         estimate D2E/DX2                !
 ! A164  A(45,48,50)           117.9587         estimate D2E/DX2                !
 ! A165  A(47,48,50)           120.7867         estimate D2E/DX2                !
 ! A166  A(10,49,47)           110.4746         estimate D2E/DX2                !
 ! A167  A(10,49,51)           101.3439         estimate D2E/DX2                !
 ! A168  A(10,49,90)           113.421          estimate D2E/DX2                !
 ! A169  A(47,49,51)           108.9257         estimate D2E/DX2                !
 ! A170  A(47,49,90)           108.6993         estimate D2E/DX2                !
 ! A171  A(51,49,90)           113.7682         estimate D2E/DX2                !
 ! A172  A(11,50,48)           110.4581         estimate D2E/DX2                !
 ! A173  A(11,50,52)           101.2074         estimate D2E/DX2                !
 ! A174  A(11,50,89)           112.3618         estimate D2E/DX2                !
 ! A175  A(48,50,52)           109.3877         estimate D2E/DX2                !
 ! A176  A(48,50,89)           109.3048         estimate D2E/DX2                !
 ! A177  A(52,50,89)           113.8873         estimate D2E/DX2                !
 ! A178  A(49,51,52)           121.7779         estimate D2E/DX2                !
 ! A179  A(49,51,55)           111.2749         estimate D2E/DX2                !
 ! A180  A(52,51,55)           120.1696         estimate D2E/DX2                !
 ! A181  A(50,52,51)           122.4398         estimate D2E/DX2                !
 ! A182  A(50,52,56)           111.1754         estimate D2E/DX2                !
 ! A183  A(51,52,56)           119.5836         estimate D2E/DX2                !
 ! A184  A(10,53,19)           121.0398         estimate D2E/DX2                !
 ! A185  A(10,53,55)           109.7519         estimate D2E/DX2                !
 ! A186  A(19,53,55)           119.2613         estimate D2E/DX2                !
 ! A187  A(11,54,20)           121.0589         estimate D2E/DX2                !
 ! A188  A(11,54,56)           108.2573         estimate D2E/DX2                !
 ! A189  A(20,54,56)           121.8514         estimate D2E/DX2                !
 ! A190  A(51,55,53)           107.1974         estimate D2E/DX2                !
 ! A191  A(51,55,83)           122.7084         estimate D2E/DX2                !
 ! A192  A(53,55,83)           122.1396         estimate D2E/DX2                !
 ! A193  A(52,56,54)           108.8196         estimate D2E/DX2                !
 ! A194  A(52,56,84)           121.0619         estimate D2E/DX2                !
 ! A195  A(54,56,84)           122.3467         estimate D2E/DX2                !
 ! A196  A(21,57,59)           116.4688         estimate D2E/DX2                !
 ! A197  A(21,57,83)           118.5518         estimate D2E/DX2                !
 ! A198  A(59,57,83)           119.5714         estimate D2E/DX2                !
 ! A199  A(22,58,60)           108.2456         estimate D2E/DX2                !
 ! A200  A(22,58,84)           121.7817         estimate D2E/DX2                !
 ! A201  A(60,58,84)           120.8129         estimate D2E/DX2                !
 ! A202  A(57,59,60)           119.5455         estimate D2E/DX2                !
 ! A203  A(57,59,61)           119.3775         estimate D2E/DX2                !
 ! A204  A(60,59,61)           115.3834         estimate D2E/DX2                !
 ! A205  A(58,60,59)           120.5925         estimate D2E/DX2                !
 ! A206  A(58,60,62)           108.4072         estimate D2E/DX2                !
 ! A207  A(59,60,62)           122.2239         estimate D2E/DX2                !
 ! A208  A(25,61,59)           121.8857         estimate D2E/DX2                !
 ! A209  A(25,61,63)           108.035          estimate D2E/DX2                !
 ! A210  A(59,61,63)           121.4353         estimate D2E/DX2                !
 ! A211  A(24,62,60)           106.9268         estimate D2E/DX2                !
 ! A212  A(24,62,64)           120.3022         estimate D2E/DX2                !
 ! A213  A(60,62,64)           121.6792         estimate D2E/DX2                !
 ! A214  A(61,63,64)           122.1915         estimate D2E/DX2                !
 ! A215  A(61,63,65)           109.2583         estimate D2E/DX2                !
 ! A216  A(64,63,65)           121.4905         estimate D2E/DX2                !
 ! A217  A(62,64,63)           115.375          estimate D2E/DX2                !
 ! A218  A(62,64,66)           120.5737         estimate D2E/DX2                !
 ! A219  A(63,64,66)           118.2698         estimate D2E/DX2                !
 ! A220  A(27,65,63)           109.3905         estimate D2E/DX2                !
 ! A221  A(27,65,67)           125.1727         estimate D2E/DX2                !
 ! A222  A(63,65,67)           121.1435         estimate D2E/DX2                !
 ! A223  A(28,66,64)           117.3658         estimate D2E/DX2                !
 ! A224  A(28,66,68)           117.889          estimate D2E/DX2                !
 ! A225  A(64,66,68)           119.776          estimate D2E/DX2                !
 ! A226  A(65,67,68)           119.5462         estimate D2E/DX2                !
 ! A227  A(65,67,69)           116.2846         estimate D2E/DX2                !
 ! A228  A(68,67,69)           122.014          estimate D2E/DX2                !
 ! A229  A(66,68,67)           119.7206         estimate D2E/DX2                !
 ! A230  A(66,68,70)           117.4316         estimate D2E/DX2                !
 ! A231  A(67,68,70)           118.74           estimate D2E/DX2                !
 ! A232  A(31,69,67)           109.7582         estimate D2E/DX2                !
 ! A233  A(31,69,71)           100.9614         estimate D2E/DX2                !
 ! A234  A(31,69,93)           111.7614         estimate D2E/DX2                !
 ! A235  A(67,69,71)           112.5362         estimate D2E/DX2                !
 ! A236  A(67,69,93)           109.8367         estimate D2E/DX2                !
 ! A237  A(71,69,93)           111.7363         estimate D2E/DX2                !
 ! A238  A(32,70,68)           122.6592         estimate D2E/DX2                !
 ! A239  A(32,70,72)           107.1796         estimate D2E/DX2                !
 ! A240  A(68,70,72)           120.9486         estimate D2E/DX2                !
 ! A241  A(69,71,72)           122.4263         estimate D2E/DX2                !
 ! A242  A(69,71,73)           110.475          estimate D2E/DX2                !
 ! A243  A(72,71,73)           118.2686         estimate D2E/DX2                !
 ! A244  A(70,72,71)           120.6335         estimate D2E/DX2                !
 ! A245  A(70,72,74)           108.7259         estimate D2E/DX2                !
 ! A246  A(71,72,74)           120.8034         estimate D2E/DX2                !
 ! A247  A(33,73,71)           107.9713         estimate D2E/DX2                !
 ! A248  A(33,73,75)           120.1421         estimate D2E/DX2                !
 ! A249  A(71,73,75)           121.2435         estimate D2E/DX2                !
 ! A250  A(34,74,72)           110.4836         estimate D2E/DX2                !
 ! A251  A(34,74,76)           122.242          estimate D2E/DX2                !
 ! A252  A(72,74,76)           119.7795         estimate D2E/DX2                !
 ! A253  A(73,75,76)           119.6835         estimate D2E/DX2                !
 ! A254  A(73,75,77)           121.4649         estimate D2E/DX2                !
 ! A255  A(76,75,77)           112.3251         estimate D2E/DX2                !
 ! A256  A(74,76,75)           119.8878         estimate D2E/DX2                !
 ! A257  A(74,76,78)           122.164          estimate D2E/DX2                !
 ! A258  A(75,76,78)           111.0202         estimate D2E/DX2                !
 ! A259  A(37,77,75)           113.0972         estimate D2E/DX2                !
 ! A260  A(37,77,81)           111.2632         estimate D2E/DX2                !
 ! A261  A(37,77,98)           108.2556         estimate D2E/DX2                !
 ! A262  A(75,77,81)           100.8571         estimate D2E/DX2                !
 ! A263  A(75,77,98)           111.7069         estimate D2E/DX2                !
 ! A264  A(81,77,98)           111.5976         estimate D2E/DX2                !
 ! A265  A(38,78,76)           110.5766         estimate D2E/DX2                !
 ! A266  A(38,78,81)           110.3422         estimate D2E/DX2                !
 ! A267  A(38,78,87)           108.8074         estimate D2E/DX2                !
 ! A268  A(76,78,81)           101.439          estimate D2E/DX2                !
 ! A269  A(76,78,87)           113.5386         estimate D2E/DX2                !
 ! A270  A(81,78,87)           111.9908         estimate D2E/DX2                !
 ! A271  A(39,79,40)           108.1622         estimate D2E/DX2                !
 ! A272  A(39,79,82)           111.8242         estimate D2E/DX2                !
 ! A273  A(39,79,94)           111.0299         estimate D2E/DX2                !
 ! A274  A(40,79,82)           100.5297         estimate D2E/DX2                !
 ! A275  A(40,79,94)           112.5382         estimate D2E/DX2                !
 ! A276  A(82,79,94)           112.2865         estimate D2E/DX2                !
 ! A277  A(41,80,42)           108.1085         estimate D2E/DX2                !
 ! A278  A(41,80,82)           100.5774         estimate D2E/DX2                !
 ! A279  A(41,80,86)           112.6534         estimate D2E/DX2                !
 ! A280  A(42,80,82)           111.2345         estimate D2E/DX2                !
 ! A281  A(42,80,86)           110.8181         estimate D2E/DX2                !
 ! A282  A(82,80,86)           112.9728         estimate D2E/DX2                !
 ! A283  A(77,81,78)           112.5497         estimate D2E/DX2                !
 ! A284  A(77,81,82)           122.1955         estimate D2E/DX2                !
 ! A285  A(78,81,82)           122.725          estimate D2E/DX2                !
 ! A286  A(79,82,80)           111.766          estimate D2E/DX2                !
 ! A287  A(79,82,81)           122.3696         estimate D2E/DX2                !
 ! A288  A(80,82,81)           121.9426         estimate D2E/DX2                !
 ! A289  A(55,83,57)           118.5261         estimate D2E/DX2                !
 ! A290  A(55,83,84)           116.5825         estimate D2E/DX2                !
 ! A291  A(57,83,84)           119.6578         estimate D2E/DX2                !
 ! A292  A(56,84,58)           115.2678         estimate D2E/DX2                !
 ! A293  A(56,84,83)           119.5389         estimate D2E/DX2                !
 ! A294  A(58,84,83)           119.5653         estimate D2E/DX2                !
 ! D1    D(17,1,5,9)            21.1665         estimate D2E/DX2                !
 ! D2    D(17,1,5,29)         -146.0485         estimate D2E/DX2                !
 ! D3    D(23,1,5,9)           132.9305         estimate D2E/DX2                !
 ! D4    D(23,1,5,29)          -34.2845         estimate D2E/DX2                !
 ! D5    D(97,1,5,9)          -103.3984         estimate D2E/DX2                !
 ! D6    D(97,1,5,29)           89.3866         estimate D2E/DX2                !
 ! D7    D(5,1,17,15)          -22.1782         estimate D2E/DX2                !
 ! D8    D(5,1,17,19)          123.739          estimate D2E/DX2                !
 ! D9    D(23,1,17,15)        -139.1534         estimate D2E/DX2                !
 ! D10   D(23,1,17,19)           6.7638         estimate D2E/DX2                !
 ! D11   D(97,1,17,15)         100.1988         estimate D2E/DX2                !
 ! D12   D(97,1,17,19)        -113.884          estimate D2E/DX2                !
 ! D13   D(5,1,23,21)         -121.879          estimate D2E/DX2                !
 ! D14   D(5,1,23,25)           29.1653         estimate D2E/DX2                !
 ! D15   D(17,1,23,21)          -2.675          estimate D2E/DX2                !
 ! D16   D(17,1,23,25)         148.3693         estimate D2E/DX2                !
 ! D17   D(97,1,23,21)         117.3355         estimate D2E/DX2                !
 ! D18   D(97,1,23,25)         -91.6202         estimate D2E/DX2                !
 ! D19   D(43,2,6,10)         -137.3208         estimate D2E/DX2                !
 ! D20   D(43,2,6,15)           11.1981         estimate D2E/DX2                !
 ! D21   D(44,2,6,10)          -22.7031         estimate D2E/DX2                !
 ! D22   D(44,2,6,15)          125.8158         estimate D2E/DX2                !
 ! D23   D(91,2,6,10)          101.1982         estimate D2E/DX2                !
 ! D24   D(91,2,6,15)         -110.283          estimate D2E/DX2                !
 ! D25   D(6,2,43,13)           -8.2425         estimate D2E/DX2                !
 ! D26   D(6,2,43,39)          149.3829         estimate D2E/DX2                !
 ! D27   D(44,2,43,13)        -124.6168         estimate D2E/DX2                !
 ! D28   D(44,2,43,39)          33.0086         estimate D2E/DX2                !
 ! D29   D(91,2,43,13)         113.2476         estimate D2E/DX2                !
 ! D30   D(91,2,43,39)         -89.127          estimate D2E/DX2                !
 ! D31   D(6,2,44,40)         -147.8827         estimate D2E/DX2                !
 ! D32   D(6,2,44,47)           19.7981         estimate D2E/DX2                !
 ! D33   D(43,2,44,40)         -37.5411         estimate D2E/DX2                !
 ! D34   D(43,2,44,47)         130.1397         estimate D2E/DX2                !
 ! D35   D(91,2,44,40)          86.4595         estimate D2E/DX2                !
 ! D36   D(91,2,44,47)        -105.8596         estimate D2E/DX2                !
 ! D37   D(18,3,7,12)           27.245          estimate D2E/DX2                !
 ! D38   D(18,3,7,30)          142.1452         estimate D2E/DX2                !
 ! D39   D(18,3,7,95)          -95.8222         estimate D2E/DX2                !
 ! D40   D(26,3,7,12)         -125.4847         estimate D2E/DX2                !
 ! D41   D(26,3,7,30)          -10.5845         estimate D2E/DX2                !
 ! D42   D(26,3,7,95)          111.4481         estimate D2E/DX2                !
 ! D43   D(7,3,18,16)            6.4448         estimate D2E/DX2                !
 ! D44   D(7,3,18,20)         -153.3477         estimate D2E/DX2                !
 ! D45   D(26,3,18,16)         156.1631         estimate D2E/DX2                !
 ! D46   D(26,3,18,20)          -3.6295         estimate D2E/DX2                !
 ! D47   D(7,3,26,24)          158.7085         estimate D2E/DX2                !
 ! D48   D(7,3,26,28)           11.9677         estimate D2E/DX2                !
 ! D49   D(18,3,26,24)           4.3948         estimate D2E/DX2                !
 ! D50   D(18,3,26,28)        -142.3459         estimate D2E/DX2                !
 ! D51   D(45,4,8,11)           19.7605         estimate D2E/DX2                !
 ! D52   D(45,4,8,16)         -135.2987         estimate D2E/DX2                !
 ! D53   D(46,4,8,11)          133.7956         estimate D2E/DX2                !
 ! D54   D(46,4,8,16)          -21.2636         estimate D2E/DX2                !
 ! D55   D(85,4,8,11)         -105.8662         estimate D2E/DX2                !
 ! D56   D(85,4,8,16)           99.0746         estimate D2E/DX2                !
 ! D57   D(8,4,45,41)          145.6647         estimate D2E/DX2                !
 ! D58   D(8,4,45,48)          -20.8704         estimate D2E/DX2                !
 ! D59   D(46,4,45,41)          36.2228         estimate D2E/DX2                !
 ! D60   D(46,4,45,48)        -130.3124         estimate D2E/DX2                !
 ! D61   D(85,4,45,41)         -86.8549         estimate D2E/DX2                !
 ! D62   D(85,4,45,48)         106.6099         estimate D2E/DX2                !
 ! D63   D(8,4,46,14)           11.9454         estimate D2E/DX2                !
 ! D64   D(8,4,46,42)         -150.26           estimate D2E/DX2                !
 ! D65   D(45,4,46,14)         128.9457         estimate D2E/DX2                !
 ! D66   D(45,4,46,42)         -33.2597         estimate D2E/DX2                !
 ! D67   D(85,4,46,14)        -109.2946         estimate D2E/DX2                !
 ! D68   D(85,4,46,42)          88.5            estimate D2E/DX2                !
 ! D69   D(1,5,9,13)           -10.2157         estimate D2E/DX2                !
 ! D70   D(1,5,9,35)          -169.1754         estimate D2E/DX2                !
 ! D71   D(29,5,9,13)          156.9066         estimate D2E/DX2                !
 ! D72   D(29,5,9,35)           -2.053          estimate D2E/DX2                !
 ! D73   D(1,5,29,27)           10.5719         estimate D2E/DX2                !
 ! D74   D(1,5,29,31)          175.3085         estimate D2E/DX2                !
 ! D75   D(9,5,29,27)         -156.6854         estimate D2E/DX2                !
 ! D76   D(9,5,29,31)            8.0512         estimate D2E/DX2                !
 ! D77   D(2,6,10,49)           -0.3877         estimate D2E/DX2                !
 ! D78   D(2,6,10,53)          144.7939         estimate D2E/DX2                !
 ! D79   D(15,6,10,49)        -145.8372         estimate D2E/DX2                !
 ! D80   D(15,6,10,53)          -0.6555         estimate D2E/DX2                !
 ! D81   D(2,6,15,13)          -10.431          estimate D2E/DX2                !
 ! D82   D(2,6,15,17)         -155.0687         estimate D2E/DX2                !
 ! D83   D(10,6,15,13)         138.9392         estimate D2E/DX2                !
 ! D84   D(10,6,15,17)          -5.6986         estimate D2E/DX2                !
 ! D85   D(3,7,12,14)          -31.4902         estimate D2E/DX2                !
 ! D86   D(3,7,12,36)          136.5393         estimate D2E/DX2                !
 ! D87   D(30,7,12,14)        -141.8953         estimate D2E/DX2                !
 ! D88   D(30,7,12,36)          26.1342         estimate D2E/DX2                !
 ! D89   D(95,7,12,14)          93.0014         estimate D2E/DX2                !
 ! D90   D(95,7,12,36)         -98.9691         estimate D2E/DX2                !
 ! D91   D(3,7,30,28)            5.8866         estimate D2E/DX2                !
 ! D92   D(3,7,30,32)         -144.9755         estimate D2E/DX2                !
 ! D93   D(12,7,30,28)         121.7753         estimate D2E/DX2                !
 ! D94   D(12,7,30,32)         -29.0868         estimate D2E/DX2                !
 ! D95   D(95,7,30,28)        -115.3025         estimate D2E/DX2                !
 ! D96   D(95,7,30,32)          93.8354         estimate D2E/DX2                !
 ! D97   D(4,8,11,50)            7.357          estimate D2E/DX2                !
 ! D98   D(4,8,11,54)         -144.5118         estimate D2E/DX2                !
 ! D99   D(16,8,11,50)         159.7541         estimate D2E/DX2                !
 ! D100  D(16,8,11,54)           7.8853         estimate D2E/DX2                !
 ! D101  D(4,8,16,14)           21.943          estimate D2E/DX2                !
 ! D102  D(4,8,16,18)          139.2854         estimate D2E/DX2                !
 ! D103  D(4,8,16,96)          -95.4959         estimate D2E/DX2                !
 ! D104  D(11,8,16,14)        -132.789          estimate D2E/DX2                !
 ! D105  D(11,8,16,18)         -15.4466         estimate D2E/DX2                !
 ! D106  D(11,8,16,96)         109.7721         estimate D2E/DX2                !
 ! D107  D(5,9,13,15)           -2.1779         estimate D2E/DX2                !
 ! D108  D(5,9,13,43)         -147.2416         estimate D2E/DX2                !
 ! D109  D(35,9,13,15)         157.7562         estimate D2E/DX2                !
 ! D110  D(35,9,13,43)          12.6926         estimate D2E/DX2                !
 ! D111  D(5,9,35,33)           -8.1617         estimate D2E/DX2                !
 ! D112  D(5,9,35,37)          151.3289         estimate D2E/DX2                !
 ! D113  D(13,9,35,33)        -167.8664         estimate D2E/DX2                !
 ! D114  D(13,9,35,37)          -8.3759         estimate D2E/DX2                !
 ! D115  D(6,10,49,47)          26.1877         estimate D2E/DX2                !
 ! D116  D(6,10,49,51)         141.5295         estimate D2E/DX2                !
 ! D117  D(6,10,49,90)         -96.1349         estimate D2E/DX2                !
 ! D118  D(53,10,49,47)       -121.5596         estimate D2E/DX2                !
 ! D119  D(53,10,49,51)         -6.2178         estimate D2E/DX2                !
 ! D120  D(53,10,49,90)        116.1178         estimate D2E/DX2                !
 ! D121  D(6,10,53,19)           3.8227         estimate D2E/DX2                !
 ! D122  D(6,10,53,55)        -141.4865         estimate D2E/DX2                !
 ! D123  D(49,10,53,19)        153.3742         estimate D2E/DX2                !
 ! D124  D(49,10,53,55)          8.0649         estimate D2E/DX2                !
 ! D125  D(8,11,50,48)         -32.8548         estimate D2E/DX2                !
 ! D126  D(8,11,50,52)        -148.647          estimate D2E/DX2                !
 ! D127  D(8,11,50,89)          89.4898         estimate D2E/DX2                !
 ! D128  D(54,11,50,48)        121.6607         estimate D2E/DX2                !
 ! D129  D(54,11,50,52)          5.8685         estimate D2E/DX2                !
 ! D130  D(54,11,50,89)       -115.9947         estimate D2E/DX2                !
 ! D131  D(8,11,54,20)           1.0461         estimate D2E/DX2                !
 ! D132  D(8,11,54,56)         148.9729         estimate D2E/DX2                !
 ! D133  D(50,11,54,20)       -154.2041         estimate D2E/DX2                !
 ! D134  D(50,11,54,56)         -6.2773         estimate D2E/DX2                !
 ! D135  D(7,12,14,16)           4.8085         estimate D2E/DX2                !
 ! D136  D(7,12,14,46)         166.4671         estimate D2E/DX2                !
 ! D137  D(36,12,14,16)       -163.7565         estimate D2E/DX2                !
 ! D138  D(36,12,14,46)         -2.0979         estimate D2E/DX2                !
 ! D139  D(7,12,36,34)           5.5234         estimate D2E/DX2                !
 ! D140  D(7,12,36,38)        -165.9438         estimate D2E/DX2                !
 ! D141  D(14,12,36,34)        173.2659         estimate D2E/DX2                !
 ! D142  D(14,12,36,38)          1.7987         estimate D2E/DX2                !
 ! D143  D(9,13,15,6)         -143.9276         estimate D2E/DX2                !
 ! D144  D(9,13,15,17)           1.7867         estimate D2E/DX2                !
 ! D145  D(43,13,15,6)           4.9181         estimate D2E/DX2                !
 ! D146  D(43,13,15,17)        150.6324         estimate D2E/DX2                !
 ! D147  D(9,13,43,2)          151.3227         estimate D2E/DX2                !
 ! D148  D(9,13,43,39)          -7.0835         estimate D2E/DX2                !
 ! D149  D(15,13,43,2)           2.4439         estimate D2E/DX2                !
 ! D150  D(15,13,43,39)       -155.9622         estimate D2E/DX2                !
 ! D151  D(12,14,16,8)         149.4546         estimate D2E/DX2                !
 ! D152  D(12,14,16,18)         28.6727         estimate D2E/DX2                !
 ! D153  D(12,14,16,96)        -92.9405         estimate D2E/DX2                !
 ! D154  D(46,14,16,8)         -13.7295         estimate D2E/DX2                !
 ! D155  D(46,14,16,18)       -134.5114         estimate D2E/DX2                !
 ! D156  D(46,14,16,96)        103.8754         estimate D2E/DX2                !
 ! D157  D(12,14,46,4)        -162.8869         estimate D2E/DX2                !
 ! D158  D(12,14,46,42)          0.2857         estimate D2E/DX2                !
 ! D159  D(16,14,46,4)           1.2057         estimate D2E/DX2                !
 ! D160  D(16,14,46,42)        164.3783         estimate D2E/DX2                !
 ! D161  D(6,15,17,1)          152.1882         estimate D2E/DX2                !
 ! D162  D(6,15,17,19)           8.508          estimate D2E/DX2                !
 ! D163  D(13,15,17,1)          11.4671         estimate D2E/DX2                !
 ! D164  D(13,15,17,19)       -132.2131         estimate D2E/DX2                !
 ! D165  D(8,16,18,3)         -144.9258         estimate D2E/DX2                !
 ! D166  D(8,16,18,20)          14.8584         estimate D2E/DX2                !
 ! D167  D(14,16,18,3)         -32.9574         estimate D2E/DX2                !
 ! D168  D(14,16,18,20)        126.8268         estimate D2E/DX2                !
 ! D169  D(96,16,18,3)          89.232          estimate D2E/DX2                !
 ! D170  D(96,16,18,20)       -110.9837         estimate D2E/DX2                !
 ! D171  D(1,17,19,21)          -8.6326         estimate D2E/DX2                !
 ! D172  D(1,17,19,53)        -152.9566         estimate D2E/DX2                !
 ! D173  D(15,17,19,21)        139.1402         estimate D2E/DX2                !
 ! D174  D(15,17,19,53)         -5.1839         estimate D2E/DX2                !
 ! D175  D(3,18,20,22)           0.511          estimate D2E/DX2                !
 ! D176  D(3,18,20,54)         151.951          estimate D2E/DX2                !
 ! D177  D(16,18,20,22)       -158.7332         estimate D2E/DX2                !
 ! D178  D(16,18,20,54)         -7.2932         estimate D2E/DX2                !
 ! D179  D(17,19,21,23)          6.6083         estimate D2E/DX2                !
 ! D180  D(17,19,21,57)       -142.5527         estimate D2E/DX2                !
 ! D181  D(53,19,21,23)        151.1329         estimate D2E/DX2                !
 ! D182  D(53,19,21,57)          1.9719         estimate D2E/DX2                !
 ! D183  D(17,19,53,10)         -0.8934         estimate D2E/DX2                !
 ! D184  D(17,19,53,55)        141.2268         estimate D2E/DX2                !
 ! D185  D(21,19,53,10)       -141.5352         estimate D2E/DX2                !
 ! D186  D(21,19,53,55)          0.585          estimate D2E/DX2                !
 ! D187  D(18,20,22,24)          1.9407         estimate D2E/DX2                !
 ! D188  D(18,20,22,58)        141.8862         estimate D2E/DX2                !
 ! D189  D(54,20,22,24)       -150.7082         estimate D2E/DX2                !
 ! D190  D(54,20,22,58)        -10.7627         estimate D2E/DX2                !
 ! D191  D(18,20,54,11)         -1.2278         estimate D2E/DX2                !
 ! D192  D(18,20,54,56)       -144.8102         estimate D2E/DX2                !
 ! D193  D(22,20,54,11)        151.2861         estimate D2E/DX2                !
 ! D194  D(22,20,54,56)          7.7037         estimate D2E/DX2                !
 ! D195  D(19,21,23,1)          -2.2048         estimate D2E/DX2                !
 ! D196  D(19,21,23,25)       -153.9033         estimate D2E/DX2                !
 ! D197  D(57,21,23,1)         146.5508         estimate D2E/DX2                !
 ! D198  D(57,21,23,25)         -5.1477         estimate D2E/DX2                !
 ! D199  D(19,21,57,59)        151.5518         estimate D2E/DX2                !
 ! D200  D(19,21,57,83)         -2.4162         estimate D2E/DX2                !
 ! D201  D(23,21,57,59)          7.1317         estimate D2E/DX2                !
 ! D202  D(23,21,57,83)       -146.8363         estimate D2E/DX2                !
 ! D203  D(20,22,24,26)         -1.2357         estimate D2E/DX2                !
 ! D204  D(20,22,24,62)        142.3598         estimate D2E/DX2                !
 ! D205  D(58,22,24,26)       -146.5919         estimate D2E/DX2                !
 ! D206  D(58,22,24,62)         -2.9964         estimate D2E/DX2                !
 ! D207  D(20,22,58,60)       -142.8487         estimate D2E/DX2                !
 ! D208  D(20,22,58,84)          4.1589         estimate D2E/DX2                !
 ! D209  D(24,22,58,60)          1.5292         estimate D2E/DX2                !
 ! D210  D(24,22,58,84)        148.5368         estimate D2E/DX2                !
 ! D211  D(1,23,25,27)           1.0882         estimate D2E/DX2                !
 ! D212  D(1,23,25,61)        -147.0589         estimate D2E/DX2                !
 ! D213  D(21,23,25,27)        149.6264         estimate D2E/DX2                !
 ! D214  D(21,23,25,61)          1.4792         estimate D2E/DX2                !
 ! D215  D(22,24,26,3)          -1.8951         estimate D2E/DX2                !
 ! D216  D(22,24,26,28)        141.3837         estimate D2E/DX2                !
 ! D217  D(62,24,26,3)        -141.7427         estimate D2E/DX2                !
 ! D218  D(62,24,26,28)          1.5361         estimate D2E/DX2                !
 ! D219  D(22,24,62,60)          3.3059         estimate D2E/DX2                !
 ! D220  D(22,24,62,64)       -141.1497         estimate D2E/DX2                !
 ! D221  D(26,24,62,60)        146.8849         estimate D2E/DX2                !
 ! D222  D(26,24,62,64)          2.4293         estimate D2E/DX2                !
 ! D223  D(23,25,27,29)        -25.821          estimate D2E/DX2                !
 ! D224  D(23,25,27,65)       -141.6763         estimate D2E/DX2                !
 ! D225  D(23,25,27,92)         98.1867         estimate D2E/DX2                !
 ! D226  D(61,25,27,29)        124.5747         estimate D2E/DX2                !
 ! D227  D(61,25,27,65)          8.7194         estimate D2E/DX2                !
 ! D228  D(61,25,27,92)       -111.4175         estimate D2E/DX2                !
 ! D229  D(23,25,61,59)         -0.3104         estimate D2E/DX2                !
 ! D230  D(23,25,61,63)        147.7395         estimate D2E/DX2                !
 ! D231  D(27,25,61,59)       -151.9706         estimate D2E/DX2                !
 ! D232  D(27,25,61,63)         -3.9208         estimate D2E/DX2                !
 ! D233  D(3,26,28,30)          -8.0711         estimate D2E/DX2                !
 ! D234  D(3,26,28,66)         140.263          estimate D2E/DX2                !
 ! D235  D(24,26,28,30)       -154.9956         estimate D2E/DX2                !
 ! D236  D(24,26,28,66)         -6.6615         estimate D2E/DX2                !
 ! D237  D(25,27,29,5)          19.6424         estimate D2E/DX2                !
 ! D238  D(25,27,29,31)       -145.5389         estimate D2E/DX2                !
 ! D239  D(65,27,29,5)         129.9769         estimate D2E/DX2                !
 ! D240  D(65,27,29,31)        -35.2045         estimate D2E/DX2                !
 ! D241  D(92,27,29,5)        -105.942          estimate D2E/DX2                !
 ! D242  D(92,27,29,31)         88.8766         estimate D2E/DX2                !
 ! D243  D(25,27,65,63)        -10.5296         estimate D2E/DX2                !
 ! D244  D(25,27,65,67)        146.2197         estimate D2E/DX2                !
 ! D245  D(29,27,65,63)       -126.443          estimate D2E/DX2                !
 ! D246  D(29,27,65,67)         30.3063         estimate D2E/DX2                !
 ! D247  D(92,27,65,63)        110.4111         estimate D2E/DX2                !
 ! D248  D(92,27,65,67)        -92.8397         estimate D2E/DX2                !
 ! D249  D(26,28,30,7)           0.9287         estimate D2E/DX2                !
 ! D250  D(26,28,30,32)        152.8011         estimate D2E/DX2                !
 ! D251  D(66,28,30,7)        -146.9009         estimate D2E/DX2                !
 ! D252  D(66,28,30,32)          4.9715         estimate D2E/DX2                !
 ! D253  D(26,28,66,64)          7.4424         estimate D2E/DX2                !
 ! D254  D(26,28,66,68)       -147.5965         estimate D2E/DX2                !
 ! D255  D(30,28,66,64)        150.9122         estimate D2E/DX2                !
 ! D256  D(30,28,66,68)         -4.1267         estimate D2E/DX2                !
 ! D257  D(5,29,31,33)          -3.6037         estimate D2E/DX2                !
 ! D258  D(5,29,31,69)        -159.3498         estimate D2E/DX2                !
 ! D259  D(27,29,31,33)        162.2621         estimate D2E/DX2                !
 ! D260  D(27,29,31,69)          6.516          estimate D2E/DX2                !
 ! D261  D(7,30,32,34)          -0.0281         estimate D2E/DX2                !
 ! D262  D(7,30,32,70)         149.4958         estimate D2E/DX2                !
 ! D263  D(28,30,32,34)       -148.795          estimate D2E/DX2                !
 ! D264  D(28,30,32,70)          0.7289         estimate D2E/DX2                !
 ! D265  D(29,31,33,35)         -7.2417         estimate D2E/DX2                !
 ! D266  D(29,31,33,73)       -155.494          estimate D2E/DX2                !
 ! D267  D(69,31,33,35)        151.532          estimate D2E/DX2                !
 ! D268  D(69,31,33,73)          3.2798         estimate D2E/DX2                !
 ! D269  D(29,31,69,67)         30.2093         estimate D2E/DX2                !
 ! D270  D(29,31,69,71)        149.1813         estimate D2E/DX2                !
 ! D271  D(29,31,69,93)        -91.9059         estimate D2E/DX2                !
 ! D272  D(33,31,69,67)       -127.7869         estimate D2E/DX2                !
 ! D273  D(33,31,69,71)         -8.815          estimate D2E/DX2                !
 ! D274  D(33,31,69,93)        110.0978         estimate D2E/DX2                !
 ! D275  D(30,32,34,36)         32.0716         estimate D2E/DX2                !
 ! D276  D(30,32,34,74)        148.6103         estimate D2E/DX2                !
 ! D277  D(30,32,34,88)        -89.5575         estimate D2E/DX2                !
[...]
 Alpha virt. eigenvalues --    1.50000   1.50814   1.51104   1.52071   1.52474
 Alpha virt. eigenvalues --    1.52683   1.53443   1.53541   1.54099   1.54411
 Alpha virt. eigenvalues --    1.54927   1.55266   1.55876   1.56793   1.56840
 Alpha virt. eigenvalues --    1.57831   1.58315   1.59134   1.59384   1.59854
 Alpha virt. eigenvalues --    1.60486   1.60651   1.61134   1.61326   1.61772
 Alpha virt. eigenvalues --    1.62290   1.62541   1.62903   1.62995   1.63344
 Alpha virt. eigenvalues --    1.63778   1.63940   1.64181   1.64281   1.64489
 Alpha virt. eigenvalues --    1.64625   1.65092   1.65257   1.65491   1.65801
 Alpha virt. eigenvalues --    1.65903   1.66218   1.66444   1.66504   1.67040
 Alpha virt. eigenvalues --    1.67245   1.67397   1.67608   1.67696   1.68020
 Alpha virt. eigenvalues --    1.68080   1.68251   1.68528   1.68932   1.69056
 Alpha virt. eigenvalues --    1.69167   1.69636   1.69830   1.70111   1.70197
 Alpha virt. eigenvalues --    1.70631   1.70827   1.71080   1.71438   1.71568
 Alpha virt. eigenvalues --    1.71766   1.72105   1.72280   1.72403   1.72623
 Alpha virt. eigenvalues --    1.72919   1.73053   1.73227   1.73558   1.73689
 Alpha virt. eigenvalues --    1.73981   1.74126   1.74407   1.74596   1.74936
 Alpha virt. eigenvalues --    1.75239   1.75385   1.75554   1.75955   1.76062
 Alpha virt. eigenvalues --    1.76314   1.76361   1.76721   1.77001   1.77110
 Alpha virt. eigenvalues --    1.77533   1.77705   1.77814   1.77987   1.78184
 Alpha virt. eigenvalues --    1.78294   1.78542   1.79006   1.79242   1.79904
 Alpha virt. eigenvalues --    1.79986   1.80103   1.80172   1.80458   1.80721
 Alpha virt. eigenvalues --    1.81116   1.81250   1.81711   1.81804   1.82221
 Alpha virt. eigenvalues --    1.82365   1.82666   1.83023   1.83061   1.83515
 Alpha virt. eigenvalues --    1.83845   1.84222   1.84575   1.84668   1.85077
 Alpha virt. eigenvalues --    1.85468   1.85867   1.86228   1.86587   1.86613
 Alpha virt. eigenvalues --    1.87520   1.87649   1.87697   1.87990   1.88064
 Alpha virt. eigenvalues --    1.88873   1.89020   1.89256   1.89739   1.89922
 Alpha virt. eigenvalues --    1.90336   1.90564   1.90877   1.91496   1.91808
 Alpha virt. eigenvalues --    1.92056   1.92589   1.93001   1.93155   1.93494
 Alpha virt. eigenvalues --    1.93749   1.94016   1.94251   1.94485   1.94749
 Alpha virt. eigenvalues --    1.94972   1.95658   1.95962   1.96532   1.97124
 Alpha virt. eigenvalues --    1.97383   1.97503   1.97720   1.98323   1.98396
 Alpha virt. eigenvalues --    1.98711   1.99300   1.99444   1.99850   1.99991
 Alpha virt. eigenvalues --    2.00555   2.00794   2.01150   2.01376   2.01897
 Alpha virt. eigenvalues --    2.01996   2.02412   2.02945   2.03621   2.03662
 Alpha virt. eigenvalues --    2.03804   2.04091   2.04389   2.04557   2.05013
 Alpha virt. eigenvalues --    2.05259   2.05622   2.06179   2.06433   2.06803
 Alpha virt. eigenvalues --    2.07179   2.07404   2.07964   2.08777   2.08990
 Alpha virt. eigenvalues --    2.09204   2.09307   2.09557   2.09976   2.10539
 Alpha virt. eigenvalues --    2.10874   2.11569   2.11941   2.12338   2.12630
 Alpha virt. eigenvalues --    2.13121   2.13529   2.13948   2.14145   2.14360
 Alpha virt. eigenvalues --    2.14849   2.15074   2.15317   2.16078   2.16283
 Alpha virt. eigenvalues --    2.16728   2.17420   2.17717   2.18078   2.18512
 Alpha virt. eigenvalues --    2.18636   2.19108   2.19512   2.19907   2.20135
 Alpha virt. eigenvalues --    2.20731   2.20891   2.21043   2.21477   2.22035
 Alpha virt. eigenvalues --    2.22521   2.22570   2.23354   2.23737   2.24091
 Alpha virt. eigenvalues --    2.24464   2.24776   2.25020   2.25793   2.26122
 Alpha virt. eigenvalues --    2.26223   2.26879   2.27092   2.27410   2.27944
 Alpha virt. eigenvalues --    2.28238   2.28686   2.29217   2.29506   2.29860
 Alpha virt. eigenvalues --    2.30644   2.30984   2.31254   2.31605   2.32082
 Alpha virt. eigenvalues --    2.32408   2.33106   2.33412   2.33960   2.34325
 Alpha virt. eigenvalues --    2.35612   2.35906   2.36043   2.36839   2.37224
 Alpha virt. eigenvalues --    2.37873   2.38118   2.38327   2.39405   2.39629
 Alpha virt. eigenvalues --    2.40547   2.40756   2.41316   2.41736   2.42224
 Alpha virt. eigenvalues --    2.42615   2.42927   2.43188   2.44031   2.44247
 Alpha virt. eigenvalues --    2.44810   2.45421   2.45884   2.46413   2.46955
 Alpha virt. eigenvalues --    2.47652   2.47860   2.48415   2.49344   2.49770
 Alpha virt. eigenvalues --    2.50281   2.50571   2.50759   2.51426   2.51488
 Alpha virt. eigenvalues --    2.52270   2.52467   2.52572   2.53624   2.54079
 Alpha virt. eigenvalues --    2.54327   2.54416   2.54599   2.55049   2.55276
 Alpha virt. eigenvalues --    2.55976   2.56318   2.56461   2.56947   2.57067
 Alpha virt. eigenvalues --    2.57382   2.57880   2.58042   2.58443   2.58898
 Alpha virt. eigenvalues --    2.58955   2.59798   2.60141   2.60510   2.60947
 Alpha virt. eigenvalues --    2.61002   2.61317   2.62068   2.62132   2.62469
 Alpha virt. eigenvalues --    2.62794   2.63053   2.63344   2.63714   2.63983
 Alpha virt. eigenvalues --    2.64426   2.64774   2.64996   2.65175   2.65502
 Alpha virt. eigenvalues --    2.65720   2.66412   2.66884   2.67536   2.67665
 Alpha virt. eigenvalues --    2.67795   2.68758   2.69061   2.69371   2.69779
 Alpha virt. eigenvalues --    2.70175   2.70543   2.70650   2.71348   2.71466
 Alpha virt. eigenvalues --    2.71934   2.72079   2.72244   2.72444   2.73280
 Alpha virt. eigenvalues --    2.73417   2.73680   2.73899   2.74242   2.74488
 Alpha virt. eigenvalues --    2.75042   2.75380   2.75711   2.76081   2.76410
 Alpha virt. eigenvalues --    2.76888   2.77343   2.77845   2.78618   2.78727
 Alpha virt. eigenvalues --    2.79326   2.79431   2.79900   2.80305   2.80893
 Alpha virt. eigenvalues --    2.81213   2.81563   2.82398   2.82576   2.83497
 Alpha virt. eigenvalues --    2.84013   2.84572   2.84820   2.85002   2.86342
 Alpha virt. eigenvalues --    2.86527   2.86651   2.87156   2.87376   2.88273
 Alpha virt. eigenvalues --    2.88529   2.88879   2.89343   2.89718   2.90085
 Alpha virt. eigenvalues --    2.91396   2.91665   2.91762   2.92359   2.93702
 Alpha virt. eigenvalues --    2.93938   2.94282   2.95340   2.96144   2.97112
 Alpha virt. eigenvalues --    2.98860   2.99125   2.99685   3.00537   3.00785
 Alpha virt. eigenvalues --    3.01984   3.03099   3.04353   3.05466   3.06283
 Alpha virt. eigenvalues --    3.08166   3.09922   3.10532   3.11563   3.12355
 Alpha virt. eigenvalues --    3.13924   3.14920   3.15718   3.15999   3.17510
 Alpha virt. eigenvalues --    3.20139   3.21299   3.22787   3.23793   3.24893
 Alpha virt. eigenvalues --    3.26393   3.27603   3.29289   3.30725   3.32833
 Alpha virt. eigenvalues --    3.33409   3.35785   3.38103   3.40722   3.41524
 Alpha virt. eigenvalues --    3.43022   3.44102   3.45968   3.49371   3.51304
 Alpha virt. eigenvalues --    3.55221   3.56459   4.00124   4.01176   4.02372
 Alpha virt. eigenvalues --    4.02769   4.03525   4.04297   4.04507   4.05397
 Alpha virt. eigenvalues --    4.06134   4.06685   4.07241   4.08248   4.08805
 Alpha virt. eigenvalues --    4.09393   4.09516   4.10272   4.11406   4.11800
 Alpha virt. eigenvalues --    4.12932   4.13367   4.13816   4.14745   4.16259
 Alpha virt. eigenvalues --    4.16751   4.17690   4.18222   4.18737   4.19417
 Alpha virt. eigenvalues --    4.20630   4.20840   4.20920   4.22249   4.23098
 Alpha virt. eigenvalues --    4.23347   4.24913   4.25206   4.25713   4.26435
 Alpha virt. eigenvalues --    4.26876   4.27218   4.27455   4.28013   4.28154
 Alpha virt. eigenvalues --    4.28303   4.28924   4.29601   4.30552   4.31291
 Alpha virt. eigenvalues --    4.32985   4.33122   4.34880   4.35006   4.35999
 Alpha virt. eigenvalues --    4.37691   4.38415   4.39149   4.40314   4.40899
 Alpha virt. eigenvalues --    4.41440   4.41602   4.42682   4.43671   4.44816
 Alpha virt. eigenvalues --    4.45403   4.46772   4.48343   4.49102   4.50377
 Alpha virt. eigenvalues --    4.51404   4.53050   4.54357   4.55169   4.56327
 Alpha virt. eigenvalues --    4.58606   4.59357   4.60724   4.62889   4.64169
 Alpha virt. eigenvalues --    4.65101   4.66107   4.68296   4.71130   4.76088
 Alpha virt. eigenvalues --    4.77164   4.79483   4.80400   4.82406   4.85693
 Alpha virt. eigenvalues --    4.87449   4.89828   4.92309   4.96545   5.01908
 Alpha virt. eigenvalues --    5.04447   5.04904   5.10222   5.15530   5.20797
          Condensed to atoms (all electrons):
 Mulliken charges:
               1
     1  C   -0.358631
     2  C   -0.384075
     3  C    0.081742
     4  C   -0.373520
     5  C    0.096153
     6  C    0.088050
     7  C   -0.385492
     8  C    0.154534
     9  C    0.057106
    10  C    0.096675
    11  C    0.111442
    12  C    0.147185
    13  C   -0.013585
    14  C    0.114758
    15  C    0.041169
    16  C   -0.360185
    17  C    0.066819
    18  C    0.124338
    19  C    0.019061
    20  C    0.078457
    21  C    0.002046
    22  C   -0.023481
    23  C    0.090046
    24  C   -0.027549
    25  C    0.091041
    26  C    0.037764
    27  C   -0.380293
    28  C    0.009186
    29  C    0.156091
    30  C    0.092829
    31  C    0.087534
    32  C    0.093771
    33  C   -0.018100
    34  C   -0.379836
    35  C    0.062935
    36  C    0.125408
    37  C    0.093074
    38  C    0.118152
    39  C    0.154186
    40  C    0.116625
    41  C    0.116242
    42  C    0.145910
    43  C    0.084469
    44  C    0.141812
    45  C    0.144394
    46  C    0.116946
    47  C    0.123525
    48  C    0.124946
    49  C   -0.379848
    50  C   -0.384520
    51  C    0.085983
    52  C    0.091649
    53  C    0.013263
    54  C   -0.015778
    55  C    0.005654
    56  C    0.012906
    57  C    0.039657
    58  C   -0.028869
    59  C    0.051217
    60  C   -0.026700
    61  C    0.007152
    62  C   -0.021205
    63  C    0.004091
    64  C    0.052707
    65  C    0.079701
    66  C    0.033012
    67  C    0.117795
    68  C    0.065798
    69  C   -0.368152
    70  C   -0.020118
    71  C    0.066286
    72  C    0.046325
    73  C    0.039460
    74  C    0.079651
    75  C    0.097159
    76  C    0.134687
    77  C   -0.352786
    78  C   -0.375606
    79  C   -0.377349
    80  C   -0.383355
    81  C    0.177008
    82  C    0.189935
    83  C    0.041579
    84  C    0.050044
    85  Cl   0.025472
    86  Cl   0.033535
    87  Cl   0.025249
    88  Cl   0.021011
    89  Cl   0.022657
    90  Cl   0.018618
    91  Cl   0.021845
    92  Cl   0.019974
    93  Cl   0.002534
    94  Cl   0.030790
    95  Cl   0.022715
    96  Cl   0.006947
    97  Cl  -0.003083
    98  Cl   0.001634
 Sum of Mulliken charges =  -0.00000
 Mulliken charges with hydrogens summed into heavy atoms:
               1
     1  C   -0.358631
     2  C   -0.384075
     3  C    0.081742
     4  C   -0.373520
     5  C    0.096153
     6  C    0.088050
     7  C   -0.385492
     8  C    0.154534
     9  C    0.057106
    10  C    0.096675
    11  C    0.111442
    12  C    0.147185
    13  C   -0.013585
    14  C    0.114758
    15  C    0.041169
    16  C   -0.360185
    17  C    0.066819
    18  C    0.124338
    19  C    0.019061
    20  C    0.078457
    21  C    0.002046
    22  C   -0.023481
    23  C    0.090046
    24  C   -0.027549
    25  C    0.091041
    26  C    0.037764
    27  C   -0.380293
    28  C    0.009186
    29  C    0.156091
    30  C    0.092829
    31  C    0.087534
    32  C    0.093771
    33  C   -0.018100
    34  C   -0.379836
    35  C    0.062935
    36  C    0.125408
    37  C    0.093074
    38  C    0.118152
    39  C    0.154186
    40  C    0.116625
    41  C    0.116242
    42  C    0.145910
    43  C    0.084469
    44  C    0.141812
    45  C    0.144394
    46  C    0.116946
    47  C    0.123525
    48  C    0.124946
    49  C   -0.379848
    50  C   -0.384520
    51  C    0.085983
    52  C    0.091649
    53  C    0.013263
    54  C   -0.015778
    55  C    0.005654
    56  C    0.012906
    57  C    0.039657
    58  C   -0.028869
    59  C    0.051217
    60  C   -0.026700
    61  C    0.007152
    62  C   -0.021205
    63  C    0.004091
    64  C    0.052707
    65  C    0.079701
    66  C    0.033012
    67  C    0.117795
    68  C    0.065798
    69  C   -0.368152
    70  C   -0.020118
    71  C    0.066286
    72  C    0.046325
    73  C    0.039460
    74  C    0.079651
    75  C    0.097159
    76  C    0.134687
    77  C   -0.352786
    78  C   -0.375606
    79  C   -0.377349
    80  C   -0.383355
    81  C    0.177008
    82  C    0.189935
    83  C    0.041579
    84  C    0.050044
    85  Cl   0.025472
    86  Cl   0.033535
    87  Cl   0.025249
    88  Cl   0.021011
    89  Cl   0.022657
    90  Cl   0.018618
    91  Cl   0.021845
    92  Cl   0.019974
    93  Cl   0.002534
    94  Cl   0.030790
    95  Cl   0.022715
    96  Cl   0.006947
    97  Cl  -0.003083
    98  Cl   0.001634
 Electronic spatial extent (au):  <R**2>=          66266.8524
 Charge=             -0.0000 electrons
 Dipole moment (field-independent basis, Debye):
    X=             -3.6174    Y=              0.1132    Z=             -5.2091  Tot=              6.3430
 Quadrupole moment (field-independent basis, Debye-Ang):
   XX=           -682.6891   YY=           -660.0290   ZZ=           -647.3298
   XY=             -1.7631   XZ=              2.5506   YZ=             -2.3396
 Traceless Quadrupole moment (field-independent basis, Debye-Ang):
   XX=            -19.3398   YY=              3.3203   ZZ=             16.0195
   XY=             -1.7631   XZ=              2.5506   YZ=             -2.3396
 Octapole moment (field-independent basis, Debye-Ang**2):
  XXX=            121.7866  YYY=            -20.0369  ZZZ=            -27.0540  XYY=            -20.5481
  XXY=             19.3862  XXZ=             49.8924  XZZ=            -22.9232  YZZ=             10.1147
  YYZ=             -1.4684  XYZ=              0.1494
 Hexadecapole moment (field-independent basis, Debye-Ang**3):
 XXXX=         -35398.0903 YYYY=         -32438.8804 ZZZZ=         -26369.8568 XXXY=             -7.0240
 XXXZ=            105.8160 YYYX=              7.0501 YYYZ=             37.0904 ZZZX=             -4.8656
 ZZZY=             70.0059 XXYY=         -11237.8116 XXZZ=         -10096.9660 YYZZ=          -9707.2877
 XXYZ=              6.6114 YYXZ=             98.0963 ZZXY=             37.8658
 N-N= 2.607376371874D+04 E-N=-7.485179427196D+04  KE= 9.594212503361D+03
 No NMR shielding tensors so no spin-rotation constants.
 Leave Link  601 at Tue Jun 28 05:01:32 2022, MaxMem=  1342177280 cpu:              27.4 elap:               1.4
 (Enter /home/mkliu/g16/l9999.exe)
 1\1\GINC-NODE04\FOpt\RB3LYP\6-31G(d,p)\C84Cl14\MKLIU\28-Jun-2022\0\\#P
  opt b3lyp/6-31G(d, p) empiricaldispersion=GD3\\force\\0,1\C,8.4189480
 037,18.5941218823,10.8522381344\C,12.5764423976,19.9676757284,8.917026
 1359\C,8.2667011113,26.9139990235,10.5848569278\C,12.4737497824,25.755
 8847299,8.9369018313\C,8.0034402986,19.1259964787,9.4770517724\C,12.07
 04680884,19.4767809334,10.252963497\C,7.8657346708,27.1345893069,9.123
 176646\C,11.9027879933,26.2234060382,10.2486825708\C,8.9795492112,19.2
 362504776,8.4214158718\C,12.343700745,20.1280696445,11.4216475928\C,12
 .1132243063,25.5411984599,11.3793802093\C,8.9442872919,26.6079208854,8
 .1887073197\C,10.3607778051,19.0591104767,8.7206249366\C,10.2559474013
 ,26.6506525782,8.6547032003\C,10.8161722975,18.8096578552,10.080544920
 6\C,10.6755172623,27.0822504854,10.0490158837\C,9.9069939693,18.706319
 9377,11.1016472159\C,9.5609192907,26.8142083164,11.0437765963\C,10.156
 0861114,19.4362365397,12.2965616462\C,9.8312355447,26.0640785028,12.25
 82426532\C,8.9273985748,19.9972170098,12.7758245237\C,8.7526735641,25.
 4413720663,12.940552745\C,7.8652960464,19.486208568,11.9540612217\C,7.
 4276318843,25.5159675697,12.4079653815\C,6.7268281012,20.2034715861,11
 .7894116024\C,7.2036387833,26.216592601,11.2448467236\C,5.899451965,20
 .1454624449,10.5275055298\C,6.2640202802,25.7299445644,10.2596178759\C
 ,6.7568413599,19.7477348799,9.3354530761\C,6.6275784619,26.2683091839,
 9.0133064919\C,6.4177575901,20.3308780357,8.1055075649\C,6.3086350582,
 25.5900420003,7.8640722436\C,7.32693942,20.3810088829,7.0536111596\C,7
 .1857144101,25.6556533299,6.6220751689\C,8.6715626699,19.9541456396,7.
 2132192378\C,8.6515177055,25.8510577529,7.0314889161\C,9.7131573038,20
 .6089505195,6.4604107125\C,9.6819498694,25.1202936624,6.3887547812\C,1
 1.028021788,20.5631010195,6.9197966639\C,12.6951242707,22.1734867674,7
 .7850604837\C,12.6824608617,23.5641517442,7.7849428195\C,10.9904382197
 ,25.1422457972,6.9091319472\C,11.3457239467,19.752782838,8.0245377642\
 C,12.9036534019,21.4521358775,8.9614772911\C,12.8628369563,24.28459769
 71,8.965802055\C,11.2645180592,25.9251714309,8.027875908\C,13.12891869
 99,22.1595224299,10.1600540712\C,13.0975824661,23.5783014885,10.158586
 8657\C,13.1766295213,21.3951743589,11.4909775776\C,13.0584113551,24.35
 36650751,11.4754245219\C,12.4412439316,22.1800696119,12.5650800486\C,1
 2.3917789284,23.5299883866,12.5505301885\C,11.3505152072,20.1421869341
 ,12.4516538387\C,11.0963378651,25.4513336707,12.4179960027\C,11.338822
 6451,21.4183534859,13.0923567776\C,11.2437362226,24.2090478583,13.0765
 058924\C,8.8822594918,21.2856533947,13.363697272\C,8.8849694309,24.153
 1560245,13.5514569084\C,7.6400743373,22.0208101342,13.2271861432\C,7.6
 41905233,23.4299949864,13.3597215138\C,6.6006583837,21.4749680093,12.4
 204423029\C,6.7515814658,24.2587919914,12.625158583\C,5.7871073033,22.
 3120597068,11.5945302225\C,5.8941449858,23.7190150896,11.6227669158\C,
 5.4544965805,21.6086145861,10.3950823412\C,5.6566658154,24.4451258821,
 10.3898351333\C,5.25990052,22.265223039,9.2081192321\C,5.3402263069,23
 .7224053689,9.1790156104\C,5.3588379781,21.433061574,7.9411109769\C,5.
 616707801,24.3651833659,7.9432697977\C,5.9267561059,22.2107836578,6.77
 60798563\C,5.9544319514,23.5901655537,6.7517732987\C,6.9916009279,21.5
 05425366,6.188246751\C,6.9617592882,24.2818271236,6.0323752813\C,7.980
 1375067,22.1649633194,5.4828418594\C,7.9704369264,23.5710471573,5.4185
 025149\C,9.3606158771,21.5954310768,5.3468216208\C,9.3654636169,24.117
 407704,5.2753677355\C,12.0499687779,21.6149250531,6.5280843962\C,12.03
 39451674,24.1103503525,6.5251842354\C,10.1989735923,22.854368562,5.427
 2558896\C,11.4095061596,22.8592077456,5.9672220333\C,10.1379688913,22.
 0227469436,13.5334377634\C,10.1145607758,23.4746902501,13.5798064459\C
 l,13.9063946329,26.7822479421,8.3892288792\Cl,13.2657659975,24.8257218
 104,5.3575963333\Cl,9.6333803943,24.9181654471,3.6353748911\Cl,6.68481
 62916,26.9988412944,5.4676169947\Cl,14.7540125575,24.892640516,11.9444
 981494\Cl,14.9272493563,21.0409505359,11.935795939\Cl,14.0411229659,18
 .9991917025,8.3625450055\Cl,4.457997622,19.0140523919,10.711072306\Cl,
 3.6978545119,20.7409719617,7.493077666\Cl,13.2894598399,20.9231706026,
 5.352402081\Cl,7.5110407239,28.9065338701,8.7738710583\Cl,11.123782299
 6,28.8864103332,10.0838789817\Cl,7.8515641008,16.8357086864,11.0173391
 625\Cl,9.5645881383,20.7443485005,3.7035549264\\Version=ES64L-G16RevA.
 03\State=1-A\HF=-9643.8411076\RMSD=5.730e-09\RMSF=6.175e-05\Dipole=-1.
 3450787,-0.2816021,2.0830584\Quadrupole=-4.5689613,-6.8029772,11.37193
 85,-8.6147761,-0.4763449,3.6062531\PG=C01 [X(C84Cl14)]\\@


 THEORY:  SUPPOSITION WHICH HAS SCIENTIFIC BASIS,
          BUT NOT EXPERIMENTALLY PROVEN.
 FACT:    A THEORY WHICH HAS BEEN PROVEN BY ENOUGH 
          MONEY TO PAY FOR THE EXPERIMENTS.

                          --  THE WIZARD OF ID
 Job cpu time:       1 days  7 hours 41 minutes 14.1 seconds.
 Elapsed time:       0 days  1 hours 19 minutes 19.7 seconds.
 File lengths (MBytes):  RWF=   1429 Int=      0 D2E=      0 Chk=    179 Scr=      1
 Normal termination of Gaussian 16 at Tue Jun 28 05:01:34 2022.
