 Entering Gaussian System, Link 0=g16
 Input=14_addons_C84_11_Cl22_rank_9.gjf
 Output=14_addons_C84_11_Cl22_rank_9.log
 Initial command:
 /home/mkliu/g16/l1.exe "/data/scratch/Gau-69322.inp" -scrdir="/data/scratch/"
 Entering Link 1 = /home/mkliu/g16/l1.exe PID=     69323.
  
 Copyright (c) 1988,1990,1992,1993,1995,1998,2003,2009,2016,
            Gaussian, Inc.  All Rights Reserved.
  
 This is part of the Gaussian(R) 16 program.  It is based on
 the Gaussian(R) 09 system (copyright 2009, Gaussian, Inc.),
 the Gaussian(R) 03 system (copyright 2003, Gaussian, Inc.),
 the Gaussian(R) 98 system (copyright 1998, Gaussian, Inc.),
 the Gaussian(R) 94 system (copyright 1995, Gaussian, Inc.),
 the Gaussian 92(TM) system (copyright 1992, Gaussian, Inc.),
 the Gaussian 90(TM) system (copyright 1990, Gaussian, Inc.),
 the Gaussian 88(TM) system (copyright 1988, Gaussian, Inc.),
 the Gaussian 86(TM) system (copyright 1986, Carnegie Mellon
 University), and the Gaussian 82(TM) system (copyright 1983,
 Carnegie Mellon University). Gaussian is a federally registered
 trademark of Gaussian, Inc.
  
 This software contains proprietary and confidential information,
 including trade secrets, belonging to Gaussian, Inc.
  
 This software is provided under written license and may be
 used, copied, transmitted, or stored only in accord with that
 written license.
  
 The following legend is applicable only to US Government
 contracts under FAR:
  
                    RESTRICTED RIGHTS LEGEND
  
 Use, reproduction and disclosure by the US Government is
 subject to restrictions as set forth in subparagraphs (a)
 and (c) of the Commercial Computer Software - Restricted
 Rights clause in FAR 52.227-19.
  
 Gaussian, Inc.
 340 Quinnipiac St., Bldg. 40, Wallingford CT 06492
  
  
 ---------------------------------------------------------------
 Warning -- This program may not be used in any manner that
 competes with the business of Gaussian, Inc. or will provide
 assistance to any competitor of Gaussian, Inc.  The licensee
 of this program is prohibited from giving any competitor of
 Gaussian, Inc. access to this program.  By using this program,
 the user acknowledges that Gaussian, Inc. is engaged in the
 business of creating and licensing software in the field of
 computational chemistry and represents and warrants to the
 licensee that it is not a competitor of Gaussian, Inc. and that
 it will not use this program in any manner prohibited above.
 ---------------------------------------------------------------
  

 Cite this work as:
 Gaussian 16, Revision A.03,
 M. J. Frisch, G. W. Trucks, H. B. Schlegel, G. E. Scuseria, 
 M. A. Robb, J. R. Cheeseman, G. Scalmani, V. Barone, 
 G. A. Petersson, H. Nakatsuji, X. Li, M. Caricato, A. V. Marenich, 
 J. Bloino, B. G. Janesko, R. Gomperts, B. Mennucci, H. P. Hratchian, 
 J. V. Ortiz, A. F. Izmaylov, J. L. Sonnenberg, D. Williams-Young, 
 F. Ding, F. Lipparini, F. Egidi, J. Goings, B. Peng, A. Petrone, 
 T. Henderson, D. Ranasinghe, V. G. Zakrzewski, J. Gao, N. Rega, 
 G. Zheng, W. Liang, M. Hada, M. Ehara, K. Toyota, R. Fukuda, 
 J. Hasegawa, M. Ishida, T. Nakajima, Y. Honda, O. Kitao, H. Nakai, 
 T. Vreven, K. Throssell, J. A. Montgomery, Jr., J. E. Peralta, 
 F. Ogliaro, M. J. Bearpark, J. J. Heyd, E. N. Brothers, K. N. Kudin, 
 V. N. Staroverov, T. A. Keith, R. Kobayashi, J. Normand, 
 K. Raghavachari, A. P. Rendell, J. C. Burant, S. S. Iyengar, 
 J. Tomasi, M. Cossi, J. M. Millam, M. Klene, C. Adamo, R. Cammi, 
 J. W. Ochterski, R. L. Martin, K. Morokuma, O. Farkas, 
 J. B. Foresman, and D. J. Fox, Gaussian, Inc., Wallingford CT, 2016.
 
 ******************************************
 Gaussian 16:  ES64L-G16RevA.03 25-Dec-2016
                28-Jun-2022 
 ******************************************
 %mem=10GB
 %chk=14_addons_C84_11_Cl22_rank_9.chk
 %nprocshared=24
 Will use up to   24 processors via shared memory.
 ------------------------------------------------
 #P opt b3lyp/6-31G(d, p) empiricaldispersion=GD3
 ------------------------------------------------
 1/18=20,19=15,26=3,38=1/1,3;
 2/9=110,12=2,17=6,18=5,40=1/2;
 3/5=1,6=6,7=101,11=2,25=1,30=1,71=1,74=-5,124=31/1,2,3;
 4//1;
 5/5=2,38=5/2;
 6/7=2,8=2,9=2,10=2,28=1/1;
 7//1,2,3,16;
 1/18=20,19=15,26=3/3(2);
 2/9=110/2;
 99//99;
 2/9=110/2;
 3/5=1,6=6,7=101,11=2,25=1,30=1,71=1,74=-5,124=31/1,2,3;
 4/5=5,16=3,69=1/1;
 5/5=2,38=5/2;
 7//1,2,3,16;
 1/18=20,19=15,26=3/3(-5);
 2/9=110/2;
 6/7=2,8=2,9=2,10=2,19=2,28=1/1;
 99/9=1/99;
 Leave Link    1 at Tue Jun 28 18:03:08 2022, MaxMem=  1342177280 cpu:               0.7 elap:               0.1
 (Enter /home/mkliu/g16/l101.exe)
 -----
 force
 -----
 Symbolic Z-matrix:
 Charge =  0 Multiplicity = 1
 C                     8.49609   18.94308   10.74157 
 C                     12.58437   19.99968   8.86692 
 C                     8.2568    26.8353   10.5181 
 C                     12.48464   25.74229   8.90933 
 C                     8.03318   19.17541   9.43794 
 C                     12.05903   19.5215   10.18718 
 C                     7.9512    26.8105   9.13106 
 C                     11.87547   26.15751   10.21636 
 C                     8.99595   19.26714   8.36576 
 C                     12.30239   20.16242   11.36679 
 C                     12.1308   25.50211   11.37274 
 C                     8.95652   26.62309   8.15581 
 C                     10.35874   19.10664   8.67002 
 C                     10.28659   26.65993   8.62312 
 C                     10.80634   18.89103   9.99726 
 C                     10.59928   26.7614   9.99598 
 C                     9.87427   18.83968   11.03034 
 C                     9.58637   26.74534   10.9826 
 C                     10.16784   19.44906   12.27693 
 C                     9.83882   26.02725   12.19242 
 C                     8.89451   19.85995   12.95739 
 C                     8.74958   25.41342   12.83067 
 C                     7.86789   19.56062   11.88912 
 C                     7.4138    25.54961   12.36381 
 C                     6.71339   20.21971   11.77682 
 C                     7.16647   26.25497   11.22943 
 C                     5.93825   20.2058   10.49323 
 C                     6.03488   25.92192   10.29305 
 C                     6.7555    19.8083   9.29363 
 C                     6.64838   26.26852   8.96795 
 C                     6.42817   20.3803   8.10079 
 C                     6.34785   25.60018   7.82975 
 C                     7.35647   20.42544   7.0218 
 C                     7.32849   25.45156   6.80673 
 C                     8.68348   19.97341   7.16481 
 C                     8.66539   25.88446   6.96853 
 C                     9.72545   20.62813   6.41048 
 C                     9.72317   25.15267   6.31391 
 C                     11.08028   20.58278   6.88398 
 C                     12.70107   22.18884   7.77106 
 C                     12.68168   23.57629   7.77503 
 C                     11.06055   25.18665   6.85541 
 C                     11.37805   19.80254   7.96162 
 C                     12.89526   21.47184   8.93849 
 C                     12.84481   24.27981   8.9535 
 C                     11.32572   25.95239   7.9527 
 C                     13.10322   22.16629   10.13865 
 C                     13.0718   23.57005   10.14044 
 C                     13.15379   21.39329   11.45022 
 C                     13.06082   24.3223   11.45569 
 C                     12.45173   22.15366   12.5346 
 C                     12.38515   23.48601   12.50549 
 C                     11.34352   20.12428   12.4161 
 C                     11.10284   25.39877   12.36585 
 C                     11.44974   21.32551   13.29484 
 C                     11.24307   24.17829   13.04004 
 C                     8.90466   21.34232   13.26986 
 C                     8.8845    24.11646   13.40732 
 C                     7.67415   22.04778   13.16772 
 C                     7.67087   23.41732   13.27971 
 C                     6.41825   21.43223   12.60173 
 C                     6.59763   24.35021   12.75344 
 C                     5.87031   22.35141   11.53504 
 C                     5.97393   23.73162   11.52978 
 C                     5.58453   21.66267   10.36609 
 C                     5.74538   24.42895   10.33479 
 C                     5.38139   22.32855   9.16975 
 C                     5.44064   23.72915   9.15373 
 C                     5.38462   21.47111   7.92803 
 C                     5.36757   24.45749   7.81897 
 C                     5.92954   22.23905   6.76061 
 C                     5.92474   23.59743   6.71457 
 C                     7.01676   21.51226   6.18097 
 C                     7.00862   24.28145   6.07347 
 C                     8.03274   22.15629   5.48318 
 C                     8.03199   23.59196   5.4383 
 C                     9.36412   21.69711   5.57535 
 C                     9.36862   24.05182   5.52243 
 C                     12.09329   21.63628   6.50752 
 C                     12.08021   24.128    6.50803 
 C                     10.22125   22.87151   5.47882 
 C                     11.47804   22.87883   5.94296 
 C                     10.10844   22.01846   13.43658 
 C                     10.113    23.44015   13.4703 
 Cl                    14.02955   19.08554   8.30711 
 Cl                    14.88293   21.03184   11.83197 
 Cl                    14.74611   24.77484   11.89453 
 Cl                    13.34989   20.93543   5.40689 
 Cl                    4.5219    26.82465   10.65561 
 Cl                    3.6643    24.96702   7.5334 
 Cl                    13.92719   26.71903   8.45253 
 Cl                    3.73498   20.81224   7.63185 
 Cl                    4.46121   19.16306   10.62299 
 Cl                    5.33278   24.71331   13.98009 
 Cl                    5.21504   21.13764   13.91387 
 Cl                    13.35502   24.82856   5.42432 
 Cl                    8.5771    18.94709   14.47919 
 Cl                    12.06368   20.9197   14.9569 
 
 ITRead=  0  0  0  0  0  0  0  0  0  0  0  0  0  0  0  0  0  0  0  0
 ITRead=  0  0  0  0  0  0  0  0  0  0  0  0  0  0  0  0  0  0  0  0
 ITRead=  0  0  0  0  0  0  0  0  0  0  0  0  0  0  0  0  0  0  0  0
 ITRead=  0  0  0  0  0  0  0  0  0  0  0  0  0  0  0  0  0  0  0  0
 ITRead=  0  0  0  0  0  0  0  0  0  0  0  0  0  0  0  0  0  0
 MicOpt= -1 -1 -1 -1 -1 -1 -1 -1 -1 -1 -1 -1 -1 -1 -1 -1 -1 -1 -1 -1
 MicOpt= -1 -1 -1 -1 -1 -1 -1 -1 -1 -1 -1 -1 -1 -1 -1 -1 -1 -1 -1 -1
 MicOpt= -1 -1 -1 -1 -1 -1 -1 -1 -1 -1 -1 -1 -1 -1 -1 -1 -1 -1 -1 -1
 MicOpt= -1 -1 -1 -1 -1 -1 -1 -1 -1 -1 -1 -1 -1 -1 -1 -1 -1 -1 -1 -1
 MicOpt= -1 -1 -1 -1 -1 -1 -1 -1 -1 -1 -1 -1 -1 -1 -1 -1 -1 -1
 NAtoms=     98 NQM=       98 NQMF=       0 NMMI=      0 NMMIF=      0
                NMic=       0 NMicF=      0.
                    Isotopes and Nuclear Properties:
 (Nuclear quadrupole moments (NQMom) in fm**2, nuclear magnetic moments (NMagM)
  in nuclear magnetons)

  Atom         1           2           3           4           5           6           7           8           9          10
 IAtWgt=          12          12          12          12          12          12          12          12          12          12
 AtmWgt=  12.0000000  12.0000000  12.0000000  12.0000000  12.0000000  12.0000000  12.0000000  12.0000000  12.0000000  12.0000000
 NucSpn=           0           0           0           0           0           0           0           0           0           0
 AtZEff=  -0.0000000  -0.0000000  -0.0000000  -0.0000000  -0.0000000  -0.0000000  -0.0000000  -0.0000000  -0.0000000  -0.0000000
 NQMom=    0.0000000   0.0000000   0.0000000   0.0000000   0.0000000   0.0000000   0.0000000   0.0000000   0.0000000   0.0000000
 NMagM=    0.0000000   0.0000000   0.0000000   0.0000000   0.0000000   0.0000000   0.0000000   0.0000000   0.0000000   0.0000000
 AtZNuc=   6.0000000   6.0000000   6.0000000   6.0000000   6.0000000   6.0000000   6.0000000   6.0000000   6.0000000   6.0000000

  Atom        11          12          13          14          15          16          17          18          19          20
 IAtWgt=          12          12          12          12          12          12          12          12          12          12
 AtmWgt=  12.0000000  12.0000000  12.0000000  12.0000000  12.0000000  12.0000000  12.0000000  12.0000000  12.0000000  12.0000000
 NucSpn=           0           0           0           0           0           0           0           0           0           0
 AtZEff=  -0.0000000  -0.0000000  -0.0000000  -0.0000000  -0.0000000  -0.0000000  -0.0000000  -0.0000000  -0.0000000  -0.0000000
 NQMom=    0.0000000   0.0000000   0.0000000   0.0000000   0.0000000   0.0000000   0.0000000   0.0000000   0.0000000   0.0000000
 NMagM=    0.0000000   0.0000000   0.0000000   0.0000000   0.0000000   0.0000000   0.0000000   0.0000000   0.0000000   0.0000000
 AtZNuc=   6.0000000   6.0000000   6.0000000   6.0000000   6.0000000   6.0000000   6.0000000   6.0000000   6.0000000   6.0000000

  Atom        21          22          23          24          25          26          27          28          29          30
 IAtWgt=          12          12          12          12          12          12          12          12          12          12
 AtmWgt=  12.0000000  12.0000000  12.0000000  12.0000000  12.0000000  12.0000000  12.0000000  12.0000000  12.0000000  12.0000000
 NucSpn=           0           0           0           0           0           0           0           0           0           0
 AtZEff=  -0.0000000  -0.0000000  -0.0000000  -0.0000000  -0.0000000  -0.0000000  -0.0000000  -0.0000000  -0.0000000  -0.0000000
 NQMom=    0.0000000   0.0000000   0.0000000   0.0000000   0.0000000   0.0000000   0.0000000   0.0000000   0.0000000   0.0000000
 NMagM=    0.0000000   0.0000000   0.0000000   0.0000000   0.0000000   0.0000000   0.0000000   0.0000000   0.0000000   0.0000000
 AtZNuc=   6.0000000   6.0000000   6.0000000   6.0000000   6.0000000   6.0000000   6.0000000   6.0000000   6.0000000   6.0000000

  Atom        31          32          33          34          35          36          37          38          39          40
 IAtWgt=          12          12          12          12          12          12          12          12          12          12
 AtmWgt=  12.0000000  12.0000000  12.0000000  12.0000000  12.0000000  12.0000000  12.0000000  12.0000000  12.0000000  12.0000000
 NucSpn=           0           0           0           0           0           0           0           0           0           0
 AtZEff=  -0.0000000  -0.0000000  -0.0000000  -0.0000000  -0.0000000  -0.0000000  -0.0000000  -0.0000000  -0.0000000  -0.0000000
 NQMom=    0.0000000   0.0000000   0.0000000   0.0000000   0.0000000   0.0000000   0.0000000   0.0000000   0.0000000   0.0000000
 NMagM=    0.0000000   0.0000000   0.0000000   0.0000000   0.0000000   0.0000000   0.0000000   0.0000000   0.0000000   0.0000000
 AtZNuc=   6.0000000   6.0000000   6.0000000   6.0000000   6.0000000   6.0000000   6.0000000   6.0000000   6.0000000   6.0000000

  Atom        41          42          43          44          45          46          47          48          49          50
 IAtWgt=          12          12          12          12          12          12          12          12          12          12
 AtmWgt=  12.0000000  12.0000000  12.0000000  12.0000000  12.0000000  12.0000000  12.0000000  12.0000000  12.0000000  12.0000000
 NucSpn=           0           0           0           0           0           0           0           0           0           0
 AtZEff=  -0.0000000  -0.0000000  -0.0000000  -0.0000000  -0.0000000  -0.0000000  -0.0000000  -0.0000000  -0.0000000  -0.0000000
 NQMom=    0.0000000   0.0000000   0.0000000   0.0000000   0.0000000   0.0000000   0.0000000   0.0000000   0.0000000   0.0000000
 NMagM=    0.0000000   0.0000000   0.0000000   0.0000000   0.0000000   0.0000000   0.0000000   0.0000000   0.0000000   0.0000000
 AtZNuc=   6.0000000   6.0000000   6.0000000   6.0000000   6.0000000   6.0000000   6.0000000   6.0000000   6.0000000   6.0000000

  Atom        51          52          53          54          55          56          57          58          59          60
 IAtWgt=          12          12          12          12          12          12          12          12          12          12
 AtmWgt=  12.0000000  12.0000000  12.0000000  12.0000000  12.0000000  12.0000000  12.0000000  12.0000000  12.0000000  12.0000000
 NucSpn=           0           0           0           0           0           0           0           0           0           0
 AtZEff=  -0.0000000  -0.0000000  -0.0000000  -0.0000000  -0.0000000  -0.0000000  -0.0000000  -0.0000000  -0.0000000  -0.0000000
 NQMom=    0.0000000   0.0000000   0.0000000   0.0000000   0.0000000   0.0000000   0.0000000   0.0000000   0.0000000   0.0000000
 NMagM=    0.0000000   0.0000000   0.0000000   0.0000000   0.0000000   0.0000000   0.0000000   0.0000000   0.0000000   0.0000000
 AtZNuc=   6.0000000   6.0000000   6.0000000   6.0000000   6.0000000   6.0000000   6.0000000   6.0000000   6.0000000   6.0000000

  Atom        61          62          63          64          65          66          67          68          69          70
 IAtWgt=          12          12          12          12          12          12          12          12          12          12
 AtmWgt=  12.0000000  12.0000000  12.0000000  12.0000000  12.0000000  12.0000000  12.0000000  12.0000000  12.0000000  12.0000000
 NucSpn=           0           0           0           0           0           0           0           0           0           0
 AtZEff=  -0.0000000  -0.0000000  -0.0000000  -0.0000000  -0.0000000  -0.0000000  -0.0000000  -0.0000000  -0.0000000  -0.0000000
 NQMom=    0.0000000   0.0000000   0.0000000   0.0000000   0.0000000   0.0000000   0.0000000   0.0000000   0.0000000   0.0000000
 NMagM=    0.0000000   0.0000000   0.0000000   0.0000000   0.0000000   0.0000000   0.0000000   0.0000000   0.0000000   0.0000000
 AtZNuc=   6.0000000   6.0000000   6.0000000   6.0000000   6.0000000   6.0000000   6.0000000   6.0000000   6.0000000   6.0000000

  Atom        71          72          73          74          75          76          77          78          79          80
 IAtWgt=          12          12          12          12          12          12          12          12          12          12
 AtmWgt=  12.0000000  12.0000000  12.0000000  12.0000000  12.0000000  12.0000000  12.0000000  12.0000000  12.0000000  12.0000000
 NucSpn=           0           0           0           0           0           0           0           0           0           0
 AtZEff=  -0.0000000  -0.0000000  -0.0000000  -0.0000000  -0.0000000  -0.0000000  -0.0000000  -0.0000000  -0.0000000  -0.0000000
 NQMom=    0.0000000   0.0000000   0.0000000   0.0000000   0.0000000   0.0000000   0.0000000   0.0000000   0.0000000   0.0000000
 NMagM=    0.0000000   0.0000000   0.0000000   0.0000000   0.0000000   0.0000000   0.0000000   0.0000000   0.0000000   0.0000000
 AtZNuc=   6.0000000   6.0000000   6.0000000   6.0000000   6.0000000   6.0000000   6.0000000   6.0000000   6.0000000   6.0000000

  Atom        81          82          83          84          85          86          87          88          89          90
 IAtWgt=          12          12          12          12          35          35          35          35          35          35
 AtmWgt=  12.0000000  12.0000000  12.0000000  12.0000000  34.9688527  34.9688527  34.9688527  34.9688527  34.9688527  34.9688527
 NucSpn=           0           0           0           0           3           3           3           3           3           3
 AtZEff=  -0.0000000  -0.0000000  -0.0000000  -0.0000000  -0.0000000  -0.0000000  -0.0000000  -0.0000000  -0.0000000  -0.0000000
 NQMom=    0.0000000   0.0000000   0.0000000   0.0000000  -8.1650000  -8.1650000  -8.1650000  -8.1650000  -8.1650000  -8.1650000
 NMagM=    0.0000000   0.0000000   0.0000000   0.0000000   0.8218740   0.8218740   0.8218740   0.8218740   0.8218740   0.8218740
 AtZNuc=   6.0000000   6.0000000   6.0000000   6.0000000  17.0000000  17.0000000  17.0000000  17.0000000  17.0000000  17.0000000

  Atom        91          92          93          94          95          96          97          98
 IAtWgt=          35          35          35          35          35          35          35          35
 AtmWgt=  34.9688527  34.9688527  34.9688527  34.9688527  34.9688527  34.9688527  34.9688527  34.9688527
 NucSpn=           3           3           3           3           3           3           3           3
 AtZEff=  -0.0000000  -0.0000000  -0.0000000  -0.0000000  -0.0000000  -0.0000000  -0.0000000  -0.0000000
 NQMom=   -8.1650000  -8.1650000  -8.1650000  -8.1650000  -8.1650000  -8.1650000  -8.1650000  -8.1650000
 NMagM=    0.8218740   0.8218740   0.8218740   0.8218740   0.8218740   0.8218740   0.8218740   0.8218740
 AtZNuc=  17.0000000  17.0000000  17.0000000  17.0000000  17.0000000  17.0000000  17.0000000  17.0000000
 Leave Link  101 at Tue Jun 28 18:03:08 2022, MaxMem=  1342177280 cpu:               6.7 elap:               0.3
 (Enter /home/mkliu/g16/l103.exe)

 GradGradGradGradGradGradGradGradGradGradGradGradGradGradGradGradGradGrad
 Berny optimization.
 Initialization pass.
                           ----------------------------
                           !    Initial Parameters    !
                           ! (Angstroms and Degrees)  !
 --------------------------                            --------------------------
 ! Name  Definition              Value          Derivative Info.                !
 --------------------------------------------------------------------------------
 ! R1    R(1,5)                  1.4028         estimate D2E/DX2                !
 ! R2    R(1,17)                 1.4119         estimate D2E/DX2                !
 ! R3    R(1,23)                 1.4467         estimate D2E/DX2                !
 ! R4    R(2,6)                  1.4992         estimate D2E/DX2                !
 ! R5    R(2,43)                 1.5211         estimate D2E/DX2                !
 ! R6    R(2,44)                 1.5063         estimate D2E/DX2                !
 ! R7    R(2,85)                 1.7993         estimate D2E/DX2                !
 ! R8    R(3,7)                  1.4205         estimate D2E/DX2                !
 ! R9    R(3,18)                 1.4112         estimate D2E/DX2                !
 ! R10   R(3,26)                 1.4253         estimate D2E/DX2                !
 ! R11   R(4,8)                  1.5006         estimate D2E/DX2                !
 ! R12   R(4,45)                 1.5068         estimate D2E/DX2                !
 ! R13   R(4,46)                 1.5174         estimate D2E/DX2                !
 ! R14   R(4,91)                 1.801          estimate D2E/DX2                !
 ! R15   R(5,9)                  1.4439         estimate D2E/DX2                !
 ! R16   R(5,29)                 1.4331         estimate D2E/DX2                !
 ! R17   R(6,10)                 1.3644         estimate D2E/DX2                !
 ! R18   R(6,15)                 1.4152         estimate D2E/DX2                !
 ! R19   R(7,12)                 1.4131         estimate D2E/DX2                !
 ! R20   R(7,30)                 1.4205         estimate D2E/DX2                !
 ! R21   R(8,11)                 1.3535         estimate D2E/DX2                !
 ! R22   R(8,16)                 1.429          estimate D2E/DX2                !
 ! R23   R(9,13)                 1.4055         estimate D2E/DX2                !
 ! R24   R(9,35)                 1.4278         estimate D2E/DX2                !
 ! R25   R(10,49)                1.499          estimate D2E/DX2                !
 ! R26   R(10,53)                1.4219         estimate D2E/DX2                !
 ! R27   R(11,50)                1.5046         estimate D2E/DX2                !
 ! R28   R(11,54)                1.4331         estimate D2E/DX2                !
 ! R29   R(12,14)                1.4103         estimate D2E/DX2                !
 ! R30   R(12,36)                1.4283         estimate D2E/DX2                !
 ! R31   R(13,15)                1.4172         estimate D2E/DX2                !
 ! R32   R(13,43)                1.4231         estimate D2E/DX2                !
 ! R33   R(14,16)                1.4117         estimate D2E/DX2                !
 ! R34   R(14,46)                1.4247         estimate D2E/DX2                !
 ! R35   R(15,17)                1.3924         estimate D2E/DX2                !
 ! R36   R(16,18)                1.4141         estimate D2E/DX2                !
 ! R37   R(17,19)                1.4183         estimate D2E/DX2                !
 ! R38   R(18,20)                1.4294         estimate D2E/DX2                !
 ! R39   R(19,21)                1.5011         estimate D2E/DX2                !
 ! R40   R(19,53)                1.3629         estimate D2E/DX2                !
 ! R41   R(20,22)                1.4038         estimate D2E/DX2                !
 ! R42   R(20,54)                1.4223         estimate D2E/DX2                !
 ! R43   R(21,23)                1.5115         estimate D2E/DX2                !
 ! R44   R(21,57)                1.515          estimate D2E/DX2                !
 ! R45   R(21,97)                1.8028         estimate D2E/DX2                !
 ! R46   R(22,24)                1.4216         estimate D2E/DX2                !
 ! R47   R(22,58)                1.4258         estimate D2E/DX2                !
 ! R48   R(23,25)                1.3341         estimate D2E/DX2                !
 ! R49   R(24,26)                1.3585         estimate D2E/DX2                !
 ! R50   R(24,62)                1.5022         estimate D2E/DX2                !
 ! R51   R(25,27)                1.4995         estimate D2E/DX2                !
 ! R52   R(25,61)                1.4959         estimate D2E/DX2                !
 ! R53   R(26,28)                1.5061         estimate D2E/DX2                !
 ! R54   R(27,29)                1.505          estimate D2E/DX2                !
 ! R55   R(27,65)                1.5046         estimate D2E/DX2                !
 ! R56   R(27,93)                1.8127         estimate D2E/DX2                !
 ! R57   R(28,30)                1.5008         estimate D2E/DX2                !
 ! R58   R(28,66)                1.5214         estimate D2E/DX2                !
 ! R59   R(28,89)                1.7987         estimate D2E/DX2                !
 ! R60   R(29,31)                1.3628         estimate D2E/DX2                !
 ! R61   R(30,32)                1.3537         estimate D2E/DX2                !
 ! R62   R(31,33)                1.4241         estimate D2E/DX2                !
 ! R63   R(31,69)                1.5194         estimate D2E/DX2                !
 ! R64   R(32,34)                1.4249         estimate D2E/DX2                !
 ! R65   R(32,70)                1.5056         estimate D2E/DX2                !
 ! R66   R(33,35)                1.4092         estimate D2E/DX2                !
 ! R67   R(33,73)                1.4155         estimate D2E/DX2                !
 ! R68   R(34,36)                1.4145         estimate D2E/DX2                !
 ! R69   R(34,74)                1.4174         estimate D2E/DX2                !
 ! R70   R(35,37)                1.4434         estimate D2E/DX2                !
 ! R71   R(36,38)                1.4432         estimate D2E/DX2                !
 ! R72   R(37,39)                1.4359         estimate D2E/DX2                !
 ! R73   R(37,77)                1.4038         estimate D2E/DX2                !
 ! R74   R(38,42)                1.4432         estimate D2E/DX2                !
 ! R75   R(38,78)                1.4014         estimate D2E/DX2                !
 ! R76   R(39,43)                1.3634         estimate D2E/DX2                !
 ! R77   R(39,79)                1.5092         estimate D2E/DX2                !
 ! R78   R(40,41)                1.3876         estimate D2E/DX2                !
 ! R79   R(40,44)                1.3837         estimate D2E/DX2                !
 ! R80   R(40,79)                1.5071         estimate D2E/DX2                !
 ! R81   R(41,45)                1.3822         estimate D2E/DX2                !
 ! R82   R(41,80)                1.5071         estimate D2E/DX2                !
 ! R83   R(42,46)                1.3641         estimate D2E/DX2                !
 ! R84   R(42,80)                1.5103         estimate D2E/DX2                !
 ! R85   R(44,47)                1.4021         estimate D2E/DX2                !
 ! R86   R(45,48)                1.4015         estimate D2E/DX2                !
 ! R87   R(47,48)                1.4041         estimate D2E/DX2                !
 ! R88   R(47,49)                1.5233         estimate D2E/DX2                !
 ! R89   R(48,50)                1.5152         estimate D2E/DX2                !
 ! R90   R(49,51)                1.499          estimate D2E/DX2                !
 ! R91   R(49,86)                1.8073         estimate D2E/DX2                !
 ! R92   R(50,52)                1.5027         estimate D2E/DX2                !
 ! R93   R(50,87)                1.7993         estimate D2E/DX2                !
 ! R94   R(51,52)                1.3343         estimate D2E/DX2                !
 ! R95   R(51,55)                1.5059         estimate D2E/DX2                !
 ! R96   R(52,56)                1.4385         estimate D2E/DX2                !
 ! R97   R(53,55)                1.4921         estimate D2E/DX2                !
 ! R98   R(54,56)                1.4013         estimate D2E/DX2                !
 ! R99   R(55,83)                1.5164         estimate D2E/DX2                !
 ! R100  R(55,98)                1.8177         estimate D2E/DX2                !
 ! R101  R(56,84)                1.4167         estimate D2E/DX2                !
 ! R102  R(57,59)                1.4221         estimate D2E/DX2                !
 ! R103  R(57,83)                1.3907         estimate D2E/DX2                !
 ! R104  R(58,60)                1.4064         estimate D2E/DX2                !
 ! R105  R(58,84)                1.4038         estimate D2E/DX2                !
 ! R106  R(59,60)                1.3741         estimate D2E/DX2                !
 ! R107  R(59,61)                1.5088         estimate D2E/DX2                !
 ! R108  R(60,62)                1.5163         estimate D2E/DX2                !
 ! R109  R(61,63)                1.5109         estimate D2E/DX2                !
 ! R110  R(61,95)                1.8045         estimate D2E/DX2                !
 ! R111  R(62,64)                1.5063         estimate D2E/DX2                !
 ! R112  R(62,94)                1.799          estimate D2E/DX2                !
 ! R113  R(63,64)                1.3841         estimate D2E/DX2                !
 ! R114  R(63,65)                1.3865         estimate D2E/DX2                !
 ! R115  R(64,66)                1.4023         estimate D2E/DX2                !
 ! R116  R(65,67)                1.3842         estimate D2E/DX2                !
 ! R117  R(66,68)                1.4062         estimate D2E/DX2                !
 ! R118  R(67,68)                1.4019         estimate D2E/DX2                !
 ! R119  R(67,69)                1.509          estimate D2E/DX2                !
 ! R120  R(68,70)                1.5223         estimate D2E/DX2                !
 ! R121  R(69,71)                1.4998         estimate D2E/DX2                !
 ! R122  R(69,92)                1.8009         estimate D2E/DX2                !
 ! R123  R(70,72)                1.5066         estimate D2E/DX2                !
 ! R124  R(70,90)                1.8006         estimate D2E/DX2                !
 ! R125  R(71,72)                1.3592         estimate D2E/DX2                !
 ! R126  R(71,73)                1.4305         estimate D2E/DX2                !
 ! R127  R(72,74)                1.4331         estimate D2E/DX2                !
 ! R128  R(73,75)                1.3906         estimate D2E/DX2                !
 ! R129  R(74,76)                1.3878         estimate D2E/DX2                !
 ! R130  R(75,76)                1.4364         estimate D2E/DX2                !
 ! R131  R(75,77)                1.4114         estimate D2E/DX2                !
 ! R132  R(76,78)                1.416          estimate D2E/DX2                !
 ! R133  R(77,81)                1.4571         estimate D2E/DX2                !
 ! R134  R(78,81)                1.4567         estimate D2E/DX2                !
 ! R135  R(79,82)                1.4971         estimate D2E/DX2                !
 ! R136  R(79,88)                1.8115         estimate D2E/DX2                !
 ! R137  R(80,82)                1.4974         estimate D2E/DX2                !
 ! R138  R(80,96)                1.8139         estimate D2E/DX2                !
 ! R139  R(81,82)                1.3398         estimate D2E/DX2                !
 ! R140  R(83,84)                1.4221         estimate D2E/DX2                !
 ! A1    A(5,1,17)             121.6227         estimate D2E/DX2                !
 ! A2    A(5,1,23)             121.5458         estimate D2E/DX2                !
 ! A3    A(17,1,23)            107.0314         estimate D2E/DX2                !
 ! A4    A(6,2,43)             101.8227         estimate D2E/DX2                !
 ! A5    A(6,2,44)             110.0108         estimate D2E/DX2                !
 ! A6    A(6,2,85)             113.1648         estimate D2E/DX2                !
 ! A7    A(43,2,44)            108.5798         estimate D2E/DX2                !
 ! A8    A(43,2,85)            112.7033         estimate D2E/DX2                !
 ! A9    A(44,2,85)            110.2146         estimate D2E/DX2                !
 ! A10   A(7,3,18)             121.53           estimate D2E/DX2                !
 ! A11   A(7,3,26)             108.3982         estimate D2E/DX2                !
 ! A12   A(18,3,26)            122.0381         estimate D2E/DX2                !
 ! A13   A(8,4,45)             109.8808         estimate D2E/DX2                !
 ! A14   A(8,4,46)             101.5816         estimate D2E/DX2                !
 ! A15   A(8,4,91)             113.3285         estimate D2E/DX2                !
 ! A16   A(45,4,46)            109.5987         estimate D2E/DX2                !
 ! A17   A(45,4,91)            110.0201         estimate D2E/DX2                !
 ! A18   A(46,4,91)            112.133          estimate D2E/DX2                !
 ! A19   A(1,5,9)              118.7222         estimate D2E/DX2                !
 ! A20   A(1,5,29)             117.4473         estimate D2E/DX2                !
 ! A21   A(9,5,29)             119.4476         estimate D2E/DX2                !
 ! A22   A(2,6,10)             123.3011         estimate D2E/DX2                !
 ! A23   A(2,6,15)             109.5169         estimate D2E/DX2                !
 ! A24   A(10,6,15)            118.8938         estimate D2E/DX2                !
 ! A25   A(3,7,12)             121.5436         estimate D2E/DX2                !
 ! A26   A(3,7,30)             108.427          estimate D2E/DX2                !
 ! A27   A(12,7,30)            121.5104         estimate D2E/DX2                !
 ! A28   A(4,8,11)             122.2479         estimate D2E/DX2                !
 ! A29   A(4,8,16)             110.1912         estimate D2E/DX2                !
 ! A30   A(11,8,16)            120.3235         estimate D2E/DX2                !
 ! A31   A(5,9,13)             118.5876         estimate D2E/DX2                !
 ! A32   A(5,9,35)             120.6678         estimate D2E/DX2                !
 ! A33   A(13,9,35)            116.791          estimate D2E/DX2                !
 ! A34   A(6,10,49)            122.3557         estimate D2E/DX2                !
 ! A35   A(6,10,53)            120.3399         estimate D2E/DX2                !
 ! A36   A(49,10,53)           111.3444         estimate D2E/DX2                !
 ! A37   A(8,11,50)            122.916          estimate D2E/DX2                !
 ! A38   A(8,11,54)            119.4508         estimate D2E/DX2                !
 ! A39   A(50,11,54)           110.4043         estimate D2E/DX2                !
 ! A40   A(7,12,14)            116.0282         estimate D2E/DX2                !
 ! A41   A(7,12,36)            119.8196         estimate D2E/DX2                !
 ! A42   A(14,12,36)           118.7639         estimate D2E/DX2                !
 ! A43   A(9,13,15)            121.7584         estimate D2E/DX2                !
 ! A44   A(9,13,43)            122.0663         estimate D2E/DX2                !
 ! A45   A(15,13,43)           108.3228         estimate D2E/DX2                !
 ! A46   A(12,14,16)           122.2111         estimate D2E/DX2                !
 ! A47   A(12,14,46)           121.2639         estimate D2E/DX2                !
 ! A48   A(16,14,46)           109.3758         estimate D2E/DX2                !
 ! A49   A(6,15,13)            109.7233         estimate D2E/DX2                !
 ! A50   A(6,15,17)            120.6248         estimate D2E/DX2                !
 ! A51   A(13,15,17)           119.2787         estimate D2E/DX2                !
 ! A52   A(8,16,14)            108.5078         estimate D2E/DX2                !
 ! A53   A(8,16,18)            121.8244         estimate D2E/DX2                !
 ! A54   A(14,16,18)           121.2681         estimate D2E/DX2                !
 ! A55   A(1,17,15)            119.9327         estimate D2E/DX2                !
 ! A56   A(1,17,19)            110.5084         estimate D2E/DX2                !
 ! A57   A(15,17,19)           119.8505         estimate D2E/DX2                !
 ! A58   A(3,18,16)            116.3901         estimate D2E/DX2                !
 ! A59   A(3,18,20)            118.49           estimate D2E/DX2                !
 ! A60   A(16,18,20)           118.0174         estimate D2E/DX2                !
 ! A61   A(17,19,21)           109.9054         estimate D2E/DX2                !
 ! A62   A(17,19,53)           118.7618         estimate D2E/DX2                !
 ! A63   A(21,19,53)           123.3565         estimate D2E/DX2                !
 ! A64   A(18,20,22)           117.87           estimate D2E/DX2                !
 ! A65   A(18,20,54)           118.8277         estimate D2E/DX2                !
 ! A66   A(22,20,54)           116.164          estimate D2E/DX2                !
 ! A67   A(19,21,23)           101.6279         estimate D2E/DX2                !
 ! A68   A(19,21,57)           110.8334         estimate D2E/DX2                !
 ! A69   A(19,21,97)           113.1671         estimate D2E/DX2                !
 ! A70   A(23,21,57)           110.1259         estimate D2E/DX2                !
 ! A71   A(23,21,97)           112.1319         estimate D2E/DX2                !
 ! A72   A(57,21,97)           108.8168         estimate D2E/DX2                !
 ! A73   A(20,22,24)           122.5413         estimate D2E/DX2                !
 ! A74   A(20,22,58)           120.5456         estimate D2E/DX2                !
 ! A75   A(24,22,58)           107.9927         estimate D2E/DX2                !
 ! A76   A(1,23,21)            110.5004         estimate D2E/DX2                !
 ! A77   A(1,23,25)            121.325          estimate D2E/DX2                !
 ! A78   A(21,23,25)           123.326          estimate D2E/DX2                !
 ! A79   A(22,24,26)           119.6735         estimate D2E/DX2                !
 ! A80   A(22,24,62)           110.4178         estimate D2E/DX2                !
 ! A81   A(26,24,62)           122.1566         estimate D2E/DX2                !
 ! A82   A(23,25,27)           120.9833         estimate D2E/DX2                !
 ! A83   A(23,25,61)           121.6514         estimate D2E/DX2                !
 ! A84   A(27,25,61)           112.1822         estimate D2E/DX2                !
 ! A85   A(3,26,24)            119.2651         estimate D2E/DX2                !
 ! A86   A(3,26,28)            110.7637         estimate D2E/DX2                !
 ! A87   A(24,26,28)           122.7617         estimate D2E/DX2                !
 ! A88   A(25,27,29)           113.8316         estimate D2E/DX2                !
 ! A89   A(25,27,65)           100.654          estimate D2E/DX2                !
 ! A90   A(25,27,93)           111.4238         estimate D2E/DX2                !
 ! A91   A(29,27,65)           108.4247         estimate D2E/DX2                !
 ! A92   A(29,27,93)           110.3407         estimate D2E/DX2                !
 ! A93   A(65,27,93)           111.8077         estimate D2E/DX2                !
 ! A94   A(26,28,30)           100.9961         estimate D2E/DX2                !
 ! A95   A(26,28,66)           110.0554         estimate D2E/DX2                !
 ! A96   A(26,28,89)           113.309          estimate D2E/DX2                !
 ! A97   A(30,28,66)           109.1865         estimate D2E/DX2                !
 ! A98   A(30,28,89)           113.948          estimate D2E/DX2                !
 ! A99   A(66,28,89)           109.0814         estimate D2E/DX2                !
 ! A100  A(5,29,27)            121.3663         estimate D2E/DX2                !
 ! A101  A(5,29,31)            119.1852         estimate D2E/DX2                !
 ! A102  A(27,29,31)           117.1549         estimate D2E/DX2                !
 ! A103  A(7,30,28)            111.2022         estimate D2E/DX2                !
 ! A104  A(7,30,32)            119.2453         estimate D2E/DX2                !
 ! A105  A(28,30,32)           122.5208         estimate D2E/DX2                !
 ! A106  A(29,31,33)           121.327          estimate D2E/DX2                !
 ! A107  A(29,31,69)           124.4582         estimate D2E/DX2                !
 ! A108  A(33,31,69)           109.8033         estimate D2E/DX2                !
 ! A109  A(30,32,34)           120.1574         estimate D2E/DX2                !
 ! A110  A(30,32,70)           121.687          estimate D2E/DX2                !
 ! A111  A(34,32,70)           111.333          estimate D2E/DX2                !
 ! A112  A(31,33,35)           121.789          estimate D2E/DX2                !
 ! A113  A(31,33,73)           108.5403         estimate D2E/DX2                !
 ! A114  A(35,33,73)           122.1808         estimate D2E/DX2                !
 ! A115  A(32,34,36)           122.4394         estimate D2E/DX2                !
 ! A116  A(32,34,74)           107.5902         estimate D2E/DX2                !
 ! A117  A(36,34,74)           121.6746         estimate D2E/DX2                !
 ! A118  A(9,35,33)            116.7511         estimate D2E/DX2                !
 ! A119  A(9,35,37)            120.3947         estimate D2E/DX2                !
 ! A120  A(33,35,37)           118.768          estimate D2E/DX2                !
 ! A121  A(12,36,34)           116.4872         estimate D2E/DX2                !
 ! A122  A(12,36,38)           119.3321         estimate D2E/DX2                !
 ! A123  A(34,36,38)           119.0546         estimate D2E/DX2                !
 ! A124  A(35,37,39)           119.6351         estimate D2E/DX2                !
 ! A125  A(35,37,77)           118.0661         estimate D2E/DX2                !
 ! A126  A(39,37,77)           117.5861         estimate D2E/DX2                !
 ! A127  A(36,38,42)           119.8043         estimate D2E/DX2                !
 ! A128  A(36,38,78)           117.9714         estimate D2E/DX2                !
 ! A129  A(42,38,78)           117.699          estimate D2E/DX2                !
 ! A130  A(37,39,43)           118.9997         estimate D2E/DX2                !
 ! A131  A(37,39,79)           121.9387         estimate D2E/DX2                !
 ! A132  A(43,39,79)           116.7466         estimate D2E/DX2                !
 ! A133  A(41,40,44)           121.1757         estimate D2E/DX2                !
 ! A134  A(41,40,79)           111.3075         estimate D2E/DX2                !
 ! A135  A(44,40,79)           125.0272         estimate D2E/DX2                !
 ! A136  A(40,41,45)           120.6463         estimate D2E/DX2                !
 ! A137  A(40,41,80)           111.6667         estimate D2E/DX2                !
 ! A138  A(45,41,80)           125.279          estimate D2E/DX2                !
 ! A139  A(38,42,46)           119.6811         estimate D2E/DX2                !
 ! A140  A(38,42,80)           121.5202         estimate D2E/DX2                !
 ! A141  A(46,42,80)           116.5673         estimate D2E/DX2                !
 ! A142  A(2,43,13)            109.5827         estimate D2E/DX2                !
 ! A143  A(2,43,39)            124.7147         estimate D2E/DX2                !
 ! A144  A(13,43,39)           121.1237         estimate D2E/DX2                !
 ! A145  A(2,44,40)            115.9359         estimate D2E/DX2                !
 ! A146  A(2,44,47)            123.7339         estimate D2E/DX2                !
 ! A147  A(40,44,47)           119.1004         estimate D2E/DX2                !
 ! A148  A(4,45,41)            116.156          estimate D2E/DX2                !
 ! A149  A(4,45,48)            123.7158         estimate D2E/DX2                !
 ! A150  A(41,45,48)           118.9115         estimate D2E/DX2                !
 ! A151  A(4,46,14)            109.2175         estimate D2E/DX2                !
 ! A152  A(4,46,42)            125.3031         estimate D2E/DX2                !
 ! A153  A(14,46,42)           121.0321         estimate D2E/DX2                !
 ! A154  A(44,47,48)           119.5341         estimate D2E/DX2                !
 ! A155  A(44,47,49)           119.38           estimate D2E/DX2                !
 ! A156  A(48,47,49)           120.463          estimate D2E/DX2                !
 ! A157  A(45,48,47)           120.5877         estimate D2E/DX2                !
 ! A158  A(45,48,50)           118.8521         estimate D2E/DX2                !
 ! A159  A(47,48,50)           119.8421         estimate D2E/DX2                !
 ! A160  A(10,49,47)           110.4829         estimate D2E/DX2                !
 ! A161  A(10,49,51)           100.9983         estimate D2E/DX2                !
 ! A162  A(10,49,86)           113.0143         estimate D2E/DX2                !
 ! A163  A(47,49,51)           110.4822         estimate D2E/DX2                !
 ! A164  A(47,49,86)           108.3682         estimate D2E/DX2                !
 ! A165  A(51,49,86)           113.3752         estimate D2E/DX2                !
 ! A166  A(11,50,48)           110.2384         estimate D2E/DX2                !
 ! A167  A(11,50,52)           101.3607         estimate D2E/DX2                !
 ! A168  A(11,50,87)           113.2772         estimate D2E/DX2                !
 ! A169  A(48,50,52)           109.4741         estimate D2E/DX2                !
 ! A170  A(48,50,87)           109.2555         estimate D2E/DX2                !
 ! A171  A(52,50,87)           113.0            estimate D2E/DX2                !
 ! A172  A(49,51,52)           120.9371         estimate D2E/DX2                !
 ! A173  A(49,51,55)           113.4456         estimate D2E/DX2                !
 ! A174  A(52,51,55)           121.7982         estimate D2E/DX2                !
 ! A175  A(50,52,51)           123.2656         estimate D2E/DX2                !
 ! A176  A(50,52,56)           110.4118         estimate D2E/DX2                !
 ! A177  A(51,52,56)           120.7994         estimate D2E/DX2                !
 ! A178  A(10,53,19)           121.3081         estimate D2E/DX2                !
 ! A179  A(10,53,55)           111.4066         estimate D2E/DX2                !
 ! A180  A(19,53,55)           121.3583         estimate D2E/DX2                !
 ! A181  A(11,54,20)           121.409          estimate D2E/DX2                !
 ! A182  A(11,54,56)           108.9307         estimate D2E/DX2                !
 ! A183  A(20,54,56)           122.1719         estimate D2E/DX2                !
 ! A184  A(51,55,53)           101.115          estimate D2E/DX2                !
 ! A185  A(51,55,83)           112.6085         estimate D2E/DX2                !
 ! A186  A(51,55,98)           111.0791         estimate D2E/DX2                !
 ! A187  A(53,55,83)           111.0983         estimate D2E/DX2                !
 ! A188  A(53,55,98)           112.5076         estimate D2E/DX2                !
 ! A189  A(83,55,98)           108.3798         estimate D2E/DX2                !
 ! A190  A(52,56,54)           108.6512         estimate D2E/DX2                !
 ! A191  A(52,56,84)           119.6973         estimate D2E/DX2                !
 ! A192  A(54,56,84)           121.3369         estimate D2E/DX2                !
 ! A193  A(21,57,59)           117.6967         estimate D2E/DX2                !
 ! A194  A(21,57,83)           120.4144         estimate D2E/DX2                !
 ! A195  A(59,57,83)           121.0924         estimate D2E/DX2                !
 ! A196  A(22,58,60)           109.5024         estimate D2E/DX2                !
 ! A197  A(22,58,84)           122.6303         estimate D2E/DX2                !
 ! A198  A(60,58,84)           121.3157         estimate D2E/DX2                !
 ! A199  A(57,59,60)           119.3826         estimate D2E/DX2                !
 ! A200  A(57,59,61)           123.0118         estimate D2E/DX2                !
 ! A201  A(60,59,61)           115.7976         estimate D2E/DX2                !
 ! A202  A(58,60,59)           120.0525         estimate D2E/DX2                !
 ! A203  A(58,60,62)           109.6597         estimate D2E/DX2                !
 ! A204  A(59,60,62)           125.9166         estimate D2E/DX2                !
 ! A205  A(25,61,59)           111.9199         estimate D2E/DX2                !
 ! A206  A(25,61,63)           100.0987         estimate D2E/DX2                !
 ! A207  A(25,61,95)           113.5909         estimate D2E/DX2                !
 ! A208  A(59,61,63)           108.5724         estimate D2E/DX2                !
 ! A209  A(59,61,95)           110.4166         estimate D2E/DX2                !
 ! A210  A(63,61,95)           111.7685         estimate D2E/DX2                !
 ! A211  A(24,62,60)           101.344          estimate D2E/DX2                !
 ! A212  A(24,62,64)           110.0083         estimate D2E/DX2                !
 ! A213  A(24,62,94)           113.4352         estimate D2E/DX2                !
 ! A214  A(60,62,64)           108.8059         estimate D2E/DX2                !
 ! A215  A(60,62,94)           112.6547         estimate D2E/DX2                !
 ! A216  A(64,62,94)           110.2228         estimate D2E/DX2                !
 ! A217  A(61,63,64)           125.603          estimate D2E/DX2                !
 ! A218  A(61,63,65)           111.5771         estimate D2E/DX2                !
 ! A219  A(64,63,65)           120.5015         estimate D2E/DX2                !
 ! A220  A(62,64,63)           115.9395         estimate D2E/DX2                !
 ! A221  A(62,64,66)           123.7461         estimate D2E/DX2                !
 ! A222  A(63,64,66)           119.1376         estimate D2E/DX2                !
 ! A223  A(27,65,63)           111.179          estimate D2E/DX2                !
 ! A224  A(27,65,67)           124.9844         estimate D2E/DX2                !
 ! A225  A(63,65,67)           121.3301         estimate D2E/DX2                !
 ! A226  A(28,66,64)           118.7091         estimate D2E/DX2                !
 ! A227  A(28,66,68)           120.4345         estimate D2E/DX2                !
 ! A228  A(64,66,68)           120.2352         estimate D2E/DX2                !
 ! A229  A(65,67,68)           118.9652         estimate D2E/DX2                !
 ! A230  A(65,67,69)           115.948          estimate D2E/DX2                !
 ! A231  A(68,67,69)           123.93           estimate D2E/DX2                !
 ! A232  A(66,68,67)           119.7839         estimate D2E/DX2                !
 ! A233  A(66,68,70)           120.5779         estimate D2E/DX2                !
 ! A234  A(67,68,70)           119.0766         estimate D2E/DX2                !
 ! A235  A(31,69,67)           108.4113         estimate D2E/DX2                !
 ! A236  A(31,69,71)           101.9203         estimate D2E/DX2                !
 ! A237  A(31,69,92)           112.6541         estimate D2E/DX2                !
 ! A238  A(67,69,71)           110.5078         estimate D2E/DX2                !
 ! A239  A(67,69,92)           109.9539         estimate D2E/DX2                !
 ! A240  A(71,69,92)           113.0863         estimate D2E/DX2                !
 ! A241  A(32,70,68)           109.0017         estimate D2E/DX2                !
 ! A242  A(32,70,72)           101.4043         estimate D2E/DX2                !
 ! A243  A(32,70,90)           113.719          estimate D2E/DX2                !
 ! A244  A(68,70,72)           110.6009         estimate D2E/DX2                !
 ! A245  A(68,70,90)           108.6535         estimate D2E/DX2                !
 ! A246  A(72,70,90)           113.2722         estimate D2E/DX2                !
 ! A247  A(69,71,72)           122.4664         estimate D2E/DX2                !
 ! A248  A(69,71,73)           109.3533         estimate D2E/DX2                !
 ! A249  A(72,71,73)           119.7843         estimate D2E/DX2                !
 ! A250  A(70,72,71)           123.1615         estimate D2E/DX2                !
 ! A251  A(70,72,74)           109.582          estimate D2E/DX2                !
 ! A252  A(71,72,74)           119.3093         estimate D2E/DX2                !
 ! A253  A(33,73,71)           109.3787         estimate D2E/DX2                !
 ! A254  A(33,73,75)           118.5755         estimate D2E/DX2                !
 ! A255  A(71,73,75)           121.5532         estimate D2E/DX2                !
 ! A256  A(34,74,72)           109.4681         estimate D2E/DX2                !
 ! A257  A(34,74,76)           118.7162         estimate D2E/DX2                !
 ! A258  A(72,74,76)           121.6893         estimate D2E/DX2                !
 ! A259  A(73,75,76)           118.5675         estimate D2E/DX2                !
 ! A260  A(73,75,77)           120.3801         estimate D2E/DX2                !
 ! A261  A(76,75,77)           109.1306         estimate D2E/DX2                !
 ! A262  A(74,76,75)           118.8584         estimate D2E/DX2                !
 ! A263  A(74,76,78)           120.4974         estimate D2E/DX2                !
 ! A264  A(75,76,78)           108.7989         estimate D2E/DX2                !
 ! A265  A(37,77,75)           121.9654         estimate D2E/DX2                !
 ! A266  A(37,77,81)           120.1143         estimate D2E/DX2                !
 ! A267  A(75,77,81)           106.7597         estimate D2E/DX2                !
 ! A268  A(38,78,76)           121.8343         estimate D2E/DX2                !
 ! A269  A(38,78,81)           120.3513         estimate D2E/DX2                !
 ! A270  A(76,78,81)           106.7131         estimate D2E/DX2                !
 ! A271  A(39,79,40)           108.5114         estimate D2E/DX2                !
 ! A272  A(39,79,82)           113.4277         estimate D2E/DX2                !
 ! A273  A(39,79,88)           110.3095         estimate D2E/DX2                !
 ! A274  A(40,79,82)           100.2297         estimate D2E/DX2                !
 ! A275  A(40,79,88)           111.8077         estimate D2E/DX2                !
 ! A276  A(82,79,88)           112.152          estimate D2E/DX2                !
 ! A277  A(41,80,42)           109.4306         estimate D2E/DX2                !
 ! A278  A(41,80,82)            99.9239         estimate D2E/DX2                !
 ! A279  A(41,80,96)           111.2942         estimate D2E/DX2                !
 ! A280  A(42,80,82)           113.5799         estimate D2E/DX2                !
 ! A281  A(42,80,96)           109.9485         estimate D2E/DX2                !
 ! A282  A(82,80,96)           112.2925         estimate D2E/DX2                !
 ! A283  A(77,81,78)           107.8638         estimate D2E/DX2                !
 ! A284  A(77,81,82)           122.226          estimate D2E/DX2                !
 ! A285  A(78,81,82)           122.2935         estimate D2E/DX2                !
 ! A286  A(79,82,80)           112.6322         estimate D2E/DX2                !
 ! A287  A(79,82,81)           120.7717         estimate D2E/DX2                !
 ! A288  A(80,82,81)           120.8311         estimate D2E/DX2                !
 ! A289  A(55,83,57)           122.1593         estimate D2E/DX2                !
 ! A290  A(55,83,84)           117.1441         estimate D2E/DX2                !
 ! A291  A(57,83,84)           119.4502         estimate D2E/DX2                !
 ! A292  A(56,84,58)           115.6857         estimate D2E/DX2                !
 ! A293  A(56,84,83)           121.0801         estimate D2E/DX2                !
 ! A294  A(58,84,83)           118.5403         estimate D2E/DX2                !
 ! D1    D(17,1,5,9)             1.9929         estimate D2E/DX2                !
 ! D2    D(17,1,5,29)         -154.4035         estimate D2E/DX2                !
 ! D3    D(23,1,5,9)           143.4023         estimate D2E/DX2                !
 ! D4    D(23,1,5,29)          -12.9941         estimate D2E/DX2                !
 ! D5    D(5,1,17,15)           -3.7424         estimate D2E/DX2                !
 ! D6    D(5,1,17,19)          142.2115         estimate D2E/DX2                !
 ! D7    D(23,1,17,15)        -149.9658         estimate D2E/DX2                !
 ! D8    D(23,1,17,19)          -4.012          estimate D2E/DX2                !
 ! D9    D(5,1,23,21)         -146.4043         estimate D2E/DX2                !
 ! D10   D(5,1,23,25)            9.6871         estimate D2E/DX2                !
 ! D11   D(17,1,23,21)          -0.1493         estimate D2E/DX2                !
 ! D12   D(17,1,23,25)         155.9421         estimate D2E/DX2                !
 ! D13   D(43,2,6,10)         -137.6345         estimate D2E/DX2                !
 ! D14   D(43,2,6,15)           10.166          estimate D2E/DX2                !
 ! D15   D(44,2,6,10)          -22.6306         estimate D2E/DX2                !
 ! D16   D(44,2,6,15)          125.1699         estimate D2E/DX2                !
 ! D17   D(85,2,6,10)          101.136          estimate D2E/DX2                !
 ! D18   D(85,2,6,15)         -111.0635         estimate D2E/DX2                !
 ! D19   D(6,2,43,13)           -7.6321         estimate D2E/DX2                !
 ! D20   D(6,2,43,39)          148.416          estimate D2E/DX2                !
 ! D21   D(44,2,43,13)        -123.685          estimate D2E/DX2                !
 ! D22   D(44,2,43,39)          32.363          estimate D2E/DX2                !
 ! D23   D(85,2,43,13)         113.9175         estimate D2E/DX2                !
 ! D24   D(85,2,43,39)         -90.0345         estimate D2E/DX2                !
 ! D25   D(6,2,44,40)         -147.0898         estimate D2E/DX2                !
 ! D26   D(6,2,44,47)           20.0905         estimate D2E/DX2                !
 ! D27   D(43,2,44,40)         -36.4521         estimate D2E/DX2                !
 ! D28   D(43,2,44,47)         130.7282         estimate D2E/DX2                !
 ! D29   D(85,2,44,40)          87.4435         estimate D2E/DX2                !
 ! D30   D(85,2,44,47)        -105.3762         estimate D2E/DX2                !
 ! D31   D(18,3,7,12)            3.427          estimate D2E/DX2                !
 ! D32   D(18,3,7,30)          151.7404         estimate D2E/DX2                !
 ! D33   D(26,3,7,12)         -145.8852         estimate D2E/DX2                !
 ! D34   D(26,3,7,30)            2.4281         estimate D2E/DX2                !
 ! D35   D(7,3,18,16)            5.9678         estimate D2E/DX2                !
 ! D36   D(7,3,18,20)         -144.0218         estimate D2E/DX2                !
 ! D37   D(26,3,18,16)         151.1282         estimate D2E/DX2                !
 ! D38   D(26,3,18,20)           1.1385         estimate D2E/DX2                !
 ! D39   D(7,3,26,24)          146.6109         estimate D2E/DX2                !
 ! D40   D(7,3,26,28)           -4.5367         estimate D2E/DX2                !
 ! D41   D(18,3,26,24)          -2.5138         estimate D2E/DX2                !
 ! D42   D(18,3,26,28)        -153.6614         estimate D2E/DX2                !
 ! D43   D(45,4,8,11)           24.8741         estimate D2E/DX2                !
 ! D44   D(45,4,8,16)         -125.361          estimate D2E/DX2                !
 ! D45   D(46,4,8,11)          140.8638         estimate D2E/DX2                !
 ! D46   D(46,4,8,16)           -9.3713         estimate D2E/DX2                !
 ! D47   D(91,4,8,11)          -98.6582         estimate D2E/DX2                !
 ! D48   D(91,4,8,16)          111.1067         estimate D2E/DX2                !
 ! D49   D(8,4,45,41)          144.3217         estimate D2E/DX2                !
 ! D50   D(8,4,45,48)          -22.9048         estimate D2E/DX2                !
 ! D51   D(46,4,45,41)          33.5054         estimate D2E/DX2                !
 ! D52   D(46,4,45,48)        -133.721          estimate D2E/DX2                !
 ! D53   D(91,4,45,41)         -90.2318         estimate D2E/DX2                !
 ! D54   D(91,4,45,48)         102.5418         estimate D2E/DX2                !
 ! D55   D(8,4,46,14)           10.5442         estimate D2E/DX2                !
 ! D56   D(8,4,46,42)         -145.7743         estimate D2E/DX2                !
 ! D57   D(45,4,46,14)         126.7406         estimate D2E/DX2                !
 ! D58   D(45,4,46,42)         -29.5779         estimate D2E/DX2                !
 ! D59   D(91,4,46,14)        -110.7708         estimate D2E/DX2                !
 ! D60   D(91,4,46,42)          92.9107         estimate D2E/DX2                !
 ! D61   D(1,5,9,13)             0.6171         estimate D2E/DX2                !
 ! D62   D(1,5,9,35)          -156.2989         estimate D2E/DX2                !
 ! D63   D(29,5,9,13)          156.5345         estimate D2E/DX2                !
 ! D64   D(29,5,9,35)           -0.3815         estimate D2E/DX2                !
 ! D65   D(1,5,29,27)           -0.1666         estimate D2E/DX2                !
 ! D66   D(1,5,29,31)          162.1448         estimate D2E/DX2                !
 ! D67   D(9,5,29,27)         -156.386          estimate D2E/DX2                !
 ! D68   D(9,5,29,31)            5.9255         estimate D2E/DX2                !
 ! D69   D(2,6,10,49)           -1.6096         estimate D2E/DX2                !
 ! D70   D(2,6,10,53)          148.8541         estimate D2E/DX2                !
 ! D71   D(15,6,10,49)        -146.6036         estimate D2E/DX2                !
 ! D72   D(15,6,10,53)           3.8601         estimate D2E/DX2                !
 ! D73   D(2,6,15,13)           -9.4032         estimate D2E/DX2                !
 ! D74   D(2,6,15,17)         -154.0875         estimate D2E/DX2                !
 ! D75   D(10,6,15,13)         140.02           estimate D2E/DX2                !
 ! D76   D(10,6,15,17)          -4.6643         estimate D2E/DX2                !
 ! D77   D(3,7,12,14)           -8.9559         estimate D2E/DX2                !
 ! D78   D(3,7,12,36)          144.8283         estimate D2E/DX2                !
 ! D79   D(30,7,12,14)        -153.1859         estimate D2E/DX2                !
 ! D80   D(30,7,12,36)           0.5983         estimate D2E/DX2                !
 ! D81   D(3,7,30,28)            0.5632         estimate D2E/DX2                !
 ! D82   D(3,7,30,32)         -150.8483         estimate D2E/DX2                !
 ! D83   D(12,7,30,28)         148.8891         estimate D2E/DX2                !
 ! D84   D(12,7,30,32)          -2.5224         estimate D2E/DX2                !
 ! D85   D(4,8,11,50)            1.1286         estimate D2E/DX2                !
 ! D86   D(4,8,11,54)         -146.2712         estimate D2E/DX2                !
 ! D87   D(16,8,11,50)         148.4598         estimate D2E/DX2                !
 ! D88   D(16,8,11,54)           1.06           estimate D2E/DX2                !
 ! D89   D(4,8,16,14)            5.022          estimate D2E/DX2                !
 ! D90   D(4,8,16,18)          153.4456         estimate D2E/DX2                !
 ! D91   D(11,8,16,14)        -145.873          estimate D2E/DX2                !
 ! D92   D(11,8,16,18)           2.5506         estimate D2E/DX2                !
 ! D93   D(5,9,13,15)           -1.5304         estimate D2E/DX2                !
 ! D94   D(5,9,13,43)         -147.0272         estimate D2E/DX2                !
 ! D95   D(35,9,13,15)         156.2723         estimate D2E/DX2                !
 ! D96   D(35,9,13,43)          10.7755         estimate D2E/DX2                !
 ! D97   D(5,9,35,33)           -7.3627         estimate D2E/DX2                !
 ! D98   D(5,9,35,37)          149.6355         estimate D2E/DX2                !
 ! D99   D(13,9,35,33)        -164.6768         estimate D2E/DX2                !
 ! D100  D(13,9,35,37)          -7.6785         estimate D2E/DX2                !
 ! D101  D(6,10,49,47)          27.9166         estimate D2E/DX2                !
 ! D102  D(6,10,49,51)         144.8606         estimate D2E/DX2                !
 ! D103  D(6,10,49,86)         -93.6944         estimate D2E/DX2                !
 ! D104  D(53,10,49,47)       -124.9032         estimate D2E/DX2                !
 ! D105  D(53,10,49,51)         -7.9592         estimate D2E/DX2                !
 ! D106  D(53,10,49,86)        113.4858         estimate D2E/DX2                !
 ! D107  D(6,10,53,19)           0.2457         estimate D2E/DX2                !
 ! D108  D(6,10,53,55)        -152.9618         estimate D2E/DX2                !
 ! D109  D(49,10,53,19)        153.6876         estimate D2E/DX2                !
 ! D110  D(49,10,53,55)          0.4802         estimate D2E/DX2                !
 ! D111  D(8,11,50,48)         -29.1593         estimate D2E/DX2                !
 ! D112  D(8,11,50,52)        -145.0399         estimate D2E/DX2                !
 ! D113  D(8,11,50,87)          93.6084         estimate D2E/DX2                !
 ! D114  D(54,11,50,48)        120.8036         estimate D2E/DX2                !
 ! D115  D(54,11,50,52)          4.923          estimate D2E/DX2                !
 ! D116  D(54,11,50,87)       -116.4286         estimate D2E/DX2                !
 ! D117  D(8,11,54,20)          -3.1694         estimate D2E/DX2                !
 ! D118  D(8,11,54,56)         147.1707         estimate D2E/DX2                !
 ! D119  D(50,11,54,20)       -154.3166         estimate D2E/DX2                !
 ! D120  D(50,11,54,56)         -3.9764         estimate D2E/DX2                !
 ! D121  D(7,12,14,16)           5.3008         estimate D2E/DX2                !
 ! D122  D(7,12,14,46)         152.5712         estimate D2E/DX2                !
 ! D123  D(36,12,14,16)       -148.7731         estimate D2E/DX2                !
 ! D124  D(36,12,14,46)         -1.5027         estimate D2E/DX2                !
 ! D125  D(7,12,36,34)           4.0076         estimate D2E/DX2                !
 ! D126  D(7,12,36,38)        -150.4665         estimate D2E/DX2                !
 ! D127  D(14,12,36,34)        157.0826         estimate D2E/DX2                !
 ! D128  D(14,12,36,38)          2.6085         estimate D2E/DX2                !
 ! D129  D(9,13,15,6)         -145.3959         estimate D2E/DX2                !
 ! D130  D(9,13,15,17)          -0.1675         estimate D2E/DX2                !
 ! D131  D(43,13,15,6)           4.2284         estimate D2E/DX2                !
 ! D132  D(43,13,15,17)        149.4568         estimate D2E/DX2                !
 ! D133  D(9,13,43,2)          152.0139         estimate D2E/DX2                !
 ! D134  D(9,13,43,39)          -5.0428         estimate D2E/DX2                !
 ! D135  D(15,13,43,2)           2.5022         estimate D2E/DX2                !
 ! D136  D(15,13,43,39)       -154.5545         estimate D2E/DX2                !
 ! D137  D(12,14,16,8)         152.7329         estimate D2E/DX2                !
 ! D138  D(12,14,16,18)          4.1002         estimate D2E/DX2                !
 ! D139  D(46,14,16,8)           2.0674         estimate D2E/DX2                !
 ! D140  D(46,14,16,18)       -146.5653         estimate D2E/DX2                !
 ! D141  D(12,14,46,4)        -159.2538         estimate D2E/DX2                !
 ! D142  D(12,14,46,42)         -1.7449         estimate D2E/DX2                !
 ! D143  D(16,14,46,4)          -8.2613         estimate D2E/DX2                !
 ! D144  D(16,14,46,42)        149.2476         estimate D2E/DX2                !
 ! D145  D(6,15,17,1)          144.1763         estimate D2E/DX2                !
 ! D146  D(6,15,17,19)           1.3755         estimate D2E/DX2                !
 ! D147  D(13,15,17,1)           2.7752         estimate D2E/DX2                !
 ! D148  D(13,15,17,19)       -140.0256         estimate D2E/DX2                !
 ! D149  D(8,16,18,3)         -154.1091         estimate D2E/DX2                !
 ! D150  D(8,16,18,20)          -3.9732         estimate D2E/DX2                !
 ! D151  D(14,16,18,3)          -9.6253         estimate D2E/DX2                !
 ! D152  D(14,16,18,20)        140.5106         estimate D2E/DX2                !
 ! D153  D(1,17,19,21)           6.7088         estimate D2E/DX2                !
 ! D154  D(1,17,19,53)        -143.2697         estimate D2E/DX2                !
 ! D155  D(15,17,19,21)        152.6946         estimate D2E/DX2                !
 ! D156  D(15,17,19,53)          2.7161         estimate D2E/DX2                !
 ! D157  D(3,18,20,22)           1.9733         estimate D2E/DX2                !
 ! D158  D(3,18,20,54)         151.3348         estimate D2E/DX2                !
 ! D159  D(16,18,20,22)       -147.5284         estimate D2E/DX2                !
 ! D160  D(16,18,20,54)          1.8331         estimate D2E/DX2                !
 ! D161  D(17,19,21,23)         -6.2513         estimate D2E/DX2                !
 ! D162  D(17,19,21,57)       -123.263          estimate D2E/DX2                !
 ! D163  D(17,19,21,97)        114.1749         estimate D2E/DX2                !
 ! D164  D(53,19,21,23)        142.0737         estimate D2E/DX2                !
 ! D165  D(53,19,21,57)         25.0619         estimate D2E/DX2                !
 ! D166  D(53,19,21,97)        -97.5002         estimate D2E/DX2                !
 ! D167  D(17,19,53,10)         -3.5557         estimate D2E/DX2                !
 ! D168  D(17,19,53,55)        147.0082         estimate D2E/DX2                !
 ! D169  D(21,19,53,10)       -149.2772         estimate D2E/DX2                !
 ! D170  D(21,19,53,55)          1.2867         estimate D2E/DX2                !
 ! D171  D(18,20,22,24)         -3.8759         estimate D2E/DX2                !
 ! D172  D(18,20,22,58)        139.4467         estimate D2E/DX2                !
 ! D173  D(54,20,22,24)       -154.0456         estimate D2E/DX2                !
 ! D174  D(54,20,22,58)        -10.7229         estimate D2E/DX2                !
 ! D175  D(18,20,54,11)          1.6638         estimate D2E/DX2                !
 ! D176  D(18,20,54,56)       -144.7635         estimate D2E/DX2                !
 ! D177  D(22,20,54,11)        151.5354         estimate D2E/DX2                !
 ! D178  D(22,20,54,56)          5.108          estimate D2E/DX2                !
 ! D179  D(19,21,23,1)           3.8495         estimate D2E/DX2                !
 ! D180  D(19,21,23,25)       -151.673          estimate D2E/DX2                !
 ! D181  D(57,21,23,1)         121.3739         estimate D2E/DX2                !
 ! D182  D(57,21,23,25)        -34.1486         estimate D2E/DX2                !
 ! D183  D(97,21,23,1)        -117.3016         estimate D2E/DX2                !
 ! D184  D(97,21,23,25)         87.1759         estimate D2E/DX2                !
 ! D185  D(19,21,57,59)        144.2908         estimate D2E/DX2                !
 ! D186  D(19,21,57,83)        -25.5999         estimate D2E/DX2                !
 ! D187  D(23,21,57,59)         32.6289         estimate D2E/DX2                !
 ! D188  D(23,21,57,83)       -137.2618         estimate D2E/DX2                !
 ! D189  D(97,21,57,59)        -90.6536         estimate D2E/DX2                !
 ! D190  D(97,21,57,83)         99.4557         estimate D2E/DX2                !
 ! D191  D(20,22,24,26)          2.5686         estimate D2E/DX2                !
 ! D192  D(20,22,24,62)        152.535          estimate D2E/DX2                !
 ! D193  D(58,22,24,26)       -144.6887         estimate D2E/DX2                !
 ! D194  D(58,22,24,62)          5.2777         estimate D2E/DX2                !
 ! D195  D(20,22,58,60)       -146.3812         estimate D2E/DX2                !
 ! D196  D(20,22,58,84)          5.4409         estimate D2E/DX2                !
 ! D197  D(24,22,58,60)          1.6522         estimate D2E/DX2                !
 ! D198  D(24,22,58,84)        153.4744         estimate D2E/DX2                !
 ! D199  D(1,23,25,27)           7.4751         estimate D2E/DX2                !
 ! D200  D(1,23,25,61)        -145.0843         estimate D2E/DX2                !
 ! D201  D(21,23,25,27)        160.4538         estimate D2E/DX2                !
 ! D202  D(21,23,25,61)          7.8944         estimate D2E/DX2                !
 ! D203  D(22,24,26,3)           0.6727         estimate D2E/DX2                !
 ! D204  D(22,24,26,28)        148.2226         estimate D2E/DX2                !
 ! D205  D(62,24,26,3)        -145.6816         estimate D2E/DX2                !
 ! D206  D(62,24,26,28)          1.8683         estimate D2E/DX2                !
 ! D207  D(22,24,62,60)         -9.3498         estimate D2E/DX2                !
 ! D208  D(22,24,62,64)       -124.3712         estimate D2E/DX2                !
 ! D209  D(22,24,62,94)        111.6565         estimate D2E/DX2                !
 ! D210  D(26,24,62,60)        139.7416         estimate D2E/DX2                !
 ! D211  D(26,24,62,64)         24.7202         estimate D2E/DX2                !
 ! D212  D(26,24,62,94)        -99.252          estimate D2E/DX2                !
 ! D213  D(23,25,27,29)        -19.0412         estimate D2E/DX2                !
 ! D214  D(23,25,27,65)       -134.8057         estimate D2E/DX2                !
 ! D215  D(23,25,27,93)        106.5166         estimate D2E/DX2                !
 ! D216  D(61,25,27,29)        135.8943         estimate D2E/DX2                !
 ! D217  D(61,25,27,65)         20.1298         estimate D2E/DX2                !
 ! D218  D(61,25,27,93)        -98.5478         estimate D2E/DX2                !
 ! D219  D(23,25,61,59)         19.1024         estimate D2E/DX2                !
 ! D220  D(23,25,61,63)        133.9619         estimate D2E/DX2                !
 ! D221  D(23,25,61,95)       -106.7748         estimate D2E/DX2                !
 ! D222  D(27,25,61,59)       -135.6422         estimate D2E/DX2                !
 ! D223  D(27,25,61,63)        -20.7827         estimate D2E/DX2                !
 ! D224  D(27,25,61,95)         98.4806         estimate D2E/DX2                !
 ! D225  D(3,26,28,30)           4.5556         estimate D2E/DX2                !
 ! D226  D(3,26,28,66)         119.8544         estimate D2E/DX2                !
 ! D227  D(3,26,28,89)        -117.7181         estimate D2E/DX2                !
 ! D228  D(24,26,28,30)       -145.405          estimate D2E/DX2                !
 ! D229  D(24,26,28,66)        -30.1062         estimate D2E/DX2                !
 ! D230  D(24,26,28,89)         92.3213         estimate D2E/DX2                !
 ! D231  D(25,27,29,5)          15.331          estimate D2E/DX2                !
 ! D232  D(25,27,29,31)       -147.3237         estimate D2E/DX2                !
 ! D233  D(65,27,29,5)         126.4421         estimate D2E/DX2                !
 ! D234  D(65,27,29,31)        -36.2125         estimate D2E/DX2                !
 ! D235  D(93,27,29,5)        -110.7989         estimate D2E/DX2                !
 ! D236  D(93,27,29,31)         86.5465         estimate D2E/DX2                !
 ! D237  D(25,27,65,63)        -10.9813         estimate D2E/DX2                !
 ! D238  D(25,27,65,67)        151.149          estimate D2E/DX2                !
 ! D239  D(29,27,65,63)       -130.7184         estimate D2E/DX2                !
 ! D240  D(29,27,65,67)         31.4119         estimate D2E/DX2                !
 ! D241  D(93,27,65,63)        107.4166         estimate D2E/DX2                !
 ! D242  D(93,27,65,67)        -90.4532         estimate D2E/DX2                !
 ! D243  D(26,28,30,7)          -3.0607         estimate D2E/DX2                !
 ! D244  D(26,28,30,32)        147.2586         estimate D2E/DX2                !
 ! D245  D(66,28,30,7)        -119.0054         estimate D2E/DX2                !
 ! D246  D(66,28,30,32)         31.3139         estimate D2E/DX2                !
 ! D247  D(89,28,30,7)         118.7665         estimate D2E/DX2                !
 ! D248  D(89,28,30,32)        -90.9142         estimate D2E/DX2                !
 ! D249  D(26,28,66,64)         30.8878         estimate D2E/DX2                !
 ! D250  D(26,28,66,68)       -140.0996         estimate D2E/DX2                !
 ! D251  D(30,28,66,64)        140.8884         estimate D2E/DX2                !
 ! D252  D(30,28,66,68)        -30.099          estimate D2E/DX2                !
 ! D253  D(89,28,66,64)        -94.0023         estimate D2E/DX2                !
 ! D254  D(89,28,66,68)         95.0103         estimate D2E/DX2                !
 ! D255  D(5,29,31,33)          -3.477          estimate D2E/DX2                !
 ! D256  D(5,29,31,69)        -157.4616         estimate D2E/DX2                !
 ! D257  D(27,29,31,33)        159.5705         estimate D2E/DX2                !
 ! D258  D(27,29,31,69)          5.586          estimate D2E/DX2                !
 ! D259  D(7,30,32,34)          -0.36           estimate D2E/DX2                !
 ! D260  D(7,30,32,70)         148.1908         estimate D2E/DX2                !
 ! D261  D(28,30,32,34)       -148.4162         estimate D2E/DX2                !
 ! D262  D(28,30,32,70)          0.1346         estimate D2E/DX2                !
 ! D263  D(29,31,33,35)         -4.7787         estimate D2E/DX2                !
 ! D264  D(29,31,33,73)       -155.091          estimate D2E/DX2                !
 ! D265  D(69,31,33,35)        152.6157         estimate D2E/DX2                !
 ! D266  D(69,31,33,73)          2.3033         estimate D2E/DX2                !
 ! D267  D(29,31,69,67)         32.4819         estimate D2E/DX2                !
 ! D268  D(29,31,69,71)        149.0745         estimate D2E/DX2                !
 ! D269  D(29,31,69,92)        -89.4341         estimate D2E/DX2                !
 ! D270  D(33,31,69,67)       -124.0512         estimate D2E/DX2                !
 ! D271  D(33,31,69,71)         -7.4586         estimate D2E/DX2                !
 ! D272  D(33,31,69,92)        114.0328         estimate D2E/DX2                !
 ! D273  D(30,32,34,36)          5.3283         estimate D2E/DX2                !
 ! D274  D(30,32,34,74)        153.9996         estimate D2E/DX2                !
 ! D275  D(70,32,34,36)       -146.2065         estimate D2E/DX2                !
 ! D276  D(70,32,34,74)          2.4648         estimate D2E/DX2                !
 ! D277  D(30,32,70,68)        -31.9478         estimate D2E/DX2                !
[...]
 Alpha virt. eigenvalues --    1.55258   1.55475   1.56240   1.56404   1.56906
 Alpha virt. eigenvalues --    1.57350   1.57775   1.58551   1.59350   1.60008
 Alpha virt. eigenvalues --    1.60278   1.60754   1.60888   1.61343   1.61730
 Alpha virt. eigenvalues --    1.62032   1.62488   1.62622   1.63094   1.63176
 Alpha virt. eigenvalues --    1.63374   1.63833   1.64002   1.64081   1.64222
 Alpha virt. eigenvalues --    1.64342   1.64773   1.65022   1.65114   1.65417
 Alpha virt. eigenvalues --    1.65509   1.66098   1.66180   1.66425   1.66511
 Alpha virt. eigenvalues --    1.66614   1.67139   1.67396   1.67665   1.67801
 Alpha virt. eigenvalues --    1.68167   1.68287   1.68503   1.68539   1.68732
 Alpha virt. eigenvalues --    1.69504   1.69624   1.69941   1.69955   1.70254
 Alpha virt. eigenvalues --    1.70470   1.70684   1.70968   1.71081   1.71323
 Alpha virt. eigenvalues --    1.71875   1.72216   1.72481   1.72657   1.72729
 Alpha virt. eigenvalues --    1.72942   1.73175   1.73440   1.73787   1.73963
 Alpha virt. eigenvalues --    1.74109   1.74366   1.74482   1.74936   1.75021
 Alpha virt. eigenvalues --    1.75296   1.75578   1.75706   1.75908   1.75977
 Alpha virt. eigenvalues --    1.76208   1.76449   1.76793   1.76886   1.77355
 Alpha virt. eigenvalues --    1.77502   1.77695   1.77920   1.78093   1.78327
 Alpha virt. eigenvalues --    1.78501   1.78657   1.78804   1.78867   1.79178
 Alpha virt. eigenvalues --    1.79382   1.79701   1.79834   1.79931   1.80314
 Alpha virt. eigenvalues --    1.80901   1.81065   1.81227   1.81713   1.82013
 Alpha virt. eigenvalues --    1.82258   1.82403   1.83053   1.83584   1.83840
 Alpha virt. eigenvalues --    1.84127   1.84213   1.84646   1.85069   1.85241
 Alpha virt. eigenvalues --    1.85609   1.86214   1.86312   1.86626   1.86834
 Alpha virt. eigenvalues --    1.86972   1.87485   1.87729   1.87868   1.88492
 Alpha virt. eigenvalues --    1.89057   1.89349   1.89469   1.89737   1.90004
 Alpha virt. eigenvalues --    1.90301   1.90690   1.91200   1.91359   1.91580
 Alpha virt. eigenvalues --    1.91655   1.92243   1.92504   1.92727   1.93014
 Alpha virt. eigenvalues --    1.93701   1.93876   1.94317   1.94474   1.94914
 Alpha virt. eigenvalues --    1.95022   1.95353   1.95802   1.96242   1.96584
 Alpha virt. eigenvalues --    1.97044   1.97327   1.97715   1.97993   1.98489
 Alpha virt. eigenvalues --    1.98765   1.99043   1.99170   1.99565   2.00071
 Alpha virt. eigenvalues --    2.00380   2.00495   2.01187   2.01261   2.01564
 Alpha virt. eigenvalues --    2.01602   2.02075   2.02483   2.02876   2.03074
 Alpha virt. eigenvalues --    2.03487   2.03922   2.04205   2.04504   2.04937
 Alpha virt. eigenvalues --    2.05223   2.05805   2.05832   2.06004   2.06943
 Alpha virt. eigenvalues --    2.07412   2.07663   2.08042   2.08256   2.08919
 Alpha virt. eigenvalues --    2.09010   2.09156   2.09580   2.10512   2.10627
 Alpha virt. eigenvalues --    2.11221   2.11349   2.11657   2.12222   2.12815
 Alpha virt. eigenvalues --    2.13008   2.13496   2.13883   2.14079   2.14384
 Alpha virt. eigenvalues --    2.14619   2.15106   2.15185   2.15811   2.16121
 Alpha virt. eigenvalues --    2.16497   2.16962   2.17346   2.18048   2.18393
 Alpha virt. eigenvalues --    2.18573   2.18955   2.19186   2.19366   2.19868
 Alpha virt. eigenvalues --    2.20203   2.20377   2.20644   2.21269   2.21962
 Alpha virt. eigenvalues --    2.22218   2.22584   2.23068   2.23543   2.24080
 Alpha virt. eigenvalues --    2.24672   2.24911   2.24971   2.25570   2.25653
 Alpha virt. eigenvalues --    2.26292   2.26786   2.26945   2.27318   2.28012
 Alpha virt. eigenvalues --    2.28471   2.28861   2.29229   2.29392   2.29633
 Alpha virt. eigenvalues --    2.30289   2.30597   2.30769   2.31713   2.32168
 Alpha virt. eigenvalues --    2.32954   2.33179   2.33638   2.34120   2.34427
 Alpha virt. eigenvalues --    2.35105   2.35396   2.35989   2.36326   2.36683
 Alpha virt. eigenvalues --    2.37598   2.38180   2.39166   2.39464   2.39814
 Alpha virt. eigenvalues --    2.40131   2.40767   2.41172   2.41878   2.42493
 Alpha virt. eigenvalues --    2.43023   2.43388   2.44199   2.44411   2.44615
 Alpha virt. eigenvalues --    2.45243   2.45527   2.45812   2.46230   2.46873
 Alpha virt. eigenvalues --    2.47344   2.47938   2.48421   2.49040   2.49242
 Alpha virt. eigenvalues --    2.49988   2.50606   2.50859   2.51575   2.51687
 Alpha virt. eigenvalues --    2.51991   2.52310   2.52815   2.52906   2.53862
 Alpha virt. eigenvalues --    2.53918   2.55034   2.55128   2.55372   2.55496
 Alpha virt. eigenvalues --    2.56043   2.56358   2.56920   2.57073   2.57454
 Alpha virt. eigenvalues --    2.57690   2.57970   2.58174   2.58625   2.59106
 Alpha virt. eigenvalues --    2.59205   2.59807   2.60103   2.60438   2.60672
 Alpha virt. eigenvalues --    2.60938   2.61087   2.61577   2.61950   2.62086
 Alpha virt. eigenvalues --    2.62461   2.62752   2.63080   2.63459   2.63554
 Alpha virt. eigenvalues --    2.64462   2.64570   2.64764   2.65197   2.65625
 Alpha virt. eigenvalues --    2.66050   2.66241   2.66414   2.66992   2.67233
 Alpha virt. eigenvalues --    2.67554   2.67801   2.68433   2.68841   2.69318
 Alpha virt. eigenvalues --    2.69394   2.70026   2.70349   2.70915   2.71129
 Alpha virt. eigenvalues --    2.71441   2.71584   2.71689   2.72053   2.72944
 Alpha virt. eigenvalues --    2.73190   2.73680   2.74075   2.74384   2.74553
 Alpha virt. eigenvalues --    2.75085   2.75381   2.75672   2.76108   2.76336
 Alpha virt. eigenvalues --    2.76559   2.76880   2.77991   2.78181   2.78801
 Alpha virt. eigenvalues --    2.79100   2.79735   2.80144   2.80623   2.81572
 Alpha virt. eigenvalues --    2.81681   2.81885   2.81998   2.82450   2.83226
 Alpha virt. eigenvalues --    2.83696   2.83849   2.84793   2.85645   2.86025
 Alpha virt. eigenvalues --    2.86300   2.86697   2.87358   2.87937   2.88352
 Alpha virt. eigenvalues --    2.88666   2.89348   2.89624   2.89913   2.90416
 Alpha virt. eigenvalues --    2.90767   2.91891   2.91957   2.92796   2.93634
 Alpha virt. eigenvalues --    2.93858   2.94399   2.95468   2.95761   2.96869
 Alpha virt. eigenvalues --    2.97525   2.98845   2.99427   3.00143   3.01315
 Alpha virt. eigenvalues --    3.02032   3.02722   3.05191   3.06745   3.07419
 Alpha virt. eigenvalues --    3.08507   3.08866   3.10656   3.12000   3.13080
 Alpha virt. eigenvalues --    3.14025   3.16159   3.17026   3.17788   3.18123
 Alpha virt. eigenvalues --    3.19631   3.20052   3.21416   3.22484   3.24708
 Alpha virt. eigenvalues --    3.25012   3.26709   3.28159   3.29171   3.32131
 Alpha virt. eigenvalues --    3.34402   3.35393   3.40320   3.41547   3.41790
 Alpha virt. eigenvalues --    3.42405   3.45990   3.49019   3.49403   3.52092
 Alpha virt. eigenvalues --    3.54039   3.58988   4.00581   4.01090   4.01780
 Alpha virt. eigenvalues --    4.02791   4.03071   4.03545   4.04167   4.05316
 Alpha virt. eigenvalues --    4.06020   4.06737   4.07115   4.08169   4.08851
 Alpha virt. eigenvalues --    4.09358   4.09715   4.09840   4.11168   4.12088
 Alpha virt. eigenvalues --    4.12338   4.13208   4.13894   4.14981   4.15295
 Alpha virt. eigenvalues --    4.15884   4.17964   4.18394   4.18711   4.19292
 Alpha virt. eigenvalues --    4.19755   4.21221   4.21376   4.21586   4.22388
 Alpha virt. eigenvalues --    4.23377   4.24733   4.25436   4.25990   4.26273
 Alpha virt. eigenvalues --    4.26860   4.27001   4.27185   4.28174   4.28320
 Alpha virt. eigenvalues --    4.28642   4.28809   4.29145   4.30241   4.31750
 Alpha virt. eigenvalues --    4.32002   4.33082   4.33888   4.35110   4.36200
 Alpha virt. eigenvalues --    4.37155   4.38750   4.39097   4.39668   4.40613
 Alpha virt. eigenvalues --    4.41081   4.41977   4.42778   4.43088   4.43825
 Alpha virt. eigenvalues --    4.44311   4.46451   4.48089   4.48604   4.51175
 Alpha virt. eigenvalues --    4.51665   4.53955   4.54614   4.55796   4.57182
 Alpha virt. eigenvalues --    4.57793   4.58678   4.59619   4.63138   4.63802
 Alpha virt. eigenvalues --    4.64523   4.66294   4.67428   4.70235   4.77583
 Alpha virt. eigenvalues --    4.78050   4.79259   4.80384   4.81911   4.83570
 Alpha virt. eigenvalues --    4.85406   4.91813   4.93305   4.98293   4.98616
 Alpha virt. eigenvalues --    5.03842   5.06586   5.12772   5.14367   5.21705
          Condensed to atoms (all electrons):
 Mulliken charges:
               1
     1  C   -0.021054
     2  C   -0.387283
     3  C    0.007714
     4  C   -0.386444
     5  C    0.068229
     6  C    0.085858
     7  C    0.010377
     8  C    0.088351
     9  C    0.034254
    10  C    0.123378
    11  C    0.092888
    12  C    0.040327
    13  C    0.007829
    14  C    0.008075
    15  C    0.014044
    16  C    0.010321
    17  C    0.019077
    18  C    0.044223
    19  C    0.089439
    20  C    0.044900
    21  C   -0.381813
    22  C    0.011715
    23  C    0.109759
    24  C    0.090197
    25  C    0.159280
    26  C    0.091671
    27  C   -0.360545
    28  C   -0.380455
    29  C    0.119238
    30  C    0.087269
    31  C    0.079693
    32  C    0.091559
    33  C    0.012567
    34  C    0.008394
    35  C    0.026453
    36  C    0.036407
    37  C    0.072244
    38  C    0.071322
    39  C    0.117877
    40  C    0.119178
    41  C    0.113350
    42  C    0.117426
    43  C    0.082681
    44  C    0.145677
    45  C    0.146292
    46  C    0.079314
    47  C    0.123134
    48  C    0.124457
    49  C   -0.365598
    50  C   -0.386305
    51  C    0.149088
    52  C    0.115441
    53  C    0.123558
    54  C    0.013279
    55  C   -0.348342
    56  C   -0.010188
    57  C    0.123380
    58  C    0.010748
    59  C    0.150185
    60  C    0.078153
    61  C   -0.369820
    62  C   -0.387248
    63  C    0.112288
    64  C    0.143931
    65  C    0.119912
    66  C    0.124989
    67  C    0.144326
    68  C    0.121181
    69  C   -0.383544
    70  C   -0.376638
    71  C    0.090122
    72  C    0.091840
    73  C    0.019833
    74  C    0.019700
    75  C   -0.005843
    76  C   -0.006717
    77  C   -0.039282
    78  C   -0.040700
    79  C   -0.356948
    80  C   -0.357246
    81  C    0.034429
    82  C    0.145713
    83  C    0.101410
    84  C    0.072490
    85  Cl   0.026642
    86  Cl   0.012962
    87  Cl   0.024513
    88  Cl   0.005050
    89  Cl   0.022493
    90  Cl   0.016987
    91  Cl   0.025161
    92  Cl   0.023130
    93  Cl   0.004474
    94  Cl   0.026458
    95  Cl   0.019202
    96  Cl  -0.000242
    97  Cl   0.020091
    98  Cl  -0.007340
 Sum of Mulliken charges =  -0.00000
 Mulliken charges with hydrogens summed into heavy atoms:
               1
     1  C   -0.021054
     2  C   -0.387283
     3  C    0.007714
     4  C   -0.386444
     5  C    0.068229
     6  C    0.085858
     7  C    0.010377
     8  C    0.088351
     9  C    0.034254
    10  C    0.123378
    11  C    0.092888
    12  C    0.040327
    13  C    0.007829
    14  C    0.008075
    15  C    0.014044
    16  C    0.010321
    17  C    0.019077
    18  C    0.044223
    19  C    0.089439
    20  C    0.044900
    21  C   -0.381813
    22  C    0.011715
    23  C    0.109759
    24  C    0.090197
    25  C    0.159280
    26  C    0.091671
    27  C   -0.360545
    28  C   -0.380455
    29  C    0.119238
    30  C    0.087269
    31  C    0.079693
    32  C    0.091559
    33  C    0.012567
    34  C    0.008394
    35  C    0.026453
    36  C    0.036407
    37  C    0.072244
    38  C    0.071322
    39  C    0.117877
    40  C    0.119178
    41  C    0.113350
    42  C    0.117426
    43  C    0.082681
    44  C    0.145677
    45  C    0.146292
    46  C    0.079314
    47  C    0.123134
    48  C    0.124457
    49  C   -0.365598
    50  C   -0.386305
    51  C    0.149088
    52  C    0.115441
    53  C    0.123558
    54  C    0.013279
    55  C   -0.348342
    56  C   -0.010188
    57  C    0.123380
    58  C    0.010748
    59  C    0.150185
    60  C    0.078153
    61  C   -0.369820
    62  C   -0.387248
    63  C    0.112288
    64  C    0.143931
    65  C    0.119912
    66  C    0.124989
    67  C    0.144326
    68  C    0.121181
    69  C   -0.383544
    70  C   -0.376638
    71  C    0.090122
    72  C    0.091840
    73  C    0.019833
    74  C    0.019700
    75  C   -0.005843
    76  C   -0.006717
    77  C   -0.039282
    78  C   -0.040700
    79  C   -0.356948
    80  C   -0.357246
    81  C    0.034429
    82  C    0.145713
    83  C    0.101410
    84  C    0.072490
    85  Cl   0.026642
    86  Cl   0.012962
    87  Cl   0.024513
    88  Cl   0.005050
    89  Cl   0.022493
    90  Cl   0.016987
    91  Cl   0.025161
    92  Cl   0.023130
    93  Cl   0.004474
    94  Cl   0.026458
    95  Cl   0.019202
    96  Cl  -0.000242
    97  Cl   0.020091
    98  Cl  -0.007340
 Electronic spatial extent (au):  <R**2>=          67175.3390
 Charge=              0.0000 electrons
 Dipole moment (field-independent basis, Debye):
    X=              0.6849    Y=             -3.3893    Z=              0.4627  Tot=              3.4887
 Quadrupole moment (field-independent basis, Debye-Ang):
   XX=           -703.6862   YY=           -661.3358   ZZ=           -634.2036
   XY=             -6.4423   XZ=              1.2479   YZ=             -1.9203
 Traceless Quadrupole moment (field-independent basis, Debye-Ang):
   XX=            -37.2777   YY=              5.0727   ZZ=             32.2049
   XY=             -6.4423   XZ=              1.2479   YZ=             -1.9203
 Octapole moment (field-independent basis, Debye-Ang**2):
  XXX=              3.3232  YYY=            -61.7151  ZZZ=             17.1020  XYY=             28.3306
  XXY=             33.9215  XXZ=             13.5154  XZZ=             -1.9945  YZZ=             19.9107
  YYZ=             -6.3769  XYZ=             22.3444
 Hexadecapole moment (field-independent basis, Debye-Ang**3):
 XXXX=         -40646.4293 YYYY=         -30629.7067 ZZZZ=         -23389.6851 XXXY=             57.8794
 XXXZ=             10.7806 YYYX=             19.7065 YYYZ=            -19.6627 ZZZX=            -15.6990
 ZZZY=            -11.8040 XXYY=         -12137.1374 XXZZ=         -10903.8470 YYZZ=          -8909.4068
 XXYZ=            -11.8764 YYXZ=             31.2471 ZZXY=            -27.5505
 N-N= 2.601173988409D+04 E-N=-7.472754003471D+04  KE= 9.594200231171D+03
 No NMR shielding tensors so no spin-rotation constants.
 Leave Link  601 at Tue Jun 28 19:37:43 2022, MaxMem=  1342177280 cpu:              27.7 elap:               1.4
 (Enter /home/mkliu/g16/l9999.exe)
 1\1\GINC-NODE03\FOpt\RB3LYP\6-31G(d,p)\C84Cl14\MKLIU\28-Jun-2022\0\\#P
  opt b3lyp/6-31G(d, p) empiricaldispersion=GD3\\force\\0,1\C,8.4931956
 516,18.919861172,10.7466594872\C,12.6054074339,19.9866687374,8.8638170
 448\C,8.2475221561,26.8637805944,10.520711655\C,12.5037098437,25.75496
 70577,8.9057675027\C,8.0239637356,19.1421933207,9.4377526186\C,12.0674
 287419,19.5089173253,10.1902222358\C,7.9374147065,26.839716134,9.12638
 03039\C,11.8862484512,26.1725400479,10.2202235632\C,8.9974733584,19.23
 09784735,8.3521521647\C,12.3162278581,20.1475501696,11.3747178868\C,12
 .1412863752,25.5179678712,11.3767501349\C,8.9527005495,26.6556203263,8
 .1467488401\C,10.3685978628,19.0767281372,8.6598411259\C,10.2925395008
 ,26.6911862516,8.6143990846\C,10.8141813671,18.8714624001,9.9957054808
 \C,10.6056326858,26.7852260739,9.9927349377\C,9.8769257464,18.82001443
 52,11.0350397542\C,9.584957408,26.7693872611,10.9852379299\C,10.175875
 8991,19.4316734292,12.2875274857\C,9.8373824119,26.0441933378,12.20829
 57553\C,8.8949438543,19.8511315469,12.9732501802\C,8.7428402615,25.430
 2689348,12.8499439611\C,7.8563908279,19.5470014778,11.8986751555\C,7.4
 038490495,25.5707692577,12.3763798811\C,6.7035433043,20.210951882,11.7
 885117633\C,7.1569138426,26.2772740068,11.2406858936\C,5.9163193451,20
 .1899835229,10.5056030132\C,6.0161464321,25.9382515089,10.2964720252\C
 ,6.7348249869,19.784249463,9.2911811001\C,6.6296309202,26.292511308,8.
 9581448218\C,6.412074054,20.3572411865,8.0940930949\C,6.3283451409,25.
 6218319862,7.8198707876\C,7.343613604,20.4055703006,7.0045710716\C,7.3
 115417331,25.4681701476,6.7874857615\C,8.6782600122,19.9443124396,7.14
 35923589\C,8.6579580946,25.9098551174,6.9496299952\C,9.7295719479,20.6
 089981518,6.3833334484\C,9.7250381392,25.1729531569,6.285719043\C,11.0
 968232641,20.5612493792,6.8618165903\C,12.7628005266,22.187696435,7.74
 08330765\C,12.7433690076,23.5791136245,7.7456089062\C,11.0762943624,25
 .2071992576,6.8360551143\C,11.3907539841,19.7779002052,7.9420993907\C,
 12.954650781,21.4640170753,8.9169355667\C,12.9026980121,24.2885450589,
 8.9327505299\C,11.3348163769,25.9744992882,7.937673471\C,13.1594207492
 ,22.1594773074,10.1266849744\C,13.1261937004,23.5776949139,10.12828642
 56\C,13.1751515374,21.3848129009,11.4567551724\C,13.0768138496,24.3282
 996264,11.4578055941\C,12.4715426008,22.151570974,12.5487503615\C,12.3
 948195993,23.4852007752,12.5163263362\C,11.3551729505,20.1074313539,12
 .4319726599\C,11.1122085049,25.4104415802,12.3829673687\C,11.463512724
 7,21.3174137991,13.3148987651\C,11.2538816587,24.1876025938,13.0601510
 666\C,8.899891686,21.3411251935,13.3081501151\C,8.8778225911,24.130730
 4843,13.4484871296\C,7.6581202986,22.0526042491,13.2086560463\C,7.6598
 43135,23.4277124619,13.3215472902\C,6.4022148554,21.4236745853,12.6214
 367327\C,6.5792407029,24.3651702618,12.7706666935\C,5.8164016603,22.34
 49168677,11.5564350111\C,5.9241129493,23.735180625,11.5530356997\C,5.5
 241645528,21.6523125765,10.3869768847\C,5.6946367555,24.4379533369,10.
 3520613236\C,5.3207659194,22.3207787363,9.180985169\C,5.385102306,23.7
 292007164,9.1602536343\C,5.3629198741,21.4677344673,7.9207695754\C,5.3
 457651107,24.4628705649,7.8104308244\C,5.9199848696,22.2387486378,6.74
 93501561\C,5.9116576473,23.5977801805,6.6974443304\C,7.0114864104,21.5
 016304728,6.1666504373\C,6.9994478004,24.2930487532,6.0502595372\C,8.0
 305247833,22.1495849679,5.4634857597\C,8.0279318781,23.600239372,5.415
 9260039\C,9.3649483426,21.6900008083,5.5519586792\C,9.36923528,24.0627
 302628,5.4957662708\C,12.1126242507,21.6324778099,6.482717034\C,12.100
 4248742,24.1344753116,6.4841027287\C,10.2318108287,22.8741875056,5.456
 658751\C,11.4872361051,22.8807891545,5.9251124587\C,10.1132139158,22.0
 220086245,13.4733127226\C,10.1141652991,23.454535414,13.5087195105\Cl,
 14.0571355706,18.9865990591,8.3379437598\Cl,14.9290570652,20.96870736,
 11.8848741708\Cl,14.7726274626,24.8293407989,11.9654625265\Cl,13.36805
 40426,20.9374248838,5.3015183798\Cl,4.505870781,26.9181491185,10.67096
 02347\Cl,3.6200717105,24.9997997255,7.4534060497\Cl,13.9458225178,26.8
 138788679,8.4713707205\Cl,3.6941206601,20.7908653643,7.5358974629\Cl,4
 .4302527609,19.0851102122,10.6817040321\Cl,5.318080419,24.7923349318,1
 4.0396467123\Cl,5.1737916141,21.0708526788,13.9579642244\Cl,13.3773239
 416,24.8361202484,5.3240519681\Cl,8.5782859007,18.8749107714,14.504262
 3775\Cl,12.1128526738,20.8762548296,15.0075510579\\Version=ES64L-G16Re
 vA.03\State=1-A\HF=-9643.8273827\RMSD=5.946e-09\RMSF=2.273e-05\Dipole=
 -0.3981468,0.8317601,-1.0166286\Quadrupole=-25.9482344,20.2978873,5.65
 03472,-0.5245224,8.931827,8.061513\PG=C01 [X(C84Cl14)]\\@


 BUT 'GLORY' DOESN'T MEAN 'A NICE KNOCK DOWN ARGUMENT', ALICE OBJECTED.
 WHEN I USE A WORD, HUMPTY DUMPTY SAID, IN A RATHER SCORNFUL TONE,
 IT MEANS JUST WHAT I CHOOSE IT TO MEAN....
 NEITHER MORE NOR LESS....
 THE QUESTION IS, SAID ALICE,
 WHETHER YOU CAN MAKE WORDS MEAN SO MANY DIFFERENT THINGS...
 THE QUESTION IS, SAID HUMPTY DUMPTY,
 WHICH IS TO BE MASTER....
 THAT IS ALL.....

 ALICE THROUGH THE LOOKING GLASS
 Job cpu time:       1 days 13 hours 38 minutes  3.2 seconds.
 Elapsed time:       0 days  1 hours 34 minutes 13.0 seconds.
 File lengths (MBytes):  RWF=   1429 Int=      0 D2E=      0 Chk=    179 Scr=      1
 Normal termination of Gaussian 16 at Tue Jun 28 19:37:46 2022.
