 Entering Gaussian System, Link 0=g16
 Input=14_addons_C84_11_Cl22_rank_1.gjf
 Output=14_addons_C84_11_Cl22_rank_1.log
 Initial command:
 /home/mkliu/g16/l1.exe "/data/scratch/Gau-110924.inp" -scrdir="/data/scratch/"
 Entering Link 1 = /home/mkliu/g16/l1.exe PID=    110925.
  
 Copyright (c) 1988,1990,1992,1993,1995,1998,2003,2009,2016,
            Gaussian, Inc.  All Rights Reserved.
  
 This is part of the Gaussian(R) 16 program.  It is based on
 the Gaussian(R) 09 system (copyright 2009, Gaussian, Inc.),
 the Gaussian(R) 03 system (copyright 2003, Gaussian, Inc.),
 the Gaussian(R) 98 system (copyright 1998, Gaussian, Inc.),
 the Gaussian(R) 94 system (copyright 1995, Gaussian, Inc.),
 the Gaussian 92(TM) system (copyright 1992, Gaussian, Inc.),
 the Gaussian 90(TM) system (copyright 1990, Gaussian, Inc.),
 the Gaussian 88(TM) system (copyright 1988, Gaussian, Inc.),
 the Gaussian 86(TM) system (copyright 1986, Carnegie Mellon
 University), and the Gaussian 82(TM) system (copyright 1983,
 Carnegie Mellon University). Gaussian is a federally registered
 trademark of Gaussian, Inc.
  
 This software contains proprietary and confidential information,
 including trade secrets, belonging to Gaussian, Inc.
  
 This software is provided under written license and may be
 used, copied, transmitted, or stored only in accord with that
 written license.
  
 The following legend is applicable only to US Government
 contracts under FAR:
  
                    RESTRICTED RIGHTS LEGEND
  
 Use, reproduction and disclosure by the US Government is
 subject to restrictions as set forth in subparagraphs (a)
 and (c) of the Commercial Computer Software - Restricted
 Rights clause in FAR 52.227-19.
  
 Gaussian, Inc.
 340 Quinnipiac St., Bldg. 40, Wallingford CT 06492
  
  
 ---------------------------------------------------------------
 Warning -- This program may not be used in any manner that
 competes with the business of Gaussian, Inc. or will provide
 assistance to any competitor of Gaussian, Inc.  The licensee
 of this program is prohibited from giving any competitor of
 Gaussian, Inc. access to this program.  By using this program,
 the user acknowledges that Gaussian, Inc. is engaged in the
 business of creating and licensing software in the field of
 computational chemistry and represents and warrants to the
 licensee that it is not a competitor of Gaussian, Inc. and that
 it will not use this program in any manner prohibited above.
 ---------------------------------------------------------------
  

 Cite this work as:
 Gaussian 16, Revision A.03,
 M. J. Frisch, G. W. Trucks, H. B. Schlegel, G. E. Scuseria, 
 M. A. Robb, J. R. Cheeseman, G. Scalmani, V. Barone, 
 G. A. Petersson, H. Nakatsuji, X. Li, M. Caricato, A. V. Marenich, 
 J. Bloino, B. G. Janesko, R. Gomperts, B. Mennucci, H. P. Hratchian, 
 J. V. Ortiz, A. F. Izmaylov, J. L. Sonnenberg, D. Williams-Young, 
 F. Ding, F. Lipparini, F. Egidi, J. Goings, B. Peng, A. Petrone, 
 T. Henderson, D. Ranasinghe, V. G. Zakrzewski, J. Gao, N. Rega, 
 G. Zheng, W. Liang, M. Hada, M. Ehara, K. Toyota, R. Fukuda, 
 J. Hasegawa, M. Ishida, T. Nakajima, Y. Honda, O. Kitao, H. Nakai, 
 T. Vreven, K. Throssell, J. A. Montgomery, Jr., J. E. Peralta, 
 F. Ogliaro, M. J. Bearpark, J. J. Heyd, E. N. Brothers, K. N. Kudin, 
 V. N. Staroverov, T. A. Keith, R. Kobayashi, J. Normand, 
 K. Raghavachari, A. P. Rendell, J. C. Burant, S. S. Iyengar, 
 J. Tomasi, M. Cossi, J. M. Millam, M. Klene, C. Adamo, R. Cammi, 
 J. W. Ochterski, R. L. Martin, K. Morokuma, O. Farkas, 
 J. B. Foresman, and D. J. Fox, Gaussian, Inc., Wallingford CT, 2016.
 
 ******************************************
 Gaussian 16:  ES64L-G16RevA.03 25-Dec-2016
                29-Jun-2022 
 ******************************************
 %mem=10GB
 %chk=14_addons_C84_11_Cl22_rank_1.chk
 %nprocshared=24
 Will use up to   24 processors via shared memory.
 ------------------------------------------------
 #P opt b3lyp/6-31G(d, p) empiricaldispersion=GD3
 ------------------------------------------------
 1/18=20,19=15,26=3,38=1/1,3;
 2/9=110,12=2,17=6,18=5,40=1/2;
 3/5=1,6=6,7=101,11=2,25=1,30=1,71=1,74=-5,124=31/1,2,3;
 4//1;
 5/5=2,38=5/2;
 6/7=2,8=2,9=2,10=2,28=1/1;
 7//1,2,3,16;
 1/18=20,19=15,26=3/3(2);
 2/9=110/2;
 99//99;
 2/9=110/2;
 3/5=1,6=6,7=101,11=2,25=1,30=1,71=1,74=-5,124=31/1,2,3;
 4/5=5,16=3,69=1/1;
 5/5=2,38=5/2;
 7//1,2,3,16;
 1/18=20,19=15,26=3/3(-5);
 2/9=110/2;
 6/7=2,8=2,9=2,10=2,19=2,28=1/1;
 99/9=1/99;
 Leave Link    1 at Wed Jun 29 06:16:20 2022, MaxMem=  1342177280 cpu:               0.7 elap:               0.1
 (Enter /home/mkliu/g16/l101.exe)
 -----
 force
 -----
 Symbolic Z-matrix:
 Charge =  0 Multiplicity = 1
 C                     8.43728   18.67014   10.80205 
 C                     12.58647   20.00347   8.89305 
 C                     8.26901   26.84969   10.52334 
 C                     12.46876   25.75186   8.93139 
 C                     8.03791   19.19471   9.43971 
 C                     12.07372   19.50751   10.2127 
 C                     7.96241   26.81974   9.11497 
 C                     11.8718   26.20198   10.23265 
 C                     9.00298   19.31367   8.39535 
 C                     12.3384   20.14771   11.39142 
 C                     12.13219   25.54004   11.40678 
 C                     8.95973   26.63639   8.13943 
 C                     10.37116   19.13181   8.69337 
 C                     10.30058   26.66967   8.60952 
 C                     10.82284   18.87382   10.03798 
 C                     10.61665   26.79079   10.01368 
 C                     9.903     18.79141   11.06195 
 C                     9.59965   26.77011   10.99266 
 C                     10.16774   19.44326   12.2662 
 C                     9.85544   26.05737   12.20515 
 C                     8.90799   19.86044   12.95677 
 C                     8.7599    25.4373   12.84687 
 C                     7.88062   19.53456   11.90406 
 C                     7.44674   25.56283   12.37381 
 C                     6.75839   20.22124   11.76539 
 C                     7.19574   26.27366   11.22365 
 C                     5.96359   20.20339   10.49216 
 C                     6.06502   25.92883   10.28969 
 C                     6.8043    19.81431   9.30738 
 C                     6.66998   26.2811   8.96196 
 C                     6.46239   20.40043   8.0869 
 C                     6.35794   25.60932   7.81758 
 C                     7.36069   20.43758   7.03015 
 C                     7.32556   25.46071   6.80013 
 C                     8.70365   20.02586   7.19305 
 C                     8.66383   25.89518   6.95376 
 C                     9.73715   20.66758   6.44458 
 C                     9.71626   25.15195   6.30191 
 C                     11.04653   20.63171   6.91519 
 C                     12.72251   22.18308   7.80039 
 C                     12.66016   23.57893   7.81688 
 C                     11.04236   25.17212   6.85119 
 C                     11.35942   19.82712   8.01117 
 C                     12.90967   21.4747   8.96979 
 C                     12.82957   24.29146   8.99578 
 C                     11.32028   25.98676   7.96889 
 C                     13.10557   22.17778   10.17561 
 C                     13.06641   23.58625   10.18302 
 C                     13.17107   21.39965   11.48159 
 C                     13.06677   24.35752   11.49195 
 C                     12.43121   22.16059   12.55057 
 C                     12.39226   23.53225   12.54803 
 C                     11.34961   20.14414   12.40533 
 C                     11.11766   25.4461   12.37722 
 C                     11.35739   21.42125   13.06543 
 C                     11.25962   24.18274   13.05242 
 C                     8.90102   21.33305   13.30275 
 C                     8.89814   24.12886   13.43756 
 C                     7.70375   22.04067   13.18859 
 C                     7.7014    23.42992   13.30185 
 C                     6.45909   21.43582   12.59282 
 C                     6.63467   24.35552   12.75001 
 C                     5.92428   22.35581   11.52482 
 C                     6.02862   23.7356   11.52059 
 C                     5.62977   21.66535   10.35884 
 C                     5.79123   24.43414   10.3279 
 C                     5.41953   22.33326   9.16402 
 C                     5.47699   23.73459   9.14918 
 C                     5.40438   21.47652   7.92341 
 C                     5.37596   24.46678   7.81871 
 C                     5.93453   22.24415   6.74807 
 C                     5.91989   23.60884   6.70583 
 C                     7.00842   21.52841   6.15036 
 C                     6.99732   24.27727   6.0678 
 C                     7.9893    22.15769   5.42696 
 C                     8.00719   23.56903   5.43573 
 C                     9.38413   21.61382   5.31078 
 C                     9.3657    24.01825   5.53364 
 C                     12.08757   21.64999   6.53446 
 C                     11.85618   24.03271   6.70035 
 C                     10.1972   22.87968   5.42394 
 C                     11.43742   22.89294   6.00022 
 C                     10.13658   22.03075   13.4616 
 C                     10.13236   23.45824   13.50311 
 Cl                    4.49701   19.16534   10.61708 
 Cl                    7.86302   16.95511   10.9445 
 Cl                    3.75377   20.81521   7.64886 
 Cl                    3.66876   24.97291   7.56632 
 Cl                    4.54472   26.81445   10.65981 
 Cl                    14.01168   19.08191   8.29799 
 Cl                    14.8969   21.07898   11.88042 
 Cl                    14.75433   24.82617   11.90078 
 Cl                    13.29139   20.94136   5.40051 
 Cl                    9.64712   20.74418   3.74313 
 Cl                    13.93036   26.70829   8.47041 
 Cl                    5.34831   24.71445   13.95586 
 Cl                    5.23404   21.11797   13.87686 
 Cl                    8.61418   18.90546   14.47531 
 
 ITRead=  0  0  0  0  0  0  0  0  0  0  0  0  0  0  0  0  0  0  0  0
 ITRead=  0  0  0  0  0  0  0  0  0  0  0  0  0  0  0  0  0  0  0  0
 ITRead=  0  0  0  0  0  0  0  0  0  0  0  0  0  0  0  0  0  0  0  0
 ITRead=  0  0  0  0  0  0  0  0  0  0  0  0  0  0  0  0  0  0  0  0
 ITRead=  0  0  0  0  0  0  0  0  0  0  0  0  0  0  0  0  0  0
 MicOpt= -1 -1 -1 -1 -1 -1 -1 -1 -1 -1 -1 -1 -1 -1 -1 -1 -1 -1 -1 -1
 MicOpt= -1 -1 -1 -1 -1 -1 -1 -1 -1 -1 -1 -1 -1 -1 -1 -1 -1 -1 -1 -1
 MicOpt= -1 -1 -1 -1 -1 -1 -1 -1 -1 -1 -1 -1 -1 -1 -1 -1 -1 -1 -1 -1
 MicOpt= -1 -1 -1 -1 -1 -1 -1 -1 -1 -1 -1 -1 -1 -1 -1 -1 -1 -1 -1 -1
 MicOpt= -1 -1 -1 -1 -1 -1 -1 -1 -1 -1 -1 -1 -1 -1 -1 -1 -1 -1
 NAtoms=     98 NQM=       98 NQMF=       0 NMMI=      0 NMMIF=      0
                NMic=       0 NMicF=      0.
                    Isotopes and Nuclear Properties:
 (Nuclear quadrupole moments (NQMom) in fm**2, nuclear magnetic moments (NMagM)
  in nuclear magnetons)

  Atom         1           2           3           4           5           6           7           8           9          10
 IAtWgt=          12          12          12          12          12          12          12          12          12          12
 AtmWgt=  12.0000000  12.0000000  12.0000000  12.0000000  12.0000000  12.0000000  12.0000000  12.0000000  12.0000000  12.0000000
 NucSpn=           0           0           0           0           0           0           0           0           0           0
 AtZEff=  -0.0000000  -0.0000000  -0.0000000  -0.0000000  -0.0000000  -0.0000000  -0.0000000  -0.0000000  -0.0000000  -0.0000000
 NQMom=    0.0000000   0.0000000   0.0000000   0.0000000   0.0000000   0.0000000   0.0000000   0.0000000   0.0000000   0.0000000
 NMagM=    0.0000000   0.0000000   0.0000000   0.0000000   0.0000000   0.0000000   0.0000000   0.0000000   0.0000000   0.0000000
 AtZNuc=   6.0000000   6.0000000   6.0000000   6.0000000   6.0000000   6.0000000   6.0000000   6.0000000   6.0000000   6.0000000

  Atom        11          12          13          14          15          16          17          18          19          20
 IAtWgt=          12          12          12          12          12          12          12          12          12          12
 AtmWgt=  12.0000000  12.0000000  12.0000000  12.0000000  12.0000000  12.0000000  12.0000000  12.0000000  12.0000000  12.0000000
 NucSpn=           0           0           0           0           0           0           0           0           0           0
 AtZEff=  -0.0000000  -0.0000000  -0.0000000  -0.0000000  -0.0000000  -0.0000000  -0.0000000  -0.0000000  -0.0000000  -0.0000000
 NQMom=    0.0000000   0.0000000   0.0000000   0.0000000   0.0000000   0.0000000   0.0000000   0.0000000   0.0000000   0.0000000
 NMagM=    0.0000000   0.0000000   0.0000000   0.0000000   0.0000000   0.0000000   0.0000000   0.0000000   0.0000000   0.0000000
 AtZNuc=   6.0000000   6.0000000   6.0000000   6.0000000   6.0000000   6.0000000   6.0000000   6.0000000   6.0000000   6.0000000

  Atom        21          22          23          24          25          26          27          28          29          30
 IAtWgt=          12          12          12          12          12          12          12          12          12          12
 AtmWgt=  12.0000000  12.0000000  12.0000000  12.0000000  12.0000000  12.0000000  12.0000000  12.0000000  12.0000000  12.0000000
 NucSpn=           0           0           0           0           0           0           0           0           0           0
 AtZEff=  -0.0000000  -0.0000000  -0.0000000  -0.0000000  -0.0000000  -0.0000000  -0.0000000  -0.0000000  -0.0000000  -0.0000000
 NQMom=    0.0000000   0.0000000   0.0000000   0.0000000   0.0000000   0.0000000   0.0000000   0.0000000   0.0000000   0.0000000
 NMagM=    0.0000000   0.0000000   0.0000000   0.0000000   0.0000000   0.0000000   0.0000000   0.0000000   0.0000000   0.0000000
 AtZNuc=   6.0000000   6.0000000   6.0000000   6.0000000   6.0000000   6.0000000   6.0000000   6.0000000   6.0000000   6.0000000

  Atom        31          32          33          34          35          36          37          38          39          40
 IAtWgt=          12          12          12          12          12          12          12          12          12          12
 AtmWgt=  12.0000000  12.0000000  12.0000000  12.0000000  12.0000000  12.0000000  12.0000000  12.0000000  12.0000000  12.0000000
 NucSpn=           0           0           0           0           0           0           0           0           0           0
 AtZEff=  -0.0000000  -0.0000000  -0.0000000  -0.0000000  -0.0000000  -0.0000000  -0.0000000  -0.0000000  -0.0000000  -0.0000000
 NQMom=    0.0000000   0.0000000   0.0000000   0.0000000   0.0000000   0.0000000   0.0000000   0.0000000   0.0000000   0.0000000
 NMagM=    0.0000000   0.0000000   0.0000000   0.0000000   0.0000000   0.0000000   0.0000000   0.0000000   0.0000000   0.0000000
 AtZNuc=   6.0000000   6.0000000   6.0000000   6.0000000   6.0000000   6.0000000   6.0000000   6.0000000   6.0000000   6.0000000

  Atom        41          42          43          44          45          46          47          48          49          50
 IAtWgt=          12          12          12          12          12          12          12          12          12          12
 AtmWgt=  12.0000000  12.0000000  12.0000000  12.0000000  12.0000000  12.0000000  12.0000000  12.0000000  12.0000000  12.0000000
 NucSpn=           0           0           0           0           0           0           0           0           0           0
 AtZEff=  -0.0000000  -0.0000000  -0.0000000  -0.0000000  -0.0000000  -0.0000000  -0.0000000  -0.0000000  -0.0000000  -0.0000000
 NQMom=    0.0000000   0.0000000   0.0000000   0.0000000   0.0000000   0.0000000   0.0000000   0.0000000   0.0000000   0.0000000
 NMagM=    0.0000000   0.0000000   0.0000000   0.0000000   0.0000000   0.0000000   0.0000000   0.0000000   0.0000000   0.0000000
 AtZNuc=   6.0000000   6.0000000   6.0000000   6.0000000   6.0000000   6.0000000   6.0000000   6.0000000   6.0000000   6.0000000

  Atom        51          52          53          54          55          56          57          58          59          60
 IAtWgt=          12          12          12          12          12          12          12          12          12          12
 AtmWgt=  12.0000000  12.0000000  12.0000000  12.0000000  12.0000000  12.0000000  12.0000000  12.0000000  12.0000000  12.0000000
 NucSpn=           0           0           0           0           0           0           0           0           0           0
 AtZEff=  -0.0000000  -0.0000000  -0.0000000  -0.0000000  -0.0000000  -0.0000000  -0.0000000  -0.0000000  -0.0000000  -0.0000000
 NQMom=    0.0000000   0.0000000   0.0000000   0.0000000   0.0000000   0.0000000   0.0000000   0.0000000   0.0000000   0.0000000
 NMagM=    0.0000000   0.0000000   0.0000000   0.0000000   0.0000000   0.0000000   0.0000000   0.0000000   0.0000000   0.0000000
 AtZNuc=   6.0000000   6.0000000   6.0000000   6.0000000   6.0000000   6.0000000   6.0000000   6.0000000   6.0000000   6.0000000

  Atom        61          62          63          64          65          66          67          68          69          70
 IAtWgt=          12          12          12          12          12          12          12          12          12          12
 AtmWgt=  12.0000000  12.0000000  12.0000000  12.0000000  12.0000000  12.0000000  12.0000000  12.0000000  12.0000000  12.0000000
 NucSpn=           0           0           0           0           0           0           0           0           0           0
 AtZEff=  -0.0000000  -0.0000000  -0.0000000  -0.0000000  -0.0000000  -0.0000000  -0.0000000  -0.0000000  -0.0000000  -0.0000000
 NQMom=    0.0000000   0.0000000   0.0000000   0.0000000   0.0000000   0.0000000   0.0000000   0.0000000   0.0000000   0.0000000
 NMagM=    0.0000000   0.0000000   0.0000000   0.0000000   0.0000000   0.0000000   0.0000000   0.0000000   0.0000000   0.0000000
 AtZNuc=   6.0000000   6.0000000   6.0000000   6.0000000   6.0000000   6.0000000   6.0000000   6.0000000   6.0000000   6.0000000

  Atom        71          72          73          74          75          76          77          78          79          80
 IAtWgt=          12          12          12          12          12          12          12          12          12          12
 AtmWgt=  12.0000000  12.0000000  12.0000000  12.0000000  12.0000000  12.0000000  12.0000000  12.0000000  12.0000000  12.0000000
 NucSpn=           0           0           0           0           0           0           0           0           0           0
 AtZEff=  -0.0000000  -0.0000000  -0.0000000  -0.0000000  -0.0000000  -0.0000000  -0.0000000  -0.0000000  -0.0000000  -0.0000000
 NQMom=    0.0000000   0.0000000   0.0000000   0.0000000   0.0000000   0.0000000   0.0000000   0.0000000   0.0000000   0.0000000
 NMagM=    0.0000000   0.0000000   0.0000000   0.0000000   0.0000000   0.0000000   0.0000000   0.0000000   0.0000000   0.0000000
 AtZNuc=   6.0000000   6.0000000   6.0000000   6.0000000   6.0000000   6.0000000   6.0000000   6.0000000   6.0000000   6.0000000

  Atom        81          82          83          84          85          86          87          88          89          90
 IAtWgt=          12          12          12          12          35          35          35          35          35          35
 AtmWgt=  12.0000000  12.0000000  12.0000000  12.0000000  34.9688527  34.9688527  34.9688527  34.9688527  34.9688527  34.9688527
 NucSpn=           0           0           0           0           3           3           3           3           3           3
 AtZEff=  -0.0000000  -0.0000000  -0.0000000  -0.0000000  -0.0000000  -0.0000000  -0.0000000  -0.0000000  -0.0000000  -0.0000000
 NQMom=    0.0000000   0.0000000   0.0000000   0.0000000  -8.1650000  -8.1650000  -8.1650000  -8.1650000  -8.1650000  -8.1650000
 NMagM=    0.0000000   0.0000000   0.0000000   0.0000000   0.8218740   0.8218740   0.8218740   0.8218740   0.8218740   0.8218740
 AtZNuc=   6.0000000   6.0000000   6.0000000   6.0000000  17.0000000  17.0000000  17.0000000  17.0000000  17.0000000  17.0000000

  Atom        91          92          93          94          95          96          97          98
 IAtWgt=          35          35          35          35          35          35          35          35
 AtmWgt=  34.9688527  34.9688527  34.9688527  34.9688527  34.9688527  34.9688527  34.9688527  34.9688527
 NucSpn=           3           3           3           3           3           3           3           3
 AtZEff=  -0.0000000  -0.0000000  -0.0000000  -0.0000000  -0.0000000  -0.0000000  -0.0000000  -0.0000000
 NQMom=   -8.1650000  -8.1650000  -8.1650000  -8.1650000  -8.1650000  -8.1650000  -8.1650000  -8.1650000
 NMagM=    0.8218740   0.8218740   0.8218740   0.8218740   0.8218740   0.8218740   0.8218740   0.8218740
 AtZNuc=  17.0000000  17.0000000  17.0000000  17.0000000  17.0000000  17.0000000  17.0000000  17.0000000
 Leave Link  101 at Wed Jun 29 06:16:20 2022, MaxMem=  1342177280 cpu:               6.7 elap:               0.3
 (Enter /home/mkliu/g16/l103.exe)

 GradGradGradGradGradGradGradGradGradGradGradGradGradGradGradGradGradGrad
 Berny optimization.
 Initialization pass.
                           ----------------------------
                           !    Initial Parameters    !
                           ! (Angstroms and Degrees)  !
 --------------------------                            --------------------------
 ! Name  Definition              Value          Derivative Info.                !
 --------------------------------------------------------------------------------
 ! R1    R(1,5)                  1.5135         estimate D2E/DX2                !
 ! R2    R(1,17)                 1.4935         estimate D2E/DX2                !
 ! R3    R(1,23)                 1.5072         estimate D2E/DX2                !
 ! R4    R(1,86)                 1.8142         estimate D2E/DX2                !
 ! R5    R(2,6)                  1.5001         estimate D2E/DX2                !
 ! R6    R(2,43)                 1.5213         estimate D2E/DX2                !
 ! R7    R(2,44)                 1.5083         estimate D2E/DX2                !
 ! R8    R(2,90)                 1.7985         estimate D2E/DX2                !
 ! R9    R(3,7)                  1.4417         estimate D2E/DX2                !
 ! R10   R(3,18)                 1.4132         estimate D2E/DX2                !
 ! R11   R(3,26)                 1.405          estimate D2E/DX2                !
 ! R12   R(4,8)                  1.5007         estimate D2E/DX2                !
 ! R13   R(4,45)                 1.5057         estimate D2E/DX2                !
 ! R14   R(4,46)                 1.5168         estimate D2E/DX2                !
 ! R15   R(4,95)                 1.8065         estimate D2E/DX2                !
 ! R16   R(5,9)                  1.427          estimate D2E/DX2                !
 ! R17   R(5,29)                 1.3868         estimate D2E/DX2                !
 ! R18   R(6,10)                 1.3672         estimate D2E/DX2                !
 ! R19   R(6,15)                 1.4131         estimate D2E/DX2                !
 ! R20   R(7,12)                 1.4071         estimate D2E/DX2                !
 ! R21   R(7,30)                 1.4085         estimate D2E/DX2                !
 ! R22   R(8,11)                 1.3728         estimate D2E/DX2                !
 ! R23   R(8,16)                 1.4036         estimate D2E/DX2                !
 ! R24   R(9,13)                 1.412          estimate D2E/DX2                !
 ! R25   R(9,35)                 1.4291         estimate D2E/DX2                !
 ! R26   R(10,49)                1.5063         estimate D2E/DX2                !
 ! R27   R(10,53)                1.4162         estimate D2E/DX2                !
 ! R28   R(11,50)                1.5097         estimate D2E/DX2                !
 ! R29   R(11,54)                1.4071         estimate D2E/DX2                !
 ! R30   R(12,14)                1.4213         estimate D2E/DX2                !
 ! R31   R(12,36)                1.4293         estimate D2E/DX2                !
 ! R32   R(13,15)                1.4417         estimate D2E/DX2                !
 ! R33   R(13,43)                1.3876         estimate D2E/DX2                !
 ! R34   R(14,16)                1.4444         estimate D2E/DX2                !
 ! R35   R(14,46)                1.3844         estimate D2E/DX2                !
 ! R36   R(15,17)                1.3789         estimate D2E/DX2                !
 ! R37   R(16,18)                1.4118         estimate D2E/DX2                !
 ! R38   R(17,19)                1.3947         estimate D2E/DX2                !
 ! R39   R(18,20)                1.4295         estimate D2E/DX2                !
 ! R40   R(19,21)                1.496          estimate D2E/DX2                !
 ! R41   R(19,53)                1.3811         estimate D2E/DX2                !
 ! R42   R(20,22)                1.413          estimate D2E/DX2                !
 ! R43   R(20,54)                1.413          estimate D2E/DX2                !
 ! R44   R(21,23)                1.5066         estimate D2E/DX2                !
 ! R45   R(21,57)                1.5127         estimate D2E/DX2                !
 ! R46   R(21,98)                1.8178         estimate D2E/DX2                !
 ! R47   R(22,24)                1.4014         estimate D2E/DX2                !
 ! R48   R(22,58)                1.4422         estimate D2E/DX2                !
 ! R49   R(23,25)                1.3229         estimate D2E/DX2                !
 ! R50   R(24,26)                1.3752         estimate D2E/DX2                !
 ! R51   R(24,62)                1.5029         estimate D2E/DX2                !
 ! R52   R(25,27)                1.501          estimate D2E/DX2                !
 ! R53   R(25,61)                1.4998         estimate D2E/DX2                !
 ! R54   R(26,28)                1.5066         estimate D2E/DX2                !
 ! R55   R(27,29)                1.504          estimate D2E/DX2                !
 ! R56   R(27,65)                1.5055         estimate D2E/DX2                !
 ! R57   R(27,85)                1.8011         estimate D2E/DX2                !
 ! R58   R(28,30)                1.501          estimate D2E/DX2                !
 ! R59   R(28,66)                1.52           estimate D2E/DX2                !
 ! R60   R(28,89)                1.798          estimate D2E/DX2                !
 ! R61   R(29,31)                1.3964         estimate D2E/DX2                !
 ! R62   R(30,32)                1.3632         estimate D2E/DX2                !
 ! R63   R(31,33)                1.3875         estimate D2E/DX2                !
 ! R64   R(31,69)                1.5179         estimate D2E/DX2                !
 ! R65   R(32,34)                1.4119         estimate D2E/DX2                !
 ! R66   R(32,70)                1.5066         estimate D2E/DX2                !
 ! R67   R(33,35)                1.4141         estimate D2E/DX2                !
 ! R68   R(33,73)                1.445          estimate D2E/DX2                !
 ! R69   R(34,36)                1.4154         estimate D2E/DX2                !
 ! R70   R(34,74)                1.4299         estimate D2E/DX2                !
 ! R71   R(35,37)                1.4283         estimate D2E/DX2                !
 ! R72   R(36,38)                1.4439         estimate D2E/DX2                !
 ! R73   R(37,39)                1.3918         estimate D2E/DX2                !
 ! R74   R(37,77)                1.5184         estimate D2E/DX2                !
 ! R75   R(38,42)                1.4355         estimate D2E/DX2                !
 ! R76   R(38,78)                1.4136         estimate D2E/DX2                !
 ! R77   R(39,43)                1.3951         estimate D2E/DX2                !
 ! R78   R(39,79)                1.5052         estimate D2E/DX2                !
 ! R79   R(40,41)                1.3973         estimate D2E/DX2                !
 ! R80   R(40,44)                1.38           estimate D2E/DX2                !
 ! R81   R(40,79)                1.5132         estimate D2E/DX2                !
 ! R82   R(41,45)                1.3879         estimate D2E/DX2                !
 ! R83   R(41,80)                1.4488         estimate D2E/DX2                !
 ! R84   R(42,46)                1.4107         estimate D2E/DX2                !
 ! R85   R(42,80)                1.4083         estimate D2E/DX2                !
 ! R86   R(44,47)                1.4095         estimate D2E/DX2                !
 ! R87   R(45,48)                1.401          estimate D2E/DX2                !
 ! R88   R(47,48)                1.409          estimate D2E/DX2                !
 ! R89   R(47,49)                1.5216         estimate D2E/DX2                !
 ! R90   R(48,50)                1.5193         estimate D2E/DX2                !
 ! R91   R(49,51)                1.5064         estimate D2E/DX2                !
 ! R92   R(49,91)                1.8001         estimate D2E/DX2                !
 ! R93   R(50,52)                1.5005         estimate D2E/DX2                !
 ! R94   R(50,92)                1.7985         estimate D2E/DX2                !
 ! R95   R(51,52)                1.3722         estimate D2E/DX2                !
 ! R96   R(51,55)                1.4017         estimate D2E/DX2                !
 ! R97   R(52,56)                1.4001         estimate D2E/DX2                !
 ! R98   R(53,55)                1.4376         estimate D2E/DX2                !
 ! R99   R(54,56)                1.4395         estimate D2E/DX2                !
 ! R100  R(55,83)                1.4208         estimate D2E/DX2                !
 ! R101  R(56,84)                1.4138         estimate D2E/DX2                !
 ! R102  R(57,59)                1.3954         estimate D2E/DX2                !
 ! R103  R(57,83)                1.4278         estimate D2E/DX2                !
 ! R104  R(58,60)                1.3925         estimate D2E/DX2                !
 ! R105  R(58,84)                1.4062         estimate D2E/DX2                !
 ! R106  R(59,60)                1.3939         estimate D2E/DX2                !
 ! R107  R(59,61)                1.5066         estimate D2E/DX2                !
 ! R108  R(60,62)                1.5163         estimate D2E/DX2                !
 ! R109  R(61,63)                1.5077         estimate D2E/DX2                !
 ! R110  R(61,97)                1.8029         estimate D2E/DX2                !
 ! R111  R(62,64)                1.5043         estimate D2E/DX2                !
 ! R112  R(62,96)                1.7993         estimate D2E/DX2                !
 ! R113  R(63,64)                1.3837         estimate D2E/DX2                !
 ! R114  R(63,65)                1.3867         estimate D2E/DX2                !
 ! R115  R(64,66)                1.4024         estimate D2E/DX2                !
 ! R116  R(65,67)                1.3849         estimate D2E/DX2                !
 ! R117  R(66,68)                1.4062         estimate D2E/DX2                !
 ! R118  R(67,68)                1.4026         estimate D2E/DX2                !
 ! R119  R(67,69)                1.5078         estimate D2E/DX2                !
 ! R120  R(68,70)                1.522          estimate D2E/DX2                !
 ! R121  R(69,71)                1.5006         estimate D2E/DX2                !
 ! R122  R(69,87)                1.7992         estimate D2E/DX2                !
 ! R123  R(70,72)                1.5068         estimate D2E/DX2                !
 ! R124  R(70,88)                1.7984         estimate D2E/DX2                !
 ! R125  R(71,72)                1.3654         estimate D2E/DX2                !
 ! R126  R(71,73)                1.4222         estimate D2E/DX2                !
 ! R127  R(72,74)                1.4194         estimate D2E/DX2                !
 ! R128  R(73,75)                1.3716         estimate D2E/DX2                !
 ! R129  R(74,76)                1.386          estimate D2E/DX2                !
 ! R130  R(75,76)                1.4115         estimate D2E/DX2                !
 ! R131  R(75,77)                1.5016         estimate D2E/DX2                !
 ! R132  R(76,78)                1.4342         estimate D2E/DX2                !
 ! R133  R(77,81)                1.5087         estimate D2E/DX2                !
 ! R134  R(77,94)                1.8119         estimate D2E/DX2                !
 ! R135  R(78,81)                1.4141         estimate D2E/DX2                !
 ! R136  R(79,82)                1.501          estimate D2E/DX2                !
 ! R137  R(79,93)                1.7992         estimate D2E/DX2                !
 ! R138  R(80,82)                1.4016         estimate D2E/DX2                !
 ! R139  R(81,82)                1.3676         estimate D2E/DX2                !
 ! R140  R(83,84)                1.4281         estimate D2E/DX2                !
 ! A1    A(5,1,17)             112.7963         estimate D2E/DX2                !
 ! A2    A(5,1,23)             111.218          estimate D2E/DX2                !
 ! A3    A(5,1,86)             108.3486         estimate D2E/DX2                !
 ! A4    A(17,1,23)            100.8747         estimate D2E/DX2                !
 ! A5    A(17,1,86)            111.9461         estimate D2E/DX2                !
 ! A6    A(23,1,86)            111.5844         estimate D2E/DX2                !
 ! A7    A(6,2,43)             101.299          estimate D2E/DX2                !
 ! A8    A(6,2,44)             110.5474         estimate D2E/DX2                !
 ! A9    A(6,2,90)             113.111          estimate D2E/DX2                !
 ! A10   A(43,2,44)            108.385          estimate D2E/DX2                !
 ! A11   A(43,2,90)            112.8278         estimate D2E/DX2                !
 ! A12   A(44,2,90)            110.2945         estimate D2E/DX2                !
 ! A13   A(7,3,18)             121.5666         estimate D2E/DX2                !
 ! A14   A(7,3,26)             108.4179         estimate D2E/DX2                !
 ! A15   A(18,3,26)            122.0476         estimate D2E/DX2                !
 ! A16   A(8,4,45)             110.4354         estimate D2E/DX2                !
 ! A17   A(8,4,46)             101.6881         estimate D2E/DX2                !
 ! A18   A(8,4,95)             112.5993         estimate D2E/DX2                !
 ! A19   A(45,4,46)            111.0264         estimate D2E/DX2                !
 ! A20   A(45,4,95)            109.3015         estimate D2E/DX2                !
 ! A21   A(46,4,95)            111.6351         estimate D2E/DX2                !
 ! A22   A(1,5,9)              120.6123         estimate D2E/DX2                !
 ! A23   A(1,5,29)             118.3897         estimate D2E/DX2                !
 ! A24   A(9,5,29)             119.6385         estimate D2E/DX2                !
 ! A25   A(2,6,10)             122.509          estimate D2E/DX2                !
 ! A26   A(2,6,15)             110.0024         estimate D2E/DX2                !
 ! A27   A(10,6,15)            119.2061         estimate D2E/DX2                !
 ! A28   A(3,7,12)             121.9551         estimate D2E/DX2                !
 ! A29   A(3,7,30)             108.0116         estimate D2E/DX2                !
 ! A30   A(12,7,30)            121.6828         estimate D2E/DX2                !
 ! A31   A(4,8,11)             121.4344         estimate D2E/DX2                !
 ! A32   A(4,8,16)             110.2586         estimate D2E/DX2                !
 ! A33   A(11,8,16)            120.3535         estimate D2E/DX2                !
 ! A34   A(5,9,13)             119.3479         estimate D2E/DX2                !
 ! A35   A(5,9,35)             121.0387         estimate D2E/DX2                !
 ! A36   A(13,9,35)            116.4037         estimate D2E/DX2                !
 ! A37   A(6,10,49)            123.2171         estimate D2E/DX2                !
 ! A38   A(6,10,53)            118.7425         estimate D2E/DX2                !
 ! A39   A(49,10,53)           110.1938         estimate D2E/DX2                !
 ! A40   A(8,11,50)            122.9139         estimate D2E/DX2                !
 ! A41   A(8,11,54)            119.0328         estimate D2E/DX2                !
 ! A42   A(50,11,54)           110.8029         estimate D2E/DX2                !
 ! A43   A(7,12,14)            115.8691         estimate D2E/DX2                !
 ! A44   A(7,12,36)            119.7338         estimate D2E/DX2                !
 ! A45   A(14,12,36)           118.8062         estimate D2E/DX2                !
 ! A46   A(9,13,15)            121.5641         estimate D2E/DX2                !
 ! A47   A(9,13,43)            121.452          estimate D2E/DX2                !
 ! A48   A(15,13,43)           108.9694         estimate D2E/DX2                !
 ! A49   A(12,14,16)           122.0024         estimate D2E/DX2                !
 ! A50   A(12,14,46)           122.0247         estimate D2E/DX2                !
 ! A51   A(16,14,46)           109.2718         estimate D2E/DX2                !
 ! A52   A(6,15,13)            108.2039         estimate D2E/DX2                !
 ! A53   A(6,15,17)            121.7007         estimate D2E/DX2                !
 ! A54   A(13,15,17)           119.6223         estimate D2E/DX2                !
 ! A55   A(8,16,14)            108.1903         estimate D2E/DX2                !
 ! A56   A(8,16,18)            121.9961         estimate D2E/DX2                !
 ! A57   A(14,16,18)           121.0151         estimate D2E/DX2                !
 ! A58   A(1,17,15)            122.0248         estimate D2E/DX2                !
 ! A59   A(1,17,19)            111.9927         estimate D2E/DX2                !
 ! A60   A(15,17,19)           119.1195         estimate D2E/DX2                !
 ! A61   A(3,18,16)            116.5621         estimate D2E/DX2                !
 ! A62   A(3,18,20)            118.5691         estimate D2E/DX2                !
 ! A63   A(16,18,20)           117.8112         estimate D2E/DX2                !
 ! A64   A(17,19,21)           111.6586         estimate D2E/DX2                !
 ! A65   A(17,19,53)           119.1177         estimate D2E/DX2                !
 ! A66   A(21,19,53)           122.1815         estimate D2E/DX2                !
 ! A67   A(18,20,22)           117.7279         estimate D2E/DX2                !
 ! A68   A(18,20,54)           118.6088         estimate D2E/DX2                !
 ! A69   A(22,20,54)           116.5818         estimate D2E/DX2                !
 ! A70   A(19,21,23)           101.0327         estimate D2E/DX2                !
 ! A71   A(19,21,57)           112.3915         estimate D2E/DX2                !
 ! A72   A(19,21,98)           112.039          estimate D2E/DX2                !
 ! A73   A(23,21,57)           111.5449         estimate D2E/DX2                !
 ! A74   A(23,21,98)           111.0915         estimate D2E/DX2                !
 ! A75   A(57,21,98)           108.6396         estimate D2E/DX2                !
 ! A76   A(20,22,24)           122.2699         estimate D2E/DX2                !
 ! A77   A(20,22,58)           120.6516         estimate D2E/DX2                !
 ! A78   A(24,22,58)           108.019          estimate D2E/DX2                !
 ! A79   A(1,23,21)            112.5255         estimate D2E/DX2                !
 ! A80   A(1,23,25)            122.3014         estimate D2E/DX2                !
 ! A81   A(21,23,25)           122.6441         estimate D2E/DX2                !
 ! A82   A(22,24,26)           119.9772         estimate D2E/DX2                !
 ! A83   A(22,24,62)           110.4796         estimate D2E/DX2                !
 ! A84   A(26,24,62)           121.7338         estimate D2E/DX2                !
 ! A85   A(23,25,27)           122.1342         estimate D2E/DX2                !
 ! A86   A(23,25,61)           122.1276         estimate D2E/DX2                !
 ! A87   A(27,25,61)           111.8343         estimate D2E/DX2                !
 ! A88   A(3,26,24)            119.2981         estimate D2E/DX2                !
 ! A89   A(3,26,28)            110.9868         estimate D2E/DX2                !
 ! A90   A(24,26,28)           122.4911         estimate D2E/DX2                !
 ! A91   A(25,27,29)           112.0429         estimate D2E/DX2                !
 ! A92   A(25,27,65)           100.4264         estimate D2E/DX2                !
 ! A93   A(25,27,85)           112.2827         estimate D2E/DX2                !
 ! A94   A(29,27,65)           107.7826         estimate D2E/DX2                !
 ! A95   A(29,27,85)           111.1438         estimate D2E/DX2                !
 ! A96   A(65,27,85)           112.6601         estimate D2E/DX2                !
 ! A97   A(26,28,30)           101.079          estimate D2E/DX2                !
 ! A98   A(26,28,66)           110.1619         estimate D2E/DX2                !
 ! A99   A(26,28,89)           113.2203         estimate D2E/DX2                !
 ! A100  A(30,28,66)           109.0029         estimate D2E/DX2                !
 ! A101  A(30,28,89)           114.0347         estimate D2E/DX2                !
 ! A102  A(66,28,89)           109.0794         estimate D2E/DX2                !
 ! A103  A(5,29,27)            122.5249         estimate D2E/DX2                !
 ! A104  A(5,29,31)            119.2566         estimate D2E/DX2                !
 ! A105  A(27,29,31)           116.2998         estimate D2E/DX2                !
 ! A106  A(7,30,28)            111.3143         estimate D2E/DX2                !
 ! A107  A(7,30,32)            119.3204         estimate D2E/DX2                !
 ! A108  A(28,30,32)           122.322          estimate D2E/DX2                !
 ! A109  A(29,31,33)           121.2248         estimate D2E/DX2                !
 ! A110  A(29,31,69)           124.2185         estimate D2E/DX2                !
 ! A111  A(33,31,69)           110.503          estimate D2E/DX2                !
 ! A112  A(30,32,34)           119.9958         estimate D2E/DX2                !
 ! A113  A(30,32,70)           121.487          estimate D2E/DX2                !
 ! A114  A(34,32,70)           111.556          estimate D2E/DX2                !
 ! A115  A(31,33,35)           121.2884         estimate D2E/DX2                !
 ! A116  A(31,33,73)           109.0325         estimate D2E/DX2                !
 ! A117  A(35,33,73)           121.4303         estimate D2E/DX2                !
 ! A118  A(32,34,36)           122.51           estimate D2E/DX2                !
 ! A119  A(32,34,74)           107.3888         estimate D2E/DX2                !
 ! A120  A(36,34,74)           121.7825         estimate D2E/DX2                !
 ! A121  A(9,35,33)            116.1636         estimate D2E/DX2                !
 ! A122  A(9,35,37)            120.8766         estimate D2E/DX2                !
 ! A123  A(33,35,37)           119.7363         estimate D2E/DX2                !
 ! A124  A(12,36,34)           116.4225         estimate D2E/DX2                !
 ! A125  A(12,36,38)           119.3764         estimate D2E/DX2                !
 ! A126  A(34,36,38)           118.8261         estimate D2E/DX2                !
 ! A127  A(35,37,39)           119.4686         estimate D2E/DX2                !
 ! A128  A(35,37,77)           120.2013         estimate D2E/DX2                !
 ! A129  A(39,37,77)           119.1609         estimate D2E/DX2                !
 ! A130  A(36,38,42)           119.5607         estimate D2E/DX2                !
 ! A131  A(36,38,78)           118.5151         estimate D2E/DX2                !
 ! A132  A(42,38,78)           116.6354         estimate D2E/DX2                !
 ! A133  A(37,39,43)           119.4365         estimate D2E/DX2                !
 ! A134  A(37,39,79)           123.209          estimate D2E/DX2                !
 ! A135  A(43,39,79)           115.7049         estimate D2E/DX2                !
 ! A136  A(41,40,44)           120.5855         estimate D2E/DX2                !
 ! A137  A(41,40,79)           110.0637         estimate D2E/DX2                !
 ! A138  A(44,40,79)           125.8019         estimate D2E/DX2                !
 ! A139  A(40,41,45)           121.1603         estimate D2E/DX2                !
 ! A140  A(40,41,80)           109.1806         estimate D2E/DX2                !
 ! A141  A(45,41,80)           124.1636         estimate D2E/DX2                !
 ! A142  A(38,42,46)           119.556          estimate D2E/DX2                !
 ! A143  A(38,42,80)           118.7818         estimate D2E/DX2                !
 ! A144  A(46,42,80)           115.9905         estimate D2E/DX2                !
 ! A145  A(2,43,13)            110.336          estimate D2E/DX2                !
 ! A146  A(2,43,39)            124.7091         estimate D2E/DX2                !
 ! A147  A(13,43,39)           121.0283         estimate D2E/DX2                !
 ! A148  A(2,44,40)            115.3749         estimate D2E/DX2                !
 ! A149  A(2,44,47)            124.0468         estimate D2E/DX2                !
 ! A150  A(40,44,47)           119.1931         estimate D2E/DX2                !
 ! A151  A(4,45,41)            115.6187         estimate D2E/DX2                !
 ! A152  A(4,45,48)            124.399          estimate D2E/DX2                !
 ! A153  A(41,45,48)           118.8168         estimate D2E/DX2                !
 ! A154  A(4,46,14)            109.905          estimate D2E/DX2                !
 ! A155  A(4,46,42)            124.2293         estimate D2E/DX2                !
 ! A156  A(14,46,42)           120.4232         estimate D2E/DX2                !
 ! A157  A(44,47,48)           119.95           estimate D2E/DX2                !
 ! A158  A(44,47,49)           119.0229         estimate D2E/DX2                !
 ! A159  A(48,47,49)           120.5211         estimate D2E/DX2                !
 ! A160  A(45,48,47)           120.2243         estimate D2E/DX2                !
 ! A161  A(45,48,50)           118.3325         estimate D2E/DX2                !
 ! A162  A(47,48,50)           120.7958         estimate D2E/DX2                !
 ! A163  A(10,49,47)           110.4786         estimate D2E/DX2                !
 ! A164  A(10,49,51)           101.0005         estimate D2E/DX2                !
 ! A165  A(10,49,91)           113.278          estimate D2E/DX2                !
 ! A166  A(47,49,51)           109.245          estimate D2E/DX2                !
 ! A167  A(47,49,91)           108.8162         estimate D2E/DX2                !
 ! A168  A(51,49,91)           113.8068         estimate D2E/DX2                !
 ! A169  A(11,50,48)           110.42           estimate D2E/DX2                !
 ! A170  A(11,50,52)           101.0837         estimate D2E/DX2                !
 ! A171  A(11,50,92)           112.9293         estimate D2E/DX2                !
 ! A172  A(48,50,52)           109.0912         estimate D2E/DX2                !
 ! A173  A(48,50,92)           109.1693         estimate D2E/DX2                !
 ! A174  A(52,50,92)           113.8993         estimate D2E/DX2                !
 ! A175  A(49,51,52)           121.1692         estimate D2E/DX2                !
 ! A176  A(49,51,55)           111.7454         estimate D2E/DX2                !
 ! A177  A(52,51,55)           120.4096         estimate D2E/DX2                !
 ! A178  A(50,52,51)           122.5705         estimate D2E/DX2                !
 ! A179  A(50,52,56)           111.2028         estimate D2E/DX2                !
 ! A180  A(51,52,56)           119.1234         estimate D2E/DX2                !
 ! A181  A(10,53,19)           121.7777         estimate D2E/DX2                !
 ! A182  A(10,53,55)           108.8263         estimate D2E/DX2                !
 ! A183  A(19,53,55)           120.1129         estimate D2E/DX2                !
 ! A184  A(11,54,20)           122.0885         estimate D2E/DX2                !
 ! A185  A(11,54,56)           108.1192         estimate D2E/DX2                !
 ! A186  A(20,54,56)           121.6615         estimate D2E/DX2                !
 ! A187  A(51,55,53)           107.7013         estimate D2E/DX2                !
 ! A188  A(51,55,83)           122.3018         estimate D2E/DX2                !
 ! A189  A(53,55,83)           120.2945         estimate D2E/DX2                !
 ! A190  A(52,56,54)           108.5752         estimate D2E/DX2                !
 ! A191  A(52,56,84)           121.4503         estimate D2E/DX2                !
 ! A192  A(54,56,84)           121.3765         estimate D2E/DX2                !
 ! A193  A(21,57,59)           118.6129         estimate D2E/DX2                !
 ! A194  A(21,57,83)           119.8117         estimate D2E/DX2                !
 ! A195  A(59,57,83)           120.2508         estimate D2E/DX2                !
 ! A196  A(22,58,60)           109.4549         estimate D2E/DX2                !
 ! A197  A(22,58,84)           122.4044         estimate D2E/DX2                !
 ! A198  A(60,58,84)           121.2978         estimate D2E/DX2                !
 ! A199  A(57,59,60)           120.0144         estimate D2E/DX2                !
 ! A200  A(57,59,61)           122.5192         estimate D2E/DX2                !
 ! A201  A(60,59,61)           115.5225         estimate D2E/DX2                !
 ! A202  A(58,60,59)           120.4461         estimate D2E/DX2                !
 ! A203  A(58,60,62)           109.4924         estimate D2E/DX2                !
 ! A204  A(59,60,62)           125.4523         estimate D2E/DX2                !
 ! A205  A(25,61,59)           112.2344         estimate D2E/DX2                !
 ! A206  A(25,61,63)           100.0287         estimate D2E/DX2                !
 ! A207  A(25,61,97)           112.69           estimate D2E/DX2                !
 ! A208  A(59,61,63)           109.1589         estimate D2E/DX2                !
 ! A209  A(59,61,97)           110.5168         estimate D2E/DX2                !
 ! A210  A(63,61,97)           111.7812         estimate D2E/DX2                !
 ! A211  A(24,62,60)           101.6154         estimate D2E/DX2                !
 ! A212  A(24,62,64)           110.1305         estimate D2E/DX2                !
 ! A213  A(24,62,96)           113.1918         estimate D2E/DX2                !
 ! A214  A(60,62,64)           109.2259         estimate D2E/DX2                !
 ! A215  A(60,62,96)           112.3842         estimate D2E/DX2                !
 ! A216  A(64,62,96)           109.9912         estimate D2E/DX2                !
 ! A217  A(61,63,64)           125.7244         estimate D2E/DX2                !
 ! A218  A(61,63,65)           111.539          estimate D2E/DX2                !
 ! A219  A(64,63,65)           120.6595         estimate D2E/DX2                !
 ! A220  A(62,64,63)           116.0268         estimate D2E/DX2                !
 ! A221  A(62,64,66)           123.9147         estimate D2E/DX2                !
 ! A222  A(63,64,66)           119.111          estimate D2E/DX2                !
 ! A223  A(27,65,63)           111.2204         estimate D2E/DX2                !
 ! A224  A(27,65,67)           125.3384         estimate D2E/DX2                !
 ! A225  A(63,65,67)           121.1668         estimate D2E/DX2                !
 ! A226  A(28,66,64)           118.7292         estimate D2E/DX2                !
 ! A227  A(28,66,68)           120.5536         estimate D2E/DX2                !
 ! A228  A(64,66,68)           120.1919         estimate D2E/DX2                !
 ! A229  A(65,67,68)           118.9975         estimate D2E/DX2                !
 ! A230  A(65,67,69)           115.9361         estimate D2E/DX2                !
 ! A231  A(68,67,69)           124.0151         estimate D2E/DX2                !
 ! A232  A(66,68,67)           119.8213         estimate D2E/DX2                !
 ! A233  A(66,68,70)           120.5475         estimate D2E/DX2                !
 ! A234  A(67,68,70)           119.1553         estimate D2E/DX2                !
 ! A235  A(31,69,67)           107.8905         estimate D2E/DX2                !
 ! A236  A(31,69,71)           101.5818         estimate D2E/DX2                !
 ! A237  A(31,69,87)           113.2854         estimate D2E/DX2                !
 ! A238  A(67,69,71)           110.5023         estimate D2E/DX2                !
 ! A239  A(67,69,87)           110.0974         estimate D2E/DX2                !
 ! A240  A(71,69,87)           113.1178         estimate D2E/DX2                !
 ! A241  A(32,70,68)           108.7976         estimate D2E/DX2                !
 ! A242  A(32,70,72)           101.3006         estimate D2E/DX2                !
 ! A243  A(32,70,88)           113.9036         estimate D2E/DX2                !
 ! A244  A(68,70,72)           110.3504         estimate D2E/DX2                !
 ! A245  A(68,70,88)           108.7285         estimate D2E/DX2                !
 ! A246  A(72,70,88)           113.5321         estimate D2E/DX2                !
 ! A247  A(69,71,72)           122.1227         estimate D2E/DX2                !
 ! A248  A(69,71,73)           109.7853         estimate D2E/DX2                !
 ! A249  A(72,71,73)           119.8721         estimate D2E/DX2                !
 ! A250  A(70,72,71)           123.373          estimate D2E/DX2                !
 ! A251  A(70,72,74)           109.7473         estimate D2E/DX2                !
 ! A252  A(71,72,74)           118.4533         estimate D2E/DX2                !
 ! A253  A(33,73,71)           107.9444         estimate D2E/DX2                !
 ! A254  A(33,73,75)           119.5446         estimate D2E/DX2                !
 ! A255  A(71,73,75)           122.0541         estimate D2E/DX2                !
 ! A256  A(34,74,72)           109.4992         estimate D2E/DX2                !
 ! A257  A(34,74,76)           119.29           estimate D2E/DX2                !
 ! A258  A(72,74,76)           121.1599         estimate D2E/DX2                !
 ! A259  A(73,75,76)           117.6794         estimate D2E/DX2                !
 ! A260  A(73,75,77)           122.6083         estimate D2E/DX2                !
 ! A261  A(76,75,77)           110.5398         estimate D2E/DX2                !
 ! A262  A(74,76,75)           120.301          estimate D2E/DX2                !
 ! A263  A(74,76,78)           119.9331         estimate D2E/DX2                !
 ! A264  A(75,76,78)           109.0031         estimate D2E/DX2                !
 ! A265  A(37,77,75)           112.576          estimate D2E/DX2                !
 ! A266  A(37,77,81)           109.9724         estimate D2E/DX2                !
 ! A267  A(37,77,94)           108.2521         estimate D2E/DX2                !
 ! A268  A(75,77,81)           101.0052         estimate D2E/DX2                !
 ! A269  A(75,77,94)           112.0616         estimate D2E/DX2                !
 ! A270  A(81,77,94)           112.9151         estimate D2E/DX2                !
 ! A271  A(38,78,76)           121.5465         estimate D2E/DX2                !
 ! A272  A(38,78,81)           122.8222         estimate D2E/DX2                !
 ! A273  A(76,78,81)           107.4269         estimate D2E/DX2                !
 ! A274  A(39,79,40)           108.4772         estimate D2E/DX2                !
 ! A275  A(39,79,82)           110.5275         estimate D2E/DX2                !
 ! A276  A(39,79,93)           110.8382         estimate D2E/DX2                !
 ! A277  A(40,79,82)           100.8229         estimate D2E/DX2                !
 ! A278  A(40,79,93)           112.6592         estimate D2E/DX2                !
 ! A279  A(82,79,93)           113.0555         estimate D2E/DX2                !
 ! A280  A(41,80,42)           119.4428         estimate D2E/DX2                !
 ! A281  A(41,80,82)           107.2204         estimate D2E/DX2                !
 ! A282  A(42,80,82)           122.5993         estimate D2E/DX2                !
 ! A283  A(77,81,78)           111.3745         estimate D2E/DX2                !
 ! A284  A(77,81,82)           121.8999         estimate D2E/DX2                !
 ! A285  A(78,81,82)           119.5199         estimate D2E/DX2                !
 ! A286  A(79,82,80)           111.4799         estimate D2E/DX2                !
 ! A287  A(79,82,81)           122.3259         estimate D2E/DX2                !
 ! A288  A(80,82,81)           119.2937         estimate D2E/DX2                !
 ! A289  A(55,83,57)           120.1915         estimate D2E/DX2                !
 ! A290  A(55,83,84)           116.0672         estimate D2E/DX2                !
 ! A291  A(57,83,84)           119.2826         estimate D2E/DX2                !
 ! A292  A(56,84,58)           116.1408         estimate D2E/DX2                !
 ! A293  A(56,84,83)           120.0412         estimate D2E/DX2                !
 ! A294  A(58,84,83)           118.5512         estimate D2E/DX2                !
 ! D1    D(17,1,5,9)            21.0542         estimate D2E/DX2                !
 ! D2    D(17,1,5,29)         -145.5884         estimate D2E/DX2                !
 ! D3    D(23,1,5,9)           133.5551         estimate D2E/DX2                !
 ! D4    D(23,1,5,29)          -33.0875         estimate D2E/DX2                !
 ! D5    D(86,1,5,9)          -103.4529         estimate D2E/DX2                !
 ! D6    D(86,1,5,29)           89.9046         estimate D2E/DX2                !
 ! D7    D(5,1,17,15)          -23.1633         estimate D2E/DX2                !
 ! D8    D(5,1,17,19)          127.4868         estimate D2E/DX2                !
 ! D9    D(23,1,17,15)        -141.8816         estimate D2E/DX2                !
 ! D10   D(23,1,17,19)           8.7686         estimate D2E/DX2                !
 ! D11   D(86,1,17,15)          99.3499         estimate D2E/DX2                !
 ! D12   D(86,1,17,19)        -109.9999         estimate D2E/DX2                !
 ! D13   D(5,1,23,21)         -133.7326         estimate D2E/DX2                !
 ! D14   D(5,1,23,25)           28.6476         estimate D2E/DX2                !
 ! D15   D(17,1,23,21)         -13.877          estimate D2E/DX2                !
 ! D16   D(17,1,23,25)         148.5032         estimate D2E/DX2                !
 ! D17   D(86,1,23,21)         105.1532         estimate D2E/DX2                !
 ! D18   D(86,1,23,25)         -92.4667         estimate D2E/DX2                !
 ! D19   D(43,2,6,10)         -137.0073         estimate D2E/DX2                !
 ! D20   D(43,2,6,15)           10.9601         estimate D2E/DX2                !
 ! D21   D(44,2,6,10)          -22.2751         estimate D2E/DX2                !
 ! D22   D(44,2,6,15)          125.6924         estimate D2E/DX2                !
 ! D23   D(90,2,6,10)          101.9672         estimate D2E/DX2                !
 ! D24   D(90,2,6,15)         -110.0654         estimate D2E/DX2                !
 ! D25   D(6,2,43,13)           -8.3845         estimate D2E/DX2                !
 ! D26   D(6,2,43,39)          149.3507         estimate D2E/DX2                !
 ! D27   D(44,2,43,13)        -124.7169         estimate D2E/DX2                !
 ! D28   D(44,2,43,39)          33.0183         estimate D2E/DX2                !
 ! D29   D(90,2,43,13)         112.8398         estimate D2E/DX2                !
 ! D30   D(90,2,43,39)         -89.425          estimate D2E/DX2                !
 ! D31   D(6,2,44,40)         -148.1181         estimate D2E/DX2                !
 ! D32   D(6,2,44,47)           18.2919         estimate D2E/DX2                !
 ! D33   D(43,2,44,40)         -37.9318         estimate D2E/DX2                !
 ! D34   D(43,2,44,47)         128.4782         estimate D2E/DX2                !
 ! D35   D(90,2,44,40)          86.041          estimate D2E/DX2                !
 ! D36   D(90,2,44,47)        -107.5491         estimate D2E/DX2                !
 ! D37   D(18,3,7,12)            3.5614         estimate D2E/DX2                !
 ! D38   D(18,3,7,30)          152.1819         estimate D2E/DX2                !
 ! D39   D(26,3,7,12)         -145.8669         estimate D2E/DX2                !
 ! D40   D(26,3,7,30)            2.7535         estimate D2E/DX2                !
 ! D41   D(7,3,18,16)            5.9427         estimate D2E/DX2                !
 ! D42   D(7,3,18,20)         -144.0725         estimate D2E/DX2                !
 ! D43   D(26,3,18,16)         151.2397         estimate D2E/DX2                !
 ! D44   D(26,3,18,20)           1.2245         estimate D2E/DX2                !
 ! D45   D(7,3,26,24)          146.5687         estimate D2E/DX2                !
 ! D46   D(7,3,26,28)           -4.4731         estimate D2E/DX2                !
 ! D47   D(18,3,26,24)          -2.6828         estimate D2E/DX2                !
 ! D48   D(18,3,26,28)        -153.7246         estimate D2E/DX2                !
 ! D49   D(45,4,8,11)           23.7541         estimate D2E/DX2                !
 ! D50   D(45,4,8,16)         -125.2167         estimate D2E/DX2                !
 ! D51   D(46,4,8,11)          141.6641         estimate D2E/DX2                !
 ! D52   D(46,4,8,16)           -7.3067         estimate D2E/DX2                !
 ! D53   D(95,4,8,11)          -98.737          estimate D2E/DX2                !
 ! D54   D(95,4,8,16)          112.2922         estimate D2E/DX2                !
 ! D55   D(8,4,45,41)          144.8634         estimate D2E/DX2                !
 ! D56   D(8,4,45,48)          -22.6058         estimate D2E/DX2                !
 ! D57   D(46,4,45,41)          32.8492         estimate D2E/DX2                !
 ! D58   D(46,4,45,48)        -134.6199         estimate D2E/DX2                !
 ! D59   D(95,4,45,41)         -90.7337         estimate D2E/DX2                !
 ! D60   D(95,4,45,48)         101.7971         estimate D2E/DX2                !
 ! D61   D(8,4,46,14)            8.2857         estimate D2E/DX2                !
 ! D62   D(8,4,46,42)         -145.5755         estimate D2E/DX2                !
 ! D63   D(45,4,46,14)         125.7696         estimate D2E/DX2                !
 ! D64   D(45,4,46,42)         -28.0917         estimate D2E/DX2                !
 ! D65   D(95,4,46,14)        -111.9935         estimate D2E/DX2                !
 ! D66   D(95,4,46,42)          94.1453         estimate D2E/DX2                !
 ! D67   D(1,5,9,13)            -9.508          estimate D2E/DX2                !
 ! D68   D(1,5,9,35)          -168.5412         estimate D2E/DX2                !
 ! D69   D(29,5,9,13)          156.969          estimate D2E/DX2                !
 ! D70   D(29,5,9,35)           -2.0642         estimate D2E/DX2                !
 ! D71   D(1,5,29,27)           11.2189         estimate D2E/DX2                !
 ! D72   D(1,5,29,31)          174.8634         estimate D2E/DX2                !
 ! D73   D(9,5,29,27)         -155.5571         estimate D2E/DX2                !
 ! D74   D(9,5,29,31)            8.0874         estimate D2E/DX2                !
 ! D75   D(2,6,10,49)           -0.3702         estimate D2E/DX2                !
 ! D76   D(2,6,10,53)          145.7007         estimate D2E/DX2                !
 ! D77   D(15,6,10,49)        -145.5504         estimate D2E/DX2                !
 ! D78   D(15,6,10,53)           0.5205         estimate D2E/DX2                !
 ! D79   D(2,6,15,13)           -9.8901         estimate D2E/DX2                !
 ! D80   D(2,6,15,17)         -154.4455         estimate D2E/DX2                !
 ! D81   D(10,6,15,13)         139.2836         estimate D2E/DX2                !
 ! D82   D(10,6,15,17)          -5.2717         estimate D2E/DX2                !
 ! D83   D(3,7,12,14)           -8.446          estimate D2E/DX2                !
 ! D84   D(3,7,12,36)          144.8926         estimate D2E/DX2                !
 ! D85   D(30,7,12,14)        -152.861          estimate D2E/DX2                !
 ! D86   D(30,7,12,36)           0.4776         estimate D2E/DX2                !
 ! D87   D(3,7,30,28)           -0.014          estimate D2E/DX2                !
 ! D88   D(3,7,30,32)         -151.344          estimate D2E/DX2                !
 ! D89   D(12,7,30,28)         148.7092         estimate D2E/DX2                !
 ! D90   D(12,7,30,32)          -2.6207         estimate D2E/DX2                !
 ! D91   D(4,8,11,50)            2.395          estimate D2E/DX2                !
 ! D92   D(4,8,11,54)         -145.0778         estimate D2E/DX2                !
 ! D93   D(16,8,11,50)         148.3112         estimate D2E/DX2                !
 ! D94   D(16,8,11,54)           0.8384         estimate D2E/DX2                !
 ! D95   D(4,8,16,14)            3.9586         estimate D2E/DX2                !
 ! D96   D(4,8,16,18)          151.6114         estimate D2E/DX2                !
 ! D97   D(11,8,16,14)        -145.3984         estimate D2E/DX2                !
 ! D98   D(11,8,16,18)           2.2544         estimate D2E/DX2                !
 ! D99   D(5,9,13,15)           -2.1715         estimate D2E/DX2                !
 ! D100  D(5,9,13,43)         -147.5548         estimate D2E/DX2                !
 ! D101  D(35,9,13,15)         157.8114         estimate D2E/DX2                !
 ! D102  D(35,9,13,43)          12.4281         estimate D2E/DX2                !
 ! D103  D(5,9,35,33)           -8.2475         estimate D2E/DX2                !
 ! D104  D(5,9,35,37)          151.4108         estimate D2E/DX2                !
 ! D105  D(13,9,35,33)        -167.8684         estimate D2E/DX2                !
 ! D106  D(13,9,35,37)          -8.2101         estimate D2E/DX2                !
 ! D107  D(6,10,49,47)          26.6472         estimate D2E/DX2                !
 ! D108  D(6,10,49,51)         142.1798         estimate D2E/DX2                !
 ! D109  D(6,10,49,91)         -95.7284         estimate D2E/DX2                !
 ! D110  D(53,10,49,47)       -121.9234         estimate D2E/DX2                !
 ! D111  D(53,10,49,51)         -6.3907         estimate D2E/DX2                !
 ! D112  D(53,10,49,91)        115.701          estimate D2E/DX2                !
 ! D113  D(6,10,53,19)           4.1689         estimate D2E/DX2                !
 ! D114  D(6,10,53,55)        -142.4198         estimate D2E/DX2                !
 ! D115  D(49,10,53,19)        154.3311         estimate D2E/DX2                !
 ! D116  D(49,10,53,55)          7.7424         estimate D2E/DX2                !
 ! D117  D(8,11,50,48)         -29.9433         estimate D2E/DX2                !
 ! D118  D(8,11,50,52)        -145.32           estimate D2E/DX2                !
 ! D119  D(8,11,50,92)          92.5991         estimate D2E/DX2                !
 ! D120  D(54,11,50,48)        119.8633         estimate D2E/DX2                !
 ! D121  D(54,11,50,52)          4.4866         estimate D2E/DX2                !
 ! D122  D(54,11,50,92)       -117.5943         estimate D2E/DX2                !
 ! D123  D(8,11,54,20)          -2.5869         estimate D2E/DX2                !
 ! D124  D(8,11,54,56)         146.3999         estimate D2E/DX2                !
 ! D125  D(50,11,54,20)       -153.7138         estimate D2E/DX2                !
 ! D126  D(50,11,54,56)         -4.7269         estimate D2E/DX2                !
 ! D127  D(7,12,14,16)           4.153          estimate D2E/DX2                !
 ! D128  D(7,12,14,46)         152.3571         estimate D2E/DX2                !
 ! D129  D(36,12,14,16)       -149.4452         estimate D2E/DX2                !
 ! D130  D(36,12,14,46)         -1.2411         estimate D2E/DX2                !
 ! D131  D(7,12,36,34)           4.1318         estimate D2E/DX2                !
 ! D132  D(7,12,36,38)        -149.7069         estimate D2E/DX2                !
 ! D133  D(14,12,36,34)        156.6949         estimate D2E/DX2                !
 ! D134  D(14,12,36,38)          2.8562         estimate D2E/DX2                !
 ! D135  D(9,13,15,6)         -144.9404         estimate D2E/DX2                !
 ! D136  D(9,13,15,17)           0.4782         estimate D2E/DX2                !
 ! D137  D(43,13,15,6)           4.2325         estimate D2E/DX2                !
 ! D138  D(43,13,15,17)        149.6512         estimate D2E/DX2                !
 ! D139  D(9,13,43,2)          152.2032         estimate D2E/DX2                !
 ! D140  D(9,13,43,39)          -6.4831         estimate D2E/DX2                !
 ! D141  D(15,13,43,2)           2.9893         estimate D2E/DX2                !
 ! D142  D(15,13,43,39)       -155.697          estimate D2E/DX2                !
 ! D143  D(12,14,16,8)         153.3406         estimate D2E/DX2                !
 ! D144  D(12,14,16,18)          5.3097         estimate D2E/DX2                !
 ! D145  D(46,14,16,8)           1.5848         estimate D2E/DX2                !
 ! D146  D(46,14,16,18)       -146.4461         estimate D2E/DX2                !
 ! D147  D(12,14,46,4)        -158.1823         estimate D2E/DX2                !
 ! D148  D(12,14,46,42)         -3.1687         estimate D2E/DX2                !
 ! D149  D(16,14,46,4)          -6.434          estimate D2E/DX2                !
 ! D150  D(16,14,46,42)        148.5796         estimate D2E/DX2                !
 ! D151  D(6,15,17,1)          153.9439         estimate D2E/DX2                !
 ! D152  D(6,15,17,19)           5.2914         estimate D2E/DX2                !
 ! D153  D(13,15,17,1)          13.2687         estimate D2E/DX2                !
 ! D154  D(13,15,17,19)       -135.3837         estimate D2E/DX2                !
 ! D155  D(8,16,18,3)         -153.7754         estimate D2E/DX2                !
 ! D156  D(8,16,18,20)          -3.527          estimate D2E/DX2                !
 ! D157  D(14,16,18,3)         -10.153          estimate D2E/DX2                !
 ! D158  D(14,16,18,20)        140.0954         estimate D2E/DX2                !
 ! D159  D(1,17,19,21)          -0.8662         estimate D2E/DX2                !
 ! D160  D(1,17,19,53)        -152.1667         estimate D2E/DX2                !
 ! D161  D(15,17,19,21)        150.7306         estimate D2E/DX2                !
 ! D162  D(15,17,19,53)         -0.5699         estimate D2E/DX2                !
 ! D163  D(3,18,20,22)           1.7991         estimate D2E/DX2                !
 ! D164  D(3,18,20,54)         151.3994         estimate D2E/DX2                !
 ! D165  D(16,18,20,22)       -147.8431         estimate D2E/DX2                !
 ! D166  D(16,18,20,54)          1.7572         estimate D2E/DX2                !
 ! D167  D(17,19,21,23)         -7.4759         estimate D2E/DX2                !
 ! D168  D(17,19,21,57)       -126.4873         estimate D2E/DX2                !
 ! D169  D(17,19,21,98)        110.8486         estimate D2E/DX2                !
 ! D170  D(53,19,21,23)        142.8094         estimate D2E/DX2                !
 ! D171  D(53,19,21,57)         23.798          estimate D2E/DX2                !
 ! D172  D(53,19,21,98)        -98.866          estimate D2E/DX2                !
 ! D173  D(17,19,53,10)         -4.1601         estimate D2E/DX2                !
 ! D174  D(17,19,53,55)        138.7907         estimate D2E/DX2                !
 ! D175  D(21,19,53,10)       -152.3349         estimate D2E/DX2                !
 ! D176  D(21,19,53,55)         -9.3841         estimate D2E/DX2                !
 ! D177  D(18,20,22,24)         -3.5064         estimate D2E/DX2                !
 ! D178  D(18,20,22,58)        139.5715         estimate D2E/DX2                !
 ! D179  D(54,20,22,24)       -153.7208         estimate D2E/DX2                !
 ! D180  D(54,20,22,58)        -10.6429         estimate D2E/DX2                !
 ! D181  D(18,20,54,11)          1.2424         estimate D2E/DX2                !
 ! D182  D(18,20,54,56)       -143.6361         estimate D2E/DX2                !
 ! D183  D(22,20,54,11)        151.1852         estimate D2E/DX2                !
 ! D184  D(22,20,54,56)          6.3068         estimate D2E/DX2                !
 ! D185  D(19,21,23,1)          13.4382         estimate D2E/DX2                !
 ! D186  D(19,21,23,25)       -148.8725         estimate D2E/DX2                !
 ! D187  D(57,21,23,1)         133.0578         estimate D2E/DX2                !
 ! D188  D(57,21,23,25)        -29.2529         estimate D2E/DX2                !
 ! D189  D(98,21,23,1)        -105.5712         estimate D2E/DX2                !
 ! D190  D(98,21,23,25)         92.118          estimate D2E/DX2                !
 ! D191  D(19,21,57,59)        142.4758         estimate D2E/DX2                !
 ! D192  D(19,21,57,83)        -24.42           estimate D2E/DX2                !
 ! D193  D(23,21,57,59)         29.8205         estimate D2E/DX2                !
 ! D194  D(23,21,57,83)       -137.0753         estimate D2E/DX2                !
 ! D195  D(98,21,57,59)        -92.9641         estimate D2E/DX2                !
 ! D196  D(98,21,57,83)        100.1401         estimate D2E/DX2                !
 ! D197  D(20,22,24,26)          2.1228         estimate D2E/DX2                !
 ! D198  D(20,22,24,62)        151.8459         estimate D2E/DX2                !
 ! D199  D(58,22,24,26)       -144.9584         estimate D2E/DX2                !
 ! D200  D(58,22,24,62)          4.7648         estimate D2E/DX2                !
 ! D201  D(20,22,58,60)       -146.0059         estimate D2E/DX2                !
 ! D202  D(20,22,58,84)          5.2483         estimate D2E/DX2                !
 ! D203  D(24,22,58,60)          1.7086         estimate D2E/DX2                !
 ! D204  D(24,22,58,84)        152.9628         estimate D2E/DX2                !
 ! D205  D(1,23,25,27)          -0.7555         estimate D2E/DX2                !
 ! D206  D(1,23,25,61)        -156.6894         estimate D2E/DX2                !
 ! D207  D(21,23,25,27)        159.8506         estimate D2E/DX2                !
 ! D208  D(21,23,25,61)          3.9168         estimate D2E/DX2                !
 ! D209  D(22,24,26,3)           1.0074         estimate D2E/DX2                !
 ! D210  D(22,24,26,28)        148.5996         estimate D2E/DX2                !
 ! D211  D(62,24,26,3)        -145.2588         estimate D2E/DX2                !
 ! D212  D(62,24,26,28)          2.3334         estimate D2E/DX2                !
 ! D213  D(22,24,62,60)         -8.6468         estimate D2E/DX2                !
 ! D214  D(22,24,62,64)       -124.3301         estimate D2E/DX2                !
 ! D215  D(22,24,62,96)        112.085          estimate D2E/DX2                !
 ! D216  D(26,24,62,60)        140.4559         estimate D2E/DX2                !
 ! D217  D(26,24,62,64)         24.7726         estimate D2E/DX2                !
 ! D218  D(26,24,62,96)        -98.8122         estimate D2E/DX2                !
 ! D219  D(23,25,27,29)        -22.4305         estimate D2E/DX2                !
 ! D220  D(23,25,27,65)       -136.6058         estimate D2E/DX2                !
 ! D221  D(23,25,27,85)        103.477          estimate D2E/DX2                !
 ! D222  D(61,25,27,29)        135.7284         estimate D2E/DX2                !
 ! D223  D(61,25,27,65)         21.5532         estimate D2E/DX2                !
 ! D224  D(61,25,27,85)        -98.364          estimate D2E/DX2                !
 ! D225  D(23,25,61,59)         20.3256         estimate D2E/DX2                !
 ! D226  D(23,25,61,63)        135.9421         estimate D2E/DX2                !
 ! D227  D(23,25,61,97)       -105.2176         estimate D2E/DX2                !
 ! D228  D(27,25,61,59)       -137.835          estimate D2E/DX2                !
 ! D229  D(27,25,61,63)        -22.2185         estimate D2E/DX2                !
 ! D230  D(27,25,61,97)         96.6218         estimate D2E/DX2                !
 ! D231  D(3,26,28,30)           4.1937         estimate D2E/DX2                !
 ! D232  D(3,26,28,66)         119.3669         estimate D2E/DX2                !
 ! D233  D(3,26,28,89)        -118.1919         estimate D2E/DX2                !
 ! D234  D(24,26,28,30)       -145.7669         estimate D2E/DX2                !
 ! D235  D(24,26,28,66)        -30.5937         estimate D2E/DX2                !
 ! D236  D(24,26,28,89)         91.8475         estimate D2E/DX2                !
 ! D237  D(25,27,29,5)          16.7364         estimate D2E/DX2                !
 ! D238  D(25,27,29,31)       -147.3587         estimate D2E/DX2                !
 ! D239  D(65,27,29,5)         126.303          estimate D2E/DX2                !
 ! D240  D(65,27,29,31)        -37.792          estimate D2E/DX2                !
 ! D241  D(85,27,29,5)        -109.7905         estimate D2E/DX2                !
 ! D242  D(85,27,29,31)         86.1145         estimate D2E/DX2                !
 ! D243  D(25,27,65,63)        -11.9033         estimate D2E/DX2                !
 ! D244  D(25,27,65,67)        151.014          estimate D2E/DX2                !
 ! D245  D(29,27,65,63)       -129.2753         estimate D2E/DX2                !
 ! D246  D(29,27,65,67)         33.6419         estimate D2E/DX2                !
 ! D247  D(85,27,65,63)        107.7411         estimate D2E/DX2                !
 ! D248  D(85,27,65,67)        -89.3416         estimate D2E/DX2                !
 ! D249  D(26,28,30,7)          -2.4616         estimate D2E/DX2                !
 ! D250  D(26,28,30,32)        147.8685         estimate D2E/DX2                !
 ! D251  D(66,28,30,7)        -118.4952         estimate D2E/DX2                !
 ! D252  D(66,28,30,32)         31.8349         estimate D2E/DX2                !
 ! D253  D(89,28,30,7)         119.3561         estimate D2E/DX2                !
 ! D254  D(89,28,30,32)        -90.3138         estimate D2E/DX2                !
 ! D255  D(26,28,66,64)         30.9544         estimate D2E/DX2                !
 ! D256  D(26,28,66,68)       -140.7487         estimate D2E/DX2                !
 ! D257  D(30,28,66,64)        141.0113         estimate D2E/DX2                !
 ! D258  D(30,28,66,68)        -30.6918         estimate D2E/DX2                !
 ! D259  D(89,28,66,64)        -93.8946         estimate D2E/DX2                !
 ! D260  D(89,28,66,68)         94.4023         estimate D2E/DX2                !
 ! D261  D(5,29,31,33)          -3.5372         estimate D2E/DX2                !
 ! D262  D(5,29,31,69)        -158.7131         estimate D2E/DX2                !
 ! D263  D(27,29,31,33)        161.1051         estimate D2E/DX2                !
 ! D264  D(27,29,31,69)          5.9292         estimate D2E/DX2                !
 ! D265  D(7,30,32,34)          -0.0744         estimate D2E/DX2                !
 ! D266  D(7,30,32,70)         148.2507         estimate D2E/DX2                !
 ! D267  D(28,30,32,34)       -148.1434         estimate D2E/DX2                !
 ! D268  D(28,30,32,70)          0.1817         estimate D2E/DX2                !
 ! D269  D(29,31,33,35)         -7.421          estimate D2E/DX2                !
 ! D270  D(29,31,33,73)       -156.1961         estimate D2E/DX2                !
 ! D271  D(69,31,33,35)        150.8239         estimate D2E/DX2                !
 ! D272  D(69,31,33,73)          2.0488         estimate D2E/DX2                !
 ! D273  D(29,31,69,67)         33.5448         estimate D2E/DX2                !
 ! D274  D(29,31,69,71)        149.7665         estimate D2E/DX2                !
 ! D275  D(29,31,69,87)        -88.5974         estimate D2E/DX2                !
 ! D276  D(33,31,69,67)       -123.9171         estimate D2E/DX2                !
[...]
 Alpha virt. eigenvalues --    1.44319   1.44771   1.45413   1.45562   1.46295
 Alpha virt. eigenvalues --    1.46788   1.47699   1.47863   1.48435   1.49334
 Alpha virt. eigenvalues --    1.49578   1.49782   1.50696   1.51739   1.52300
 Alpha virt. eigenvalues --    1.52836   1.53590   1.53909   1.54356   1.54809
 Alpha virt. eigenvalues --    1.55578   1.55938   1.56082   1.56791   1.56907
 Alpha virt. eigenvalues --    1.57803   1.58378   1.58642   1.59086   1.59778
 Alpha virt. eigenvalues --    1.60299   1.60443   1.60839   1.61348   1.61920
 Alpha virt. eigenvalues --    1.62208   1.62346   1.62568   1.62955   1.63061
 Alpha virt. eigenvalues --    1.63467   1.63794   1.64252   1.64317   1.64499
 Alpha virt. eigenvalues --    1.64891   1.65072   1.65398   1.65592   1.65849
 Alpha virt. eigenvalues --    1.66185   1.66312   1.66472   1.66634   1.66865
 Alpha virt. eigenvalues --    1.67078   1.67485   1.67631   1.68034   1.68141
 Alpha virt. eigenvalues --    1.68246   1.68434   1.68895   1.69056   1.69098
 Alpha virt. eigenvalues --    1.69500   1.69776   1.69854   1.70097   1.70623
 Alpha virt. eigenvalues --    1.70813   1.71042   1.71130   1.71330   1.71470
 Alpha virt. eigenvalues --    1.71605   1.71897   1.72209   1.72488   1.72662
 Alpha virt. eigenvalues --    1.73089   1.73304   1.73514   1.73761   1.73884
 Alpha virt. eigenvalues --    1.74100   1.74232   1.74659   1.74850   1.75148
 Alpha virt. eigenvalues --    1.75458   1.75706   1.75836   1.76025   1.76143
 Alpha virt. eigenvalues --    1.76399   1.76665   1.76775   1.76854   1.77208
 Alpha virt. eigenvalues --    1.77401   1.77696   1.77949   1.77996   1.78267
 Alpha virt. eigenvalues --    1.78449   1.78900   1.79021   1.79237   1.79591
 Alpha virt. eigenvalues --    1.79839   1.79892   1.80520   1.80571   1.81048
 Alpha virt. eigenvalues --    1.81230   1.81467   1.81748   1.81868   1.82033
 Alpha virt. eigenvalues --    1.82278   1.82675   1.82767   1.83170   1.83595
 Alpha virt. eigenvalues --    1.83656   1.83836   1.84384   1.84846   1.84998
 Alpha virt. eigenvalues --    1.85421   1.85618   1.85846   1.86273   1.86434
 Alpha virt. eigenvalues --    1.86679   1.86997   1.87308   1.87491   1.87769
 Alpha virt. eigenvalues --    1.88374   1.88569   1.88729   1.89323   1.89738
 Alpha virt. eigenvalues --    1.89940   1.90170   1.90240   1.90561   1.91345
 Alpha virt. eigenvalues --    1.91806   1.92180   1.92578   1.92648   1.92912
 Alpha virt. eigenvalues --    1.93416   1.93825   1.94351   1.94675   1.95047
 Alpha virt. eigenvalues --    1.95503   1.95958   1.96378   1.96762   1.97112
 Alpha virt. eigenvalues --    1.97446   1.98041   1.98252   1.98359   1.98554
 Alpha virt. eigenvalues --    1.98795   1.99449   1.99651   2.00144   2.00621
 Alpha virt. eigenvalues --    2.00698   2.00737   2.01029   2.01617   2.01838
 Alpha virt. eigenvalues --    2.02249   2.02600   2.02918   2.03274   2.03593
 Alpha virt. eigenvalues --    2.03904   2.04004   2.04162   2.04886   2.05323
 Alpha virt. eigenvalues --    2.05538   2.05802   2.06540   2.06837   2.06987
 Alpha virt. eigenvalues --    2.07335   2.07783   2.08130   2.08387   2.08948
 Alpha virt. eigenvalues --    2.09215   2.09562   2.10036   2.10538   2.10837
 Alpha virt. eigenvalues --    2.11203   2.11553   2.11937   2.12493   2.12643
 Alpha virt. eigenvalues --    2.12747   2.12937   2.13368   2.13700   2.13904
 Alpha virt. eigenvalues --    2.14014   2.14370   2.15120   2.15365   2.16044
 Alpha virt. eigenvalues --    2.17042   2.17112   2.17473   2.17854   2.18287
 Alpha virt. eigenvalues --    2.18540   2.19034   2.19419   2.19644   2.19938
 Alpha virt. eigenvalues --    2.20371   2.20646   2.20739   2.21467   2.21786
 Alpha virt. eigenvalues --    2.21905   2.22430   2.23106   2.23339   2.23368
 Alpha virt. eigenvalues --    2.24356   2.24619   2.24921   2.25353   2.25467
 Alpha virt. eigenvalues --    2.26024   2.26565   2.27247   2.27568   2.27986
 Alpha virt. eigenvalues --    2.28714   2.29130   2.29553   2.29910   2.30213
 Alpha virt. eigenvalues --    2.30727   2.30985   2.31164   2.31673   2.31786
 Alpha virt. eigenvalues --    2.31895   2.33287   2.33747   2.34023   2.34860
 Alpha virt. eigenvalues --    2.35149   2.35732   2.36292   2.36653   2.37363
 Alpha virt. eigenvalues --    2.37720   2.38051   2.38650   2.39021   2.39940
 Alpha virt. eigenvalues --    2.40336   2.40795   2.41113   2.41454   2.41752
 Alpha virt. eigenvalues --    2.42555   2.42951   2.43613   2.44096   2.44285
 Alpha virt. eigenvalues --    2.44954   2.45263   2.45577   2.46363   2.47120
 Alpha virt. eigenvalues --    2.47211   2.47753   2.48652   2.48906   2.49172
 Alpha virt. eigenvalues --    2.49789   2.50212   2.50542   2.50862   2.51551
 Alpha virt. eigenvalues --    2.51727   2.52284   2.52709   2.53012   2.53468
 Alpha virt. eigenvalues --    2.53732   2.54162   2.54796   2.55185   2.55402
 Alpha virt. eigenvalues --    2.55867   2.56315   2.56485   2.57012   2.57362
 Alpha virt. eigenvalues --    2.57630   2.57866   2.58192   2.58669   2.59347
 Alpha virt. eigenvalues --    2.59366   2.60124   2.60251   2.60390   2.60851
 Alpha virt. eigenvalues --    2.61192   2.61364   2.61500   2.61964   2.62561
 Alpha virt. eigenvalues --    2.63132   2.63414   2.63776   2.64196   2.64484
 Alpha virt. eigenvalues --    2.64810   2.65251   2.65414   2.65668   2.66278
 Alpha virt. eigenvalues --    2.66332   2.66636   2.67357   2.67694   2.68402
 Alpha virt. eigenvalues --    2.68426   2.68822   2.69119   2.69500   2.69941
 Alpha virt. eigenvalues --    2.70158   2.70623   2.70866   2.70898   2.71200
 Alpha virt. eigenvalues --    2.71661   2.72172   2.72377   2.72931   2.73397
 Alpha virt. eigenvalues --    2.73476   2.73883   2.73970   2.74156   2.74383
 Alpha virt. eigenvalues --    2.74948   2.75273   2.75661   2.76167   2.76318
 Alpha virt. eigenvalues --    2.76603   2.77210   2.77467   2.78179   2.78589
 Alpha virt. eigenvalues --    2.79314   2.79585   2.79762   2.80275   2.80750
 Alpha virt. eigenvalues --    2.81191   2.81734   2.82136   2.82383   2.83046
 Alpha virt. eigenvalues --    2.83704   2.84225   2.84548   2.85325   2.85582
 Alpha virt. eigenvalues --    2.86393   2.86761   2.87132   2.87430   2.88255
 Alpha virt. eigenvalues --    2.88925   2.89007   2.89712   2.90554   2.91097
 Alpha virt. eigenvalues --    2.91258   2.91592   2.92311   2.92405   2.93479
 Alpha virt. eigenvalues --    2.93861   2.94457   2.94816   2.95965   2.97336
 Alpha virt. eigenvalues --    2.97994   2.98269   2.98801   2.99743   3.00926
 Alpha virt. eigenvalues --    3.01755   3.02371   3.03667   3.04291   3.06866
 Alpha virt. eigenvalues --    3.08476   3.08792   3.10952   3.11058   3.13221
 Alpha virt. eigenvalues --    3.13874   3.14563   3.16125   3.17572   3.18545
 Alpha virt. eigenvalues --    3.19208   3.20581   3.21872   3.22848   3.25381
 Alpha virt. eigenvalues --    3.25740   3.26121   3.29229   3.29414   3.32202
 Alpha virt. eigenvalues --    3.34599   3.35994   3.40284   3.40896   3.41359
 Alpha virt. eigenvalues --    3.42922   3.43431   3.48249   3.48451   3.52487
 Alpha virt. eigenvalues --    3.54318   3.62343   4.00440   4.01541   4.02252
 Alpha virt. eigenvalues --    4.02716   4.03116   4.03779   4.04438   4.05838
 Alpha virt. eigenvalues --    4.06465   4.06826   4.07377   4.08314   4.08832
 Alpha virt. eigenvalues --    4.09035   4.09904   4.10559   4.11347   4.11672
 Alpha virt. eigenvalues --    4.12451   4.13650   4.14238   4.14970   4.16008
 Alpha virt. eigenvalues --    4.16607   4.17027   4.17201   4.18811   4.19098
 Alpha virt. eigenvalues --    4.19778   4.21046   4.21333   4.22094   4.22699
 Alpha virt. eigenvalues --    4.23765   4.25007   4.25458   4.25849   4.26072
 Alpha virt. eigenvalues --    4.26328   4.27006   4.27482   4.27827   4.28135
 Alpha virt. eigenvalues --    4.28561   4.28842   4.29506   4.30469   4.31225
 Alpha virt. eigenvalues --    4.32146   4.32720   4.33939   4.35334   4.36539
 Alpha virt. eigenvalues --    4.36828   4.38846   4.39182   4.40327   4.40825
 Alpha virt. eigenvalues --    4.41804   4.41969   4.42622   4.43401   4.43786
 Alpha virt. eigenvalues --    4.44381   4.46635   4.47999   4.48904   4.51161
 Alpha virt. eigenvalues --    4.52116   4.53294   4.53929   4.56314   4.56592
 Alpha virt. eigenvalues --    4.58034   4.59705   4.60522   4.61893   4.64097
 Alpha virt. eigenvalues --    4.64467   4.66431   4.68353   4.70622   4.75998
 Alpha virt. eigenvalues --    4.78312   4.79598   4.81292   4.81716   4.84835
 Alpha virt. eigenvalues --    4.86895   4.90025   4.94025   4.96624   5.01236
 Alpha virt. eigenvalues --    5.02521   5.04827   5.09919   5.13849   5.22873
          Condensed to atoms (all electrons):
 Mulliken charges:
               1
     1  C   -0.354793
     2  C   -0.385033
     3  C    0.009482
     4  C   -0.372448
     5  C    0.091388
     6  C    0.090861
     7  C    0.004832
     8  C    0.090842
     9  C    0.064415
    10  C    0.096353
    11  C    0.091331
    12  C    0.047113
    13  C   -0.014627
    14  C    0.014571
    15  C    0.029870
    16  C    0.006232
    17  C    0.103062
    18  C    0.044167
    19  C    0.104568
    20  C    0.045459
    21  C   -0.352390
    22  C    0.012126
    23  C    0.179368
    24  C    0.088488
    25  C    0.187464
    26  C    0.088782
    27  C   -0.377399
    28  C   -0.383293
    29  C    0.154080
    30  C    0.086951
    31  C    0.085403
    32  C    0.092169
    33  C   -0.014459
    34  C    0.007618
    35  C    0.055803
    36  C    0.037166
    37  C    0.095940
    38  C    0.039883
    39  C    0.153786
    40  C    0.082473
    41  C    0.040612
    42  C    0.063079
    43  C    0.084445
    44  C    0.148790
    45  C    0.123630
    46  C    0.043901
    47  C    0.114160
    48  C    0.128545
    49  C   -0.377432
    50  C   -0.382212
    51  C    0.097366
    52  C    0.085981
    53  C    0.031682
    54  C    0.007676
    55  C   -0.016213
    56  C    0.011260
    57  C    0.092258
    58  C    0.005545
    59  C    0.150808
    60  C    0.078115
    61  C   -0.377841
    62  C   -0.391034
    63  C    0.113443
    64  C    0.145502
    65  C    0.118777
    66  C    0.125989
    67  C    0.144135
    68  C    0.120170
    69  C   -0.384332
    70  C   -0.380062
    71  C    0.088229
    72  C    0.097537
    73  C    0.042116
    74  C    0.013010
    75  C    0.066172
    76  C    0.019887
    77  C   -0.356463
    78  C    0.004194
    79  C   -0.383975
    80  C   -0.014624
    81  C    0.090672
    82  C    0.092648
    83  C    0.068366
    84  C    0.043907
    85  Cl   0.030141
    86  Cl   0.004244
    87  Cl   0.023621
    88  Cl   0.021761
    89  Cl   0.024828
    90  Cl   0.022963
    91  Cl   0.017319
    92  Cl   0.022162
    93  Cl   0.024358
    94  Cl  -0.009722
    95  Cl   0.005651
    96  Cl   0.027658
    97  Cl   0.027997
    98  Cl  -0.009006
 Sum of Mulliken charges =  -0.00000
 Mulliken charges with hydrogens summed into heavy atoms:
               1
     1  C   -0.354793
     2  C   -0.385033
     3  C    0.009482
     4  C   -0.372448
     5  C    0.091388
     6  C    0.090861
     7  C    0.004832
     8  C    0.090842
     9  C    0.064415
    10  C    0.096353
    11  C    0.091331
    12  C    0.047113
    13  C   -0.014627
    14  C    0.014571
    15  C    0.029870
    16  C    0.006232
    17  C    0.103062
    18  C    0.044167
    19  C    0.104568
    20  C    0.045459
    21  C   -0.352390
    22  C    0.012126
    23  C    0.179368
    24  C    0.088488
    25  C    0.187464
    26  C    0.088782
    27  C   -0.377399
    28  C   -0.383293
    29  C    0.154080
    30  C    0.086951
    31  C    0.085403
    32  C    0.092169
    33  C   -0.014459
    34  C    0.007618
    35  C    0.055803
    36  C    0.037166
    37  C    0.095940
    38  C    0.039883
    39  C    0.153786
    40  C    0.082473
    41  C    0.040612
    42  C    0.063079
    43  C    0.084445
    44  C    0.148790
    45  C    0.123630
    46  C    0.043901
    47  C    0.114160
    48  C    0.128545
    49  C   -0.377432
    50  C   -0.382212
    51  C    0.097366
    52  C    0.085981
    53  C    0.031682
    54  C    0.007676
    55  C   -0.016213
    56  C    0.011260
    57  C    0.092258
    58  C    0.005545
    59  C    0.150808
    60  C    0.078115
    61  C   -0.377841
    62  C   -0.391034
    63  C    0.113443
    64  C    0.145502
    65  C    0.118777
    66  C    0.125989
    67  C    0.144135
    68  C    0.120170
    69  C   -0.384332
    70  C   -0.380062
    71  C    0.088229
    72  C    0.097537
    73  C    0.042116
    74  C    0.013010
    75  C    0.066172
    76  C    0.019887
    77  C   -0.356463
    78  C    0.004194
    79  C   -0.383975
    80  C   -0.014624
    81  C    0.090672
    82  C    0.092648
    83  C    0.068366
    84  C    0.043907
    85  Cl   0.030141
    86  Cl   0.004244
    87  Cl   0.023621
    88  Cl   0.021761
    89  Cl   0.024828
    90  Cl   0.022963
    91  Cl   0.017319
    92  Cl   0.022162
    93  Cl   0.024358
    94  Cl  -0.009722
    95  Cl   0.005651
    96  Cl   0.027658
    97  Cl   0.027997
    98  Cl  -0.009006
 Electronic spatial extent (au):  <R**2>=          66852.9737
 Charge=             -0.0000 electrons
 Dipole moment (field-independent basis, Debye):
    X=              0.6813    Y=             -3.4802    Z=             -2.8818  Tot=              4.5695
 Quadrupole moment (field-independent basis, Debye-Ang):
   XX=           -690.4098   YY=           -655.0442   ZZ=           -649.8299
   XY=              7.2360   XZ=             -0.7939   YZ=              0.3586
 Traceless Quadrupole moment (field-independent basis, Debye-Ang):
   XX=            -25.3151   YY=             10.0504   ZZ=             15.2647
   XY=              7.2360   XZ=             -0.7939   YZ=              0.3586
 Octapole moment (field-independent basis, Debye-Ang**2):
  XXX=            -48.8406  YYY=            -67.4284  ZZZ=            -37.5803  XYY=             22.2081
  XXY=             19.4285  XXZ=             30.5683  XZZ=            -27.7891  YZZ=             38.6976
  YYZ=            -23.9131  XYZ=             13.5594
 Hexadecapole moment (field-independent basis, Debye-Ang**3):
 XXXX=         -38120.0003 YYYY=         -29131.6988 ZZZZ=         -26891.8850 XXXY=           -187.6518
 XXXZ=             91.7776 YYYX=             67.2650 YYYZ=            -29.8305 ZZZX=            -31.3715
 ZZZY=            122.6680 XXYY=         -11316.4483 XXZZ=         -11048.3319 YYZZ=          -9399.1437
 XXYZ=            -17.4278 YYXZ=             18.1466 ZZXY=             75.6456
 N-N= 2.601730311478D+04 E-N=-7.473861154554D+04  KE= 9.594208491076D+03
 No NMR shielding tensors so no spin-rotation constants.
 Leave Link  601 at Wed Jun 29 07:48:19 2022, MaxMem=  1342177280 cpu:              27.6 elap:               1.4
 (Enter /home/mkliu/g16/l9999.exe)
 1\1\GINC-NODE03\FOpt\RB3LYP\6-31G(d,p)\C84Cl14\MKLIU\29-Jun-2022\0\\#P
  opt b3lyp/6-31G(d, p) empiricaldispersion=GD3\\force\\0,1\C,8.4350157
 599,18.6444779887,10.8121341502\C,12.5991083551,19.9879121344,8.894380
 2927\C,8.2643976963,26.8798590436,10.5287753155\C,12.483460956,25.7701
 728069,8.9267293801\C,8.0274352182,19.165285929,9.4348491693\C,12.0783
 666735,19.4883240213,10.2218864746\C,7.9519349055,26.8498247958,9.1046
 1359\C,11.8858704951,26.2351508378,10.2397191892\C,9.0015971265,19.277
 6755238,8.3771927814\C,12.3471809036,20.1264907257,11.4073413798\C,12.
 1425629109,25.5679587079,11.4206504611\C,8.9571386055,26.663182743,8.1
 254079872\C,10.3781922614,19.1014346759,8.6823666678\C,10.3100983061,2
 6.6940427866,8.5953696158\C,10.8286352186,18.8504405197,10.0408985983\
 C,10.6315085002,26.8231939298,10.0152343024\C,9.9083938963,18.77565214
 43,11.0700273058\C,9.6053285402,26.7966305647,10.9977344556\C,10.17407
 2564,19.4267090883,12.2815056838\C,9.8603149964,26.0789146063,12.22121
 6767\C,8.9089847912,19.838858782,12.9823382238\C,8.7565437611,25.45763
 89181,12.8711774061\C,7.8678900299,19.5023752507,11.9295069175\C,7.449
 2200553,25.5858033734,12.3925154375\C,6.751423927,20.2011184301,11.781
 5094071\C,7.1977344034,26.3017534021,11.2338112503\C,5.9546744634,20.1
 847683908,10.5003072686\C,6.058729418,25.94714917,10.291158389\C,6.786
 7458165,19.7833406289,9.2961278206\C,6.6583528693,26.3106270128,8.9476
 69113\C,6.4415859262,20.3690788752,8.0643513103\C,6.3432228849,25.6344
 458042,7.8005882888\C,7.3441908067,20.4174499569,7.007115053\C,7.30665
 61204,25.4803951054,6.7738006102\C,8.6939561913,19.9956128043,7.169786
 1631\C,8.6556049595,25.916992052,6.9306094327\C,9.7372696172,20.650630
 3209,6.4181134656\C,9.718586355,25.1663449988,6.269529736\C,11.0548930
 347,20.6073612338,6.8918609408\C,12.7539042144,22.1854164141,7.7843215
 234\C,12.6870031981,23.5831235258,7.8005199352\C,11.0551113706,25.1893
 467835,6.8260013411\C,11.3684136922,19.7908714193,7.9901887845\C,12.94
 03830194,21.4684390961,8.957780377\C,12.8546151924,24.3009457731,8.984
 3210887\C,11.3274055019,26.012634746,7.9519882377\C,13.132273578,22.17
 29516335,10.1768437772\C,13.0905460891,23.5940110514,10.1832429273\C,1
 3.1850853442,21.3908830471,11.4952155292\C,13.0797458544,24.3676368848
 ,11.5050033356\C,12.4480500633,22.1576969387,12.583502358\C,12.4077643
 325,23.5378733469,12.5788741073\C,11.3613315995,20.1271071171,12.42826
 08877\C,11.1311866656,25.4684072419,12.3951188095\C,11.3776382252,21.4
 098805668,13.0977058046\C,11.2765913174,24.1924131424,13.0782701383\C,
 8.9008326567,21.3212043822,13.3396046621\C,8.8962720696,24.1363946515,
 13.475703428\C,7.6984604697,22.0384301549,13.2272008409\C,7.6983714215
 ,23.4360272741,13.346914876\C,6.4523095707,21.4235458521,12.6110116315
 \C,6.6279733105,24.3688204499,12.7683707287\C,5.8956447878,22.34805366
 8,11.5397124719\C,6.0041990976,23.7375113376,11.538493382\C,5.59740761
 91,21.6550378966,10.3726671611\C,5.765053648,24.4420940961,10.33993276
 95\C,5.3831120714,22.3249931499,9.1679311457\C,5.443454595,23.73447744
 72,9.1506536875\C,5.3853807493,21.4724360148,7.9081269197\C,5.36052788
 47,24.4738342083,7.8063366995\C,5.9219720266,22.2444362363,6.726242429
 2\C,5.9052750524,23.6116043065,6.6794085897\C,6.9961473559,21.52224689
 61,6.123335081\C,6.9818628613,24.2892362178,6.0340420695\C,7.973559003
 5,22.1572638915,5.3971941361\C,7.9922735265,23.5767934547,5.4000442852
 \C,9.3812287984,21.6121558926,5.2826863257\C,9.3617361538,24.025882712
 5,5.4943900453\C,12.0923376498,21.6492790666,6.5131132699\C,11.8715299
 784,24.0428242562,6.6752940642\C,10.2027866841,22.8885488604,5.3859197
 208\C,11.44312655,22.9053180837,5.9732661875\C,10.147590967,22.0268078
 954,13.498878015\C,10.1392560887,23.4646812079,13.538443607\Cl,4.46623
 36111,19.1105953406,10.6645854775\Cl,7.8915598465,16.8737886228,10.970
 140196\Cl,3.6993225396,20.8199980007,7.5652150574\Cl,3.6260620134,24.9
 996458975,7.498555859\Cl,4.5326396953,26.8936554958,10.678610497\Cl,14
 .0537388076,19.0085522279,8.3400749823\Cl,14.9346241432,21.0271481327,
 11.9371146745\Cl,14.7891191214,24.8756993257,11.9507820052\Cl,13.31529
 10263,20.9636944424,5.3228268546\Cl,9.6229962268,20.7444837241,3.65547
 64078\Cl,13.9670977464,26.7730040844,8.4602832092\Cl,5.3293411499,24.7
 902311189,14.0008969298\Cl,5.1997628833,21.0695182561,13.9181377448\Cl
 ,8.642338643,18.8303699268,14.5306570252\\Version=ES64L-G16RevA.03\Sta
 te=1-A\HF=-9643.8331635\RMSD=1.951e-09\RMSF=2.155e-05\Dipole=0.2914019
 ,1.7413769,-0.3386554\Quadrupole=-16.987569,10.1498887,6.8376802,-1.60
 4466,8.5541174,1.9680467\PG=C01 [X(C84Cl14)]\\@


 WAR ES EIN GOTT DER DIESE ZEICHEN SCHRIEB?
          - LUDWIG BOLTZMANN, QUOTING GOETHE, ABOUT MAXWELL'S EQUATIONS.
 Job cpu time:       1 days 12 hours 35 minutes 34.2 seconds.
 Elapsed time:       0 days  1 hours 31 minutes 36.7 seconds.
 File lengths (MBytes):  RWF=   1429 Int=      0 D2E=      0 Chk=    179 Scr=      1
 Normal termination of Gaussian 16 at Wed Jun 29 07:48:21 2022.
