 Entering Gaussian System, Link 0=g16
 Input=16_addons_C84_11_Cl22_rank_7.gjf
 Output=16_addons_C84_11_Cl22_rank_7.log
 Initial command:
 /home/mkliu/g16/l1.exe "/data/scratch/Gau-23331.inp" -scrdir="/data/scratch/"
 Entering Link 1 = /home/mkliu/g16/l1.exe PID=     23332.
  
 Copyright (c) 1988,1990,1992,1993,1995,1998,2003,2009,2016,
            Gaussian, Inc.  All Rights Reserved.
  
 This is part of the Gaussian(R) 16 program.  It is based on
 the Gaussian(R) 09 system (copyright 2009, Gaussian, Inc.),
 the Gaussian(R) 03 system (copyright 2003, Gaussian, Inc.),
 the Gaussian(R) 98 system (copyright 1998, Gaussian, Inc.),
 the Gaussian(R) 94 system (copyright 1995, Gaussian, Inc.),
 the Gaussian 92(TM) system (copyright 1992, Gaussian, Inc.),
 the Gaussian 90(TM) system (copyright 1990, Gaussian, Inc.),
 the Gaussian 88(TM) system (copyright 1988, Gaussian, Inc.),
 the Gaussian 86(TM) system (copyright 1986, Carnegie Mellon
 University), and the Gaussian 82(TM) system (copyright 1983,
 Carnegie Mellon University). Gaussian is a federally registered
 trademark of Gaussian, Inc.
  
 This software contains proprietary and confidential information,
 including trade secrets, belonging to Gaussian, Inc.
  
 This software is provided under written license and may be
 used, copied, transmitted, or stored only in accord with that
 written license.
  
 The following legend is applicable only to US Government
 contracts under FAR:
  
                    RESTRICTED RIGHTS LEGEND
  
 Use, reproduction and disclosure by the US Government is
 subject to restrictions as set forth in subparagraphs (a)
 and (c) of the Commercial Computer Software - Restricted
 Rights clause in FAR 52.227-19.
  
 Gaussian, Inc.
 340 Quinnipiac St., Bldg. 40, Wallingford CT 06492
  
  
 ---------------------------------------------------------------
 Warning -- This program may not be used in any manner that
 competes with the business of Gaussian, Inc. or will provide
 assistance to any competitor of Gaussian, Inc.  The licensee
 of this program is prohibited from giving any competitor of
 Gaussian, Inc. access to this program.  By using this program,
 the user acknowledges that Gaussian, Inc. is engaged in the
 business of creating and licensing software in the field of
 computational chemistry and represents and warrants to the
 licensee that it is not a competitor of Gaussian, Inc. and that
 it will not use this program in any manner prohibited above.
 ---------------------------------------------------------------
  

 Cite this work as:
 Gaussian 16, Revision A.03,
 M. J. Frisch, G. W. Trucks, H. B. Schlegel, G. E. Scuseria, 
 M. A. Robb, J. R. Cheeseman, G. Scalmani, V. Barone, 
 G. A. Petersson, H. Nakatsuji, X. Li, M. Caricato, A. V. Marenich, 
 J. Bloino, B. G. Janesko, R. Gomperts, B. Mennucci, H. P. Hratchian, 
 J. V. Ortiz, A. F. Izmaylov, J. L. Sonnenberg, D. Williams-Young, 
 F. Ding, F. Lipparini, F. Egidi, J. Goings, B. Peng, A. Petrone, 
 T. Henderson, D. Ranasinghe, V. G. Zakrzewski, J. Gao, N. Rega, 
 G. Zheng, W. Liang, M. Hada, M. Ehara, K. Toyota, R. Fukuda, 
 J. Hasegawa, M. Ishida, T. Nakajima, Y. Honda, O. Kitao, H. Nakai, 
 T. Vreven, K. Throssell, J. A. Montgomery, Jr., J. E. Peralta, 
 F. Ogliaro, M. J. Bearpark, J. J. Heyd, E. N. Brothers, K. N. Kudin, 
 V. N. Staroverov, T. A. Keith, R. Kobayashi, J. Normand, 
 K. Raghavachari, A. P. Rendell, J. C. Burant, S. S. Iyengar, 
 J. Tomasi, M. Cossi, J. M. Millam, M. Klene, C. Adamo, R. Cammi, 
 J. W. Ochterski, R. L. Martin, K. Morokuma, O. Farkas, 
 J. B. Foresman, and D. J. Fox, Gaussian, Inc., Wallingford CT, 2016.
 
 ******************************************
 Gaussian 16:  ES64L-G16RevA.03 25-Dec-2016
                27-Jun-2022 
 ******************************************
 %mem=10GB
 %chk=16_addons_C84_11_Cl22_rank_7.chk
 %nprocshared=24
 Will use up to   24 processors via shared memory.
 ------------------------------------------------
 #P opt b3lyp/6-31G(d, p) empiricaldispersion=GD3
 ------------------------------------------------
 1/18=20,19=15,26=3,38=1/1,3;
 2/9=110,12=2,17=6,18=5,40=1/2;
 3/5=1,6=6,7=101,11=2,25=1,30=1,71=1,74=-5,124=31/1,2,3;
 4//1;
 5/5=2,38=5/2;
 6/7=2,8=2,9=2,10=2,28=1/1;
 7//1,2,3,16;
 1/18=20,19=15,26=3/3(2);
 2/9=110/2;
 99//99;
 2/9=110/2;
 3/5=1,6=6,7=101,11=2,25=1,30=1,71=1,74=-5,124=31/1,2,3;
 4/5=5,16=3,69=1/1;
 5/5=2,38=5/2;
 7//1,2,3,16;
 1/18=20,19=15,26=3/3(-5);
 2/9=110/2;
 6/7=2,8=2,9=2,10=2,19=2,28=1/1;
 99/9=1/99;
 Leave Link    1 at Mon Jun 27 19:15:43 2022, MaxMem=  1342177280 cpu:               0.7 elap:               0.1
 (Enter /home/mkliu/g16/l101.exe)
 -----
 force
 -----
 Symbolic Z-matrix:
 Charge =  0 Multiplicity = 1
 C                     8.42445   18.66062   10.81678 
 C                     12.58243   19.99455   8.89164 
 C                     8.26332   26.83129   10.50267 
 C                     12.49018   25.74412   8.91939 
 C                     8.02226   19.16881   9.45223 
 C                     12.07315   19.49961   10.21232 
 C                     7.96206   26.81442   9.12885 
 C                     11.88751   26.17797   10.22467 
 C                     8.98417   19.27624   8.41361 
 C                     12.33876   20.13965   11.38345 
 C                     12.14069   25.52285   11.39026 
 C                     8.96617   26.58375   8.15881 
 C                     10.36479   19.09244   8.70806 
 C                     10.28889   26.62613   8.62865 
 C                     10.8136   18.86243   10.03253 
 C                     10.61162   26.76554   10.01064 
 C                     9.89064   18.78791   11.07176 
 C                     9.59905   26.75284   10.98373 
 C                     10.15616   19.44211   12.26142 
 C                     9.85066   26.04074   12.19785 
 C                     8.90089   19.86205   12.9595 
 C                     8.75877   25.4242   12.83964 
 C                     7.86745   19.52933   11.91541 
 C                     7.42741   25.54954   12.35893 
 C                     6.74248   20.21237   11.78184 
 C                     7.17507   26.24851   11.2213 
 C                     5.94101   20.18776   10.5136 
 C                     6.04974   25.90149   10.28536 
 C                     6.7753    19.79314   9.32435 
 C                     6.65757   26.23975   8.95307 
 C                     6.43184   20.3774   8.11842 
 C                     6.3338    25.61164   7.81969 
 C                     7.35633   20.43098   7.06497 
 C                     7.23051   25.6453   6.61076 
 C                     8.68229   19.98938   7.21586 
 C                     8.68915   25.84457   6.97498 
 C                     9.71804   20.65102   6.46023 
 C                     9.71135   25.12933   6.36074 
 C                     11.06658   20.58975   6.92333 
 C                     12.68852   22.18855   7.79685 
 C                     12.67413   23.57501   7.79493 
 C                     11.03792   25.15324   6.87514 
 C                     11.36418   19.80098   8.0047 
 C                     12.88522   21.47138   8.96453 
 C                     12.84116   24.28009   8.9734 
 C                     11.3197   25.93056   7.97318 
 C                     13.09956   22.16896   10.16136 
 C                     13.06841   23.5753   10.1646 
 C                     13.17211   21.39141   11.46867 
 C                     13.07486   24.34297   11.47688 
 C                     12.43297   22.15785   12.53303 
 C                     12.39785   23.51717   12.53061 
 C                     11.34806   20.14485   12.40772 
 C                     11.11513   25.42688   12.37026 
 C                     11.34982   21.40744   13.05203 
 C                     11.25314   24.17857   13.03776 
 C                     8.89617   21.33444   13.30144 
 C                     8.89354   24.12933   13.42637 
 C                     7.68915   22.04425   13.19035 
 C                     7.6859    23.4254   13.29908 
 C                     6.44287   21.42753   12.60918 
 C                     6.61525   24.34917   12.75582 
 C                     5.89215   22.34213   11.54481 
 C                     5.99364   23.72187   11.53707 
 C                     5.59941   21.64988   10.37947 
 C                     5.75821   24.41485   10.34168 
 C                     5.38994   22.31838   9.1846 
 C                     5.45036   23.71878   9.16286 
 C                     5.38687   21.46562   7.94455 
 C                     5.38321   24.45288   7.82865 
 C                     5.94218   22.24013   6.78446 
 C                     5.95811   23.6082   6.73266 
 C                     7.0147    21.52693   6.21313 
 C                     6.99791   24.28418   6.04448 
 C                     8.02685   22.18645   5.52953 
 C                     7.99869   23.5973   5.41773 
 C                     9.36357   21.7216   5.62075 
 C                     9.3971    24.12484   5.27163 
 C                     12.07242   21.63805   6.53987 
 C                     12.07982   24.12295   6.51779 
 C                     10.21911   22.87155   5.47231 
 C                     11.46351   22.87965   5.96144 
 C                     10.12586   22.02637   13.45044 
 C                     10.12678   23.45485   13.4887 
 Cl                    4.5375    26.81497   10.62384 
 Cl                    3.66431   24.92998   7.53177 
 Cl                    13.34584   24.84379   5.45048 
 Cl                    13.92928   26.71113   8.44013 
 Cl                    14.76521   24.8044   11.8838 
 Cl                    14.8988   21.07769   11.85927 
 Cl                    14.02706   19.09792   8.30656 
 Cl                    3.73727   20.81753   7.63818 
 Cl                    4.47602   19.14938   10.64988 
 Cl                    5.34468   24.72048   13.97671 
 Cl                    7.85823   16.94161   10.98124 
 Cl                    5.23533   21.10244   13.9077 
 Cl                    8.62133   18.91296   14.48389 
 Cl                    13.32592   20.93507   5.42968 
 Cl                    9.70297   24.89005   3.66865 
 Cl                    6.73921   26.96945   5.46621 
 
 ITRead=  0  0  0  0  0  0  0  0  0  0  0  0  0  0  0  0  0  0  0  0
 ITRead=  0  0  0  0  0  0  0  0  0  0  0  0  0  0  0  0  0  0  0  0
 ITRead=  0  0  0  0  0  0  0  0  0  0  0  0  0  0  0  0  0  0  0  0
 ITRead=  0  0  0  0  0  0  0  0  0  0  0  0  0  0  0  0  0  0  0  0
 ITRead=  0  0  0  0  0  0  0  0  0  0  0  0  0  0  0  0  0  0  0  0
 MicOpt= -1 -1 -1 -1 -1 -1 -1 -1 -1 -1 -1 -1 -1 -1 -1 -1 -1 -1 -1 -1
 MicOpt= -1 -1 -1 -1 -1 -1 -1 -1 -1 -1 -1 -1 -1 -1 -1 -1 -1 -1 -1 -1
 MicOpt= -1 -1 -1 -1 -1 -1 -1 -1 -1 -1 -1 -1 -1 -1 -1 -1 -1 -1 -1 -1
 MicOpt= -1 -1 -1 -1 -1 -1 -1 -1 -1 -1 -1 -1 -1 -1 -1 -1 -1 -1 -1 -1
 MicOpt= -1 -1 -1 -1 -1 -1 -1 -1 -1 -1 -1 -1 -1 -1 -1 -1 -1 -1 -1 -1
 NAtoms=    100 NQM=      100 NQMF=       0 NMMI=      0 NMMIF=      0
                NMic=       0 NMicF=      0.
                    Isotopes and Nuclear Properties:
 (Nuclear quadrupole moments (NQMom) in fm**2, nuclear magnetic moments (NMagM)
  in nuclear magnetons)

  Atom         1           2           3           4           5           6           7           8           9          10
 IAtWgt=          12          12          12          12          12          12          12          12          12          12
 AtmWgt=  12.0000000  12.0000000  12.0000000  12.0000000  12.0000000  12.0000000  12.0000000  12.0000000  12.0000000  12.0000000
 NucSpn=           0           0           0           0           0           0           0           0           0           0
 AtZEff=  -0.0000000  -0.0000000  -0.0000000  -0.0000000  -0.0000000  -0.0000000  -0.0000000  -0.0000000  -0.0000000  -0.0000000
 NQMom=    0.0000000   0.0000000   0.0000000   0.0000000   0.0000000   0.0000000   0.0000000   0.0000000   0.0000000   0.0000000
 NMagM=    0.0000000   0.0000000   0.0000000   0.0000000   0.0000000   0.0000000   0.0000000   0.0000000   0.0000000   0.0000000
 AtZNuc=   6.0000000   6.0000000   6.0000000   6.0000000   6.0000000   6.0000000   6.0000000   6.0000000   6.0000000   6.0000000

  Atom        11          12          13          14          15          16          17          18          19          20
 IAtWgt=          12          12          12          12          12          12          12          12          12          12
 AtmWgt=  12.0000000  12.0000000  12.0000000  12.0000000  12.0000000  12.0000000  12.0000000  12.0000000  12.0000000  12.0000000
 NucSpn=           0           0           0           0           0           0           0           0           0           0
 AtZEff=  -0.0000000  -0.0000000  -0.0000000  -0.0000000  -0.0000000  -0.0000000  -0.0000000  -0.0000000  -0.0000000  -0.0000000
 NQMom=    0.0000000   0.0000000   0.0000000   0.0000000   0.0000000   0.0000000   0.0000000   0.0000000   0.0000000   0.0000000
 NMagM=    0.0000000   0.0000000   0.0000000   0.0000000   0.0000000   0.0000000   0.0000000   0.0000000   0.0000000   0.0000000
 AtZNuc=   6.0000000   6.0000000   6.0000000   6.0000000   6.0000000   6.0000000   6.0000000   6.0000000   6.0000000   6.0000000

  Atom        21          22          23          24          25          26          27          28          29          30
 IAtWgt=          12          12          12          12          12          12          12          12          12          12
 AtmWgt=  12.0000000  12.0000000  12.0000000  12.0000000  12.0000000  12.0000000  12.0000000  12.0000000  12.0000000  12.0000000
 NucSpn=           0           0           0           0           0           0           0           0           0           0
 AtZEff=  -0.0000000  -0.0000000  -0.0000000  -0.0000000  -0.0000000  -0.0000000  -0.0000000  -0.0000000  -0.0000000  -0.0000000
 NQMom=    0.0000000   0.0000000   0.0000000   0.0000000   0.0000000   0.0000000   0.0000000   0.0000000   0.0000000   0.0000000
 NMagM=    0.0000000   0.0000000   0.0000000   0.0000000   0.0000000   0.0000000   0.0000000   0.0000000   0.0000000   0.0000000
 AtZNuc=   6.0000000   6.0000000   6.0000000   6.0000000   6.0000000   6.0000000   6.0000000   6.0000000   6.0000000   6.0000000

  Atom        31          32          33          34          35          36          37          38          39          40
 IAtWgt=          12          12          12          12          12          12          12          12          12          12
 AtmWgt=  12.0000000  12.0000000  12.0000000  12.0000000  12.0000000  12.0000000  12.0000000  12.0000000  12.0000000  12.0000000
 NucSpn=           0           0           0           0           0           0           0           0           0           0
 AtZEff=  -0.0000000  -0.0000000  -0.0000000  -0.0000000  -0.0000000  -0.0000000  -0.0000000  -0.0000000  -0.0000000  -0.0000000
 NQMom=    0.0000000   0.0000000   0.0000000   0.0000000   0.0000000   0.0000000   0.0000000   0.0000000   0.0000000   0.0000000
 NMagM=    0.0000000   0.0000000   0.0000000   0.0000000   0.0000000   0.0000000   0.0000000   0.0000000   0.0000000   0.0000000
 AtZNuc=   6.0000000   6.0000000   6.0000000   6.0000000   6.0000000   6.0000000   6.0000000   6.0000000   6.0000000   6.0000000

  Atom        41          42          43          44          45          46          47          48          49          50
 IAtWgt=          12          12          12          12          12          12          12          12          12          12
 AtmWgt=  12.0000000  12.0000000  12.0000000  12.0000000  12.0000000  12.0000000  12.0000000  12.0000000  12.0000000  12.0000000
 NucSpn=           0           0           0           0           0           0           0           0           0           0
 AtZEff=  -0.0000000  -0.0000000  -0.0000000  -0.0000000  -0.0000000  -0.0000000  -0.0000000  -0.0000000  -0.0000000  -0.0000000
 NQMom=    0.0000000   0.0000000   0.0000000   0.0000000   0.0000000   0.0000000   0.0000000   0.0000000   0.0000000   0.0000000
 NMagM=    0.0000000   0.0000000   0.0000000   0.0000000   0.0000000   0.0000000   0.0000000   0.0000000   0.0000000   0.0000000
 AtZNuc=   6.0000000   6.0000000   6.0000000   6.0000000   6.0000000   6.0000000   6.0000000   6.0000000   6.0000000   6.0000000

  Atom        51          52          53          54          55          56          57          58          59          60
 IAtWgt=          12          12          12          12          12          12          12          12          12          12
 AtmWgt=  12.0000000  12.0000000  12.0000000  12.0000000  12.0000000  12.0000000  12.0000000  12.0000000  12.0000000  12.0000000
 NucSpn=           0           0           0           0           0           0           0           0           0           0
 AtZEff=  -0.0000000  -0.0000000  -0.0000000  -0.0000000  -0.0000000  -0.0000000  -0.0000000  -0.0000000  -0.0000000  -0.0000000
 NQMom=    0.0000000   0.0000000   0.0000000   0.0000000   0.0000000   0.0000000   0.0000000   0.0000000   0.0000000   0.0000000
 NMagM=    0.0000000   0.0000000   0.0000000   0.0000000   0.0000000   0.0000000   0.0000000   0.0000000   0.0000000   0.0000000
 AtZNuc=   6.0000000   6.0000000   6.0000000   6.0000000   6.0000000   6.0000000   6.0000000   6.0000000   6.0000000   6.0000000

  Atom        61          62          63          64          65          66          67          68          69          70
 IAtWgt=          12          12          12          12          12          12          12          12          12          12
 AtmWgt=  12.0000000  12.0000000  12.0000000  12.0000000  12.0000000  12.0000000  12.0000000  12.0000000  12.0000000  12.0000000
 NucSpn=           0           0           0           0           0           0           0           0           0           0
 AtZEff=  -0.0000000  -0.0000000  -0.0000000  -0.0000000  -0.0000000  -0.0000000  -0.0000000  -0.0000000  -0.0000000  -0.0000000
 NQMom=    0.0000000   0.0000000   0.0000000   0.0000000   0.0000000   0.0000000   0.0000000   0.0000000   0.0000000   0.0000000
 NMagM=    0.0000000   0.0000000   0.0000000   0.0000000   0.0000000   0.0000000   0.0000000   0.0000000   0.0000000   0.0000000
 AtZNuc=   6.0000000   6.0000000   6.0000000   6.0000000   6.0000000   6.0000000   6.0000000   6.0000000   6.0000000   6.0000000

  Atom        71          72          73          74          75          76          77          78          79          80
 IAtWgt=          12          12          12          12          12          12          12          12          12          12
 AtmWgt=  12.0000000  12.0000000  12.0000000  12.0000000  12.0000000  12.0000000  12.0000000  12.0000000  12.0000000  12.0000000
 NucSpn=           0           0           0           0           0           0           0           0           0           0
 AtZEff=  -0.0000000  -0.0000000  -0.0000000  -0.0000000  -0.0000000  -0.0000000  -0.0000000  -0.0000000  -0.0000000  -0.0000000
 NQMom=    0.0000000   0.0000000   0.0000000   0.0000000   0.0000000   0.0000000   0.0000000   0.0000000   0.0000000   0.0000000
 NMagM=    0.0000000   0.0000000   0.0000000   0.0000000   0.0000000   0.0000000   0.0000000   0.0000000   0.0000000   0.0000000
 AtZNuc=   6.0000000   6.0000000   6.0000000   6.0000000   6.0000000   6.0000000   6.0000000   6.0000000   6.0000000   6.0000000

  Atom        81          82          83          84          85          86          87          88          89          90
 IAtWgt=          12          12          12          12          35          35          35          35          35          35
 AtmWgt=  12.0000000  12.0000000  12.0000000  12.0000000  34.9688527  34.9688527  34.9688527  34.9688527  34.9688527  34.9688527
 NucSpn=           0           0           0           0           3           3           3           3           3           3
 AtZEff=  -0.0000000  -0.0000000  -0.0000000  -0.0000000  -0.0000000  -0.0000000  -0.0000000  -0.0000000  -0.0000000  -0.0000000
 NQMom=    0.0000000   0.0000000   0.0000000   0.0000000  -8.1650000  -8.1650000  -8.1650000  -8.1650000  -8.1650000  -8.1650000
 NMagM=    0.0000000   0.0000000   0.0000000   0.0000000   0.8218740   0.8218740   0.8218740   0.8218740   0.8218740   0.8218740
 AtZNuc=   6.0000000   6.0000000   6.0000000   6.0000000  17.0000000  17.0000000  17.0000000  17.0000000  17.0000000  17.0000000

  Atom        91          92          93          94          95          96          97          98          99         100
 IAtWgt=          35          35          35          35          35          35          35          35          35          35
 AtmWgt=  34.9688527  34.9688527  34.9688527  34.9688527  34.9688527  34.9688527  34.9688527  34.9688527  34.9688527  34.9688527
 NucSpn=           3           3           3           3           3           3           3           3           3           3
 AtZEff=  -0.0000000  -0.0000000  -0.0000000  -0.0000000  -0.0000000  -0.0000000  -0.0000000  -0.0000000  -0.0000000  -0.0000000
 NQMom=   -8.1650000  -8.1650000  -8.1650000  -8.1650000  -8.1650000  -8.1650000  -8.1650000  -8.1650000  -8.1650000  -8.1650000
 NMagM=    0.8218740   0.8218740   0.8218740   0.8218740   0.8218740   0.8218740   0.8218740   0.8218740   0.8218740   0.8218740
 AtZNuc=  17.0000000  17.0000000  17.0000000  17.0000000  17.0000000  17.0000000  17.0000000  17.0000000  17.0000000  17.0000000
 Leave Link  101 at Mon Jun 27 19:15:44 2022, MaxMem=  1342177280 cpu:               6.7 elap:               0.3
 (Enter /home/mkliu/g16/l103.exe)

 GradGradGradGradGradGradGradGradGradGradGradGradGradGradGradGradGradGrad
 Berny optimization.
 Initialization pass.
                           ----------------------------
                           !    Initial Parameters    !
                           ! (Angstroms and Degrees)  !
 --------------------------                            --------------------------
 ! Name  Definition              Value          Derivative Info.                !
 --------------------------------------------------------------------------------
 ! R1    R(1,5)                  1.5106         estimate D2E/DX2                !
 ! R2    R(1,17)                 1.4936         estimate D2E/DX2                !
 ! R3    R(1,23)                 1.5073         estimate D2E/DX2                !
 ! R4    R(1,95)                 1.8173         estimate D2E/DX2                !
 ! R5    R(2,6)                  1.4995         estimate D2E/DX2                !
 ! R6    R(2,43)                 1.5193         estimate D2E/DX2                !
 ! R7    R(2,44)                 1.5093         estimate D2E/DX2                !
 ! R8    R(2,91)                 1.7981         estimate D2E/DX2                !
 ! R9    R(3,7)                  1.4066         estimate D2E/DX2                !
 ! R10   R(3,18)                 1.4219         estimate D2E/DX2                !
 ! R11   R(3,26)                 1.4284         estimate D2E/DX2                !
 ! R12   R(4,8)                  1.5017         estimate D2E/DX2                !
 ! R13   R(4,45)                 1.5065         estimate D2E/DX2                !
 ! R14   R(4,46)                 1.5166         estimate D2E/DX2                !
 ! R15   R(4,88)                 1.7988         estimate D2E/DX2                !
 ! R16   R(5,9)                  1.4197         estimate D2E/DX2                !
 ! R17   R(5,29)                 1.4004         estimate D2E/DX2                !
 ! R18   R(6,10)                 1.3608         estimate D2E/DX2                !
 ! R19   R(6,15)                 1.4229         estimate D2E/DX2                !
 ! R20   R(7,12)                 1.4151         estimate D2E/DX2                !
 ! R21   R(7,30)                 1.4363         estimate D2E/DX2                !
 ! R22   R(8,11)                 1.3608         estimate D2E/DX2                !
 ! R23   R(8,16)                 1.4209         estimate D2E/DX2                !
 ! R24   R(9,13)                 1.4236         estimate D2E/DX2                !
 ! R25   R(9,35)                 1.4263         estimate D2E/DX2                !
 ! R26   R(10,49)                1.5062         estimate D2E/DX2                !
 ! R27   R(10,53)                1.425          estimate D2E/DX2                !
 ! R28   R(11,50)                1.5074         estimate D2E/DX2                !
 ! R29   R(11,54)                1.4218         estimate D2E/DX2                !
 ! R30   R(12,14)                1.4043         estimate D2E/DX2                !
 ! R31   R(12,36)                1.4229         estimate D2E/DX2                !
 ! R32   R(13,15)                1.4172         estimate D2E/DX2                !
 ! R33   R(13,43)                1.4126         estimate D2E/DX2                !
 ! R34   R(14,16)                1.426          estimate D2E/DX2                !
 ! R35   R(14,46)                1.4057         estimate D2E/DX2                !
 ! R36   R(15,17)                1.3919         estimate D2E/DX2                !
 ! R37   R(16,18)                1.4044         estimate D2E/DX2                !
 ! R38   R(17,19)                1.3834         estimate D2E/DX2                !
 ! R39   R(18,20)                1.4299         estimate D2E/DX2                !
 ! R40   R(19,21)                1.4964         estimate D2E/DX2                !
 ! R41   R(19,53)                1.3914         estimate D2E/DX2                !
 ! R42   R(20,22)                1.4086         estimate D2E/DX2                !
 ! R43   R(20,54)                1.4161         estimate D2E/DX2                !
 ! R44   R(21,23)                1.5063         estimate D2E/DX2                !
 ! R45   R(21,57)                1.5116         estimate D2E/DX2                !
 ! R46   R(21,97)                1.8173         estimate D2E/DX2                !
 ! R47   R(22,24)                1.421          estimate D2E/DX2                !
 ! R48   R(22,58)                1.428          estimate D2E/DX2                !
 ! R49   R(23,25)                1.3229         estimate D2E/DX2                !
 ! R50   R(24,26)                1.3588         estimate D2E/DX2                !
 ! R51   R(24,62)                1.5027         estimate D2E/DX2                !
 ! R52   R(25,27)                1.5005         estimate D2E/DX2                !
 ! R53   R(25,61)                1.5003         estimate D2E/DX2                !
 ! R54   R(26,28)                1.5043         estimate D2E/DX2                !
 ! R55   R(27,29)                1.5053         estimate D2E/DX2                !
 ! R56   R(27,65)                1.5075         estimate D2E/DX2                !
 ! R57   R(27,93)                1.8008         estimate D2E/DX2                !
 ! R58   R(28,30)                1.503          estimate D2E/DX2                !
 ! R59   R(28,66)                1.516          estimate D2E/DX2                !
 ! R60   R(28,85)                1.7989         estimate D2E/DX2                !
 ! R61   R(29,31)                1.3833         estimate D2E/DX2                !
 ! R62   R(30,32)                1.3356         estimate D2E/DX2                !
 ! R63   R(31,33)                1.4026         estimate D2E/DX2                !
 ! R64   R(31,69)                1.5187         estimate D2E/DX2                !
 ! R65   R(32,34)                1.5056         estimate D2E/DX2                !
 ! R66   R(32,70)                1.4988         estimate D2E/DX2                !
 ! R67   R(33,35)                1.4057         estimate D2E/DX2                !
 ! R68   R(33,73)                1.4295         estimate D2E/DX2                !
 ! R69   R(34,36)                1.5166         estimate D2E/DX2                !
 ! R70   R(34,74)                1.4925         estimate D2E/DX2                !
 ! R71   R(34,100)               1.8179         estimate D2E/DX2                !
 ! R72   R(35,37)                1.4428         estimate D2E/DX2                !
 ! R73   R(36,38)                1.3906         estimate D2E/DX2                !
 ! R74   R(37,39)                1.4272         estimate D2E/DX2                !
 ! R75   R(37,77)                1.4059         estimate D2E/DX2                !
 ! R76   R(38,42)                1.423          estimate D2E/DX2                !
 ! R77   R(38,78)                1.5146         estimate D2E/DX2                !
 ! R78   R(39,43)                1.3712         estimate D2E/DX2                !
 ! R79   R(39,79)                1.5026         estimate D2E/DX2                !
 ! R80   R(40,41)                1.3865         estimate D2E/DX2                !
 ! R81   R(40,44)                1.3844         estimate D2E/DX2                !
 ! R82   R(40,79)                1.5042         estimate D2E/DX2                !
 ! R83   R(41,45)                1.3834         estimate D2E/DX2                !
 ! R84   R(41,80)                1.5115         estimate D2E/DX2                !
 ! R85   R(42,46)                1.3745         estimate D2E/DX2                !
 ! R86   R(42,80)                1.5082         estimate D2E/DX2                !
 ! R87   R(44,47)                1.4018         estimate D2E/DX2                !
 ! R88   R(45,48)                1.4026         estimate D2E/DX2                !
 ! R89   R(47,48)                1.4067         estimate D2E/DX2                !
 ! R90   R(47,49)                1.5228         estimate D2E/DX2                !
 ! R91   R(48,50)                1.5203         estimate D2E/DX2                !
 ! R92   R(49,51)                1.5055         estimate D2E/DX2                !
 ! R93   R(49,90)                1.7979         estimate D2E/DX2                !
 ! R94   R(50,52)                1.5002         estimate D2E/DX2                !
 ! R95   R(50,89)                1.7988         estimate D2E/DX2                !
 ! R96   R(51,52)                1.3598         estimate D2E/DX2                !
 ! R97   R(51,55)                1.4162         estimate D2E/DX2                !
 ! R98   R(52,56)                1.416          estimate D2E/DX2                !
 ! R99   R(53,55)                1.4175         estimate D2E/DX2                !
 ! R100  R(54,56)                1.4223         estimate D2E/DX2                !
 ! R101  R(55,83)                1.4282         estimate D2E/DX2                !
 ! R102  R(56,84)                1.4127         estimate D2E/DX2                !
 ! R103  R(57,59)                1.4047         estimate D2E/DX2                !
 ! R104  R(57,83)                1.4188         estimate D2E/DX2                !
 ! R105  R(58,60)                1.4036         estimate D2E/DX2                !
 ! R106  R(58,84)                1.407          estimate D2E/DX2                !
 ! R107  R(59,60)                1.3854         estimate D2E/DX2                !
 ! R108  R(59,61)                1.5071         estimate D2E/DX2                !
 ! R109  R(60,62)                1.5148         estimate D2E/DX2                !
 ! R110  R(61,63)                1.5075         estimate D2E/DX2                !
 ! R111  R(61,96)                1.8028         estimate D2E/DX2                !
 ! R112  R(62,64)                1.5051         estimate D2E/DX2                !
 ! R113  R(62,94)                1.8008         estimate D2E/DX2                !
 ! R114  R(63,64)                1.3835         estimate D2E/DX2                !
 ! R115  R(63,65)                1.3867         estimate D2E/DX2                !
 ! R116  R(64,66)                1.4016         estimate D2E/DX2                !
 ! R117  R(65,67)                1.3851         estimate D2E/DX2                !
 ! R118  R(66,68)                1.4032         estimate D2E/DX2                !
 ! R119  R(67,68)                1.4019         estimate D2E/DX2                !
 ! R120  R(67,69)                1.505          estimate D2E/DX2                !
 ! R121  R(68,70)                1.5243         estimate D2E/DX2                !
 ! R122  R(69,71)                1.5013         estimate D2E/DX2                !
 ! R123  R(69,92)                1.7986         estimate D2E/DX2                !
 ! R124  R(70,72)                1.4984         estimate D2E/DX2                !
 ! R125  R(70,86)                1.8084         estimate D2E/DX2                !
 ! R126  R(71,72)                1.3691         estimate D2E/DX2                !
 ! R127  R(71,73)                1.409          estimate D2E/DX2                !
 ! R128  R(72,74)                1.4184         estimate D2E/DX2                !
 ! R129  R(73,75)                1.3881         estimate D2E/DX2                !
 ! R130  R(74,76)                1.3661         estimate D2E/DX2                !
 ! R131  R(75,76)                1.4156         estimate D2E/DX2                !
 ! R132  R(75,77)                1.4182         estimate D2E/DX2                !
 ! R133  R(76,78)                1.5017         estimate D2E/DX2                !
 ! R134  R(77,81)                1.441          estimate D2E/DX2                !
 ! R135  R(78,81)                1.5122         estimate D2E/DX2                !
 ! R136  R(78,99)                1.8024         estimate D2E/DX2                !
 ! R137  R(79,82)                1.499          estimate D2E/DX2                !
 ! R138  R(79,98)                1.816          estimate D2E/DX2                !
 ! R139  R(80,82)                1.495          estimate D2E/DX2                !
 ! R140  R(80,87)                1.806          estimate D2E/DX2                !
 ! R141  R(81,82)                1.3371         estimate D2E/DX2                !
 ! R142  R(83,84)                1.429          estimate D2E/DX2                !
 ! A1    A(5,1,17)             112.7603         estimate D2E/DX2                !
 ! A2    A(5,1,23)             111.4769         estimate D2E/DX2                !
 ! A3    A(5,1,95)             108.4826         estimate D2E/DX2                !
 ! A4    A(17,1,23)            100.9056         estimate D2E/DX2                !
 ! A5    A(17,1,95)            111.7779         estimate D2E/DX2                !
 ! A6    A(23,1,95)            111.3503         estimate D2E/DX2                !
 ! A7    A(6,2,43)             101.524          estimate D2E/DX2                !
 ! A8    A(6,2,44)             110.3996         estimate D2E/DX2                !
 ! A9    A(6,2,91)             113.2574         estimate D2E/DX2                !
 ! A10   A(43,2,44)            108.2832         estimate D2E/DX2                !
 ! A11   A(43,2,91)            112.9999         estimate D2E/DX2                !
 ! A12   A(44,2,91)            110.0266         estimate D2E/DX2                !
 ! A13   A(7,3,18)             122.0726         estimate D2E/DX2                !
 ! A14   A(7,3,26)             108.8631         estimate D2E/DX2                !
 ! A15   A(18,3,26)            121.5331         estimate D2E/DX2                !
 ! A16   A(8,4,45)             110.0657         estimate D2E/DX2                !
 ! A17   A(8,4,46)             101.364          estimate D2E/DX2                !
 ! A18   A(8,4,88)             113.4112         estimate D2E/DX2                !
 ! A19   A(45,4,46)            108.7625         estimate D2E/DX2                !
 ! A20   A(45,4,88)            110.2177         estimate D2E/DX2                !
 ! A21   A(46,4,88)            112.6517         estimate D2E/DX2                !
 ! A22   A(1,5,9)              120.3914         estimate D2E/DX2                !
 ! A23   A(1,5,29)             118.0042         estimate D2E/DX2                !
 ! A24   A(9,5,29)             120.1839         estimate D2E/DX2                !
 ! A25   A(2,6,10)             122.4424         estimate D2E/DX2                !
 ! A26   A(2,6,15)             109.7033         estimate D2E/DX2                !
 ! A27   A(10,6,15)            119.4809         estimate D2E/DX2                !
 ! A28   A(3,7,12)             121.3003         estimate D2E/DX2                !
 ! A29   A(3,7,30)             108.5948         estimate D2E/DX2                !
 ! A30   A(12,7,30)            119.6934         estimate D2E/DX2                !
 ! A31   A(4,8,11)             122.0549         estimate D2E/DX2                !
 ! A32   A(4,8,16)             110.4198         estimate D2E/DX2                !
 ! A33   A(11,8,16)            119.6803         estimate D2E/DX2                !
 ! A34   A(5,9,13)             119.7358         estimate D2E/DX2                !
 ! A35   A(5,9,35)             120.5829         estimate D2E/DX2                !
 ! A36   A(13,9,35)            116.3287         estimate D2E/DX2                !
 ! A37   A(6,10,49)            123.2008         estimate D2E/DX2                !
 ! A38   A(6,10,53)            118.9875         estimate D2E/DX2                !
 ! A39   A(49,10,53)           109.9353         estimate D2E/DX2                !
 ! A40   A(8,11,50)            122.7743         estimate D2E/DX2                !
 ! A41   A(8,11,54)            119.2539         estimate D2E/DX2                !
 ! A42   A(50,11,54)           110.7674         estimate D2E/DX2                !
 ! A43   A(7,12,14)            115.7264         estimate D2E/DX2                !
 ! A44   A(7,12,36)            121.1229         estimate D2E/DX2                !
 ! A45   A(14,12,36)           118.5166         estimate D2E/DX2                !
 ! A46   A(9,13,15)            121.4252         estimate D2E/DX2                !
 ! A47   A(9,13,43)            121.2226         estimate D2E/DX2                !
 ! A48   A(15,13,43)           108.825          estimate D2E/DX2                !
 ! A49   A(12,14,16)           122.7081         estimate D2E/DX2                !
 ! A50   A(12,14,46)           121.3151         estimate D2E/DX2                !
 ! A51   A(16,14,46)           109.5308         estimate D2E/DX2                !
 ! A52   A(6,15,13)            109.0096         estimate D2E/DX2                !
 ! A53   A(6,15,17)            121.1031         estimate D2E/DX2                !
 ! A54   A(13,15,17)           119.7652         estimate D2E/DX2                !
 ! A55   A(8,16,14)            107.9858         estimate D2E/DX2                !
 ! A56   A(8,16,18)            122.6363         estimate D2E/DX2                !
 ! A57   A(14,16,18)           120.4933         estimate D2E/DX2                !
 ! A58   A(1,17,15)            121.8713         estimate D2E/DX2                !
 ! A59   A(1,17,19)            112.0564         estimate D2E/DX2                !
 ! A60   A(15,17,19)           119.3064         estimate D2E/DX2                !
 ! A61   A(3,18,16)            116.2569         estimate D2E/DX2                !
 ! A62   A(3,18,20)            118.6892         estimate D2E/DX2                !
 ! A63   A(16,18,20)           117.7732         estimate D2E/DX2                !
 ! A64   A(17,19,21)           111.8929         estimate D2E/DX2                !
 ! A65   A(17,19,53)           119.5832         estimate D2E/DX2                !
 ! A66   A(21,19,53)           121.8568         estimate D2E/DX2                !
 ! A67   A(18,20,22)           117.9336         estimate D2E/DX2                !
 ! A68   A(18,20,54)           118.449          estimate D2E/DX2                !
 ! A69   A(22,20,54)           116.547          estimate D2E/DX2                !
 ! A70   A(19,21,23)           100.9628         estimate D2E/DX2                !
 ! A71   A(19,21,57)           112.4264         estimate D2E/DX2                !
 ! A72   A(19,21,97)           111.9494         estimate D2E/DX2                !
 ! A73   A(23,21,57)           111.7046         estimate D2E/DX2                !
 ! A74   A(23,21,97)           111.1327         estimate D2E/DX2                !
 ! A75   A(57,21,97)           108.5706         estimate D2E/DX2                !
 ! A76   A(20,22,24)           122.242          estimate D2E/DX2                !
 ! A77   A(20,22,58)           120.726          estimate D2E/DX2                !
 ! A78   A(24,22,58)           107.9032         estimate D2E/DX2                !
 ! A79   A(1,23,21)            112.2726         estimate D2E/DX2                !
 ! A80   A(1,23,25)            122.564          estimate D2E/DX2                !
 ! A81   A(21,23,25)           122.643          estimate D2E/DX2                !
 ! A82   A(22,24,26)           120.1704         estimate D2E/DX2                !
 ! A83   A(22,24,62)           110.277          estimate D2E/DX2                !
 ! A84   A(26,24,62)           122.1183         estimate D2E/DX2                !
 ! A85   A(23,25,27)           122.0814         estimate D2E/DX2                !
 ! A86   A(23,25,61)           122.1643         estimate D2E/DX2                !
 ! A87   A(27,25,61)           111.8839         estimate D2E/DX2                !
 ! A88   A(3,26,24)            119.313          estimate D2E/DX2                !
 ! A89   A(3,26,28)            110.5517         estimate D2E/DX2                !
 ! A90   A(24,26,28)           122.763          estimate D2E/DX2                !
 ! A91   A(25,27,29)           112.0869         estimate D2E/DX2                !
 ! A92   A(25,27,65)           100.3892         estimate D2E/DX2                !
 ! A93   A(25,27,93)           112.3355         estimate D2E/DX2                !
 ! A94   A(29,27,65)           108.0322         estimate D2E/DX2                !
 ! A95   A(29,27,93)           111.0691         estimate D2E/DX2                !
 ! A96   A(65,27,93)           112.4358         estimate D2E/DX2                !
 ! A97   A(26,28,30)           101.3658         estimate D2E/DX2                !
 ! A98   A(26,28,66)           110.3021         estimate D2E/DX2                !
 ! A99   A(26,28,85)           113.2462         estimate D2E/DX2                !
 ! A100  A(30,28,66)           109.3538         estimate D2E/DX2                !
 ! A101  A(30,28,85)           113.1098         estimate D2E/DX2                !
 ! A102  A(66,28,85)           109.228          estimate D2E/DX2                !
 ! A103  A(5,29,27)            122.5633         estimate D2E/DX2                !
 ! A104  A(5,29,31)            119.2743         estimate D2E/DX2                !
 ! A105  A(27,29,31)           116.1284         estimate D2E/DX2                !
 ! A106  A(7,30,28)            110.4187         estimate D2E/DX2                !
 ! A107  A(7,30,32)            120.81           estimate D2E/DX2                !
 ! A108  A(28,30,32)           123.2534         estimate D2E/DX2                !
 ! A109  A(29,31,33)           120.4795         estimate D2E/DX2                !
 ! A110  A(29,31,69)           124.9799         estimate D2E/DX2                !
 ! A111  A(33,31,69)           109.8866         estimate D2E/DX2                !
 ! A112  A(30,32,34)           121.7685         estimate D2E/DX2                !
 ! A113  A(30,32,70)           120.8137         estimate D2E/DX2                !
 ! A114  A(34,32,70)           113.5677         estimate D2E/DX2                !
 ! A115  A(31,33,35)           121.9461         estimate D2E/DX2                !
 ! A116  A(31,33,73)           108.6222         estimate D2E/DX2                !
 ! A117  A(35,33,73)           122.0226         estimate D2E/DX2                !
 ! A118  A(32,34,36)           112.5157         estimate D2E/DX2                !
 ! A119  A(32,34,74)           101.0377         estimate D2E/DX2                !
 ! A120  A(32,34,100)          111.1535         estimate D2E/DX2                !
 ! A121  A(36,34,74)           111.1527         estimate D2E/DX2                !
 ! A122  A(36,34,100)          108.3871         estimate D2E/DX2                !
 ! A123  A(74,34,100)          112.5379         estimate D2E/DX2                !
 ! A124  A(9,35,33)            116.5429         estimate D2E/DX2                !
 ! A125  A(9,35,37)            121.1428         estimate D2E/DX2                !
 ! A126  A(33,35,37)           118.4827         estimate D2E/DX2                !
 ! A127  A(12,36,34)           117.0861         estimate D2E/DX2                !
 ! A128  A(12,36,38)           119.4449         estimate D2E/DX2                !
 ! A129  A(34,36,38)           122.2312         estimate D2E/DX2                !
 ! A130  A(35,37,39)           119.256          estimate D2E/DX2                !
 ! A131  A(35,37,77)           118.7477         estimate D2E/DX2                !
 ! A132  A(39,37,77)           117.6906         estimate D2E/DX2                !
 ! A133  A(36,38,42)           121.1281         estimate D2E/DX2                !
 ! A134  A(36,38,78)           120.4129         estimate D2E/DX2                !
 ! A135  A(42,38,78)           117.6783         estimate D2E/DX2                !
 ! A136  A(37,39,43)           119.0582         estimate D2E/DX2                !
 ! A137  A(37,39,79)           121.3173         estimate D2E/DX2                !
 ! A138  A(43,39,79)           117.214          estimate D2E/DX2                !
 ! A139  A(41,40,44)           121.3764         estimate D2E/DX2                !
 ! A140  A(41,40,79)           111.1339         estimate D2E/DX2                !
 ! A141  A(44,40,79)           124.9909         estimate D2E/DX2                !
 ! A142  A(40,41,45)           120.4783         estimate D2E/DX2                !
 ! A143  A(40,41,80)           111.5769         estimate D2E/DX2                !
 ! A144  A(45,41,80)           125.6264         estimate D2E/DX2                !
 ! A145  A(38,42,46)           119.2997         estimate D2E/DX2                !
 ! A146  A(38,42,80)           123.1525         estimate D2E/DX2                !
 ! A147  A(46,42,80)           115.7197         estimate D2E/DX2                !
 ! A148  A(2,43,13)            109.9079         estimate D2E/DX2                !
 ! A149  A(2,43,39)            124.1355         estimate D2E/DX2                !
 ! A150  A(13,43,39)           121.8475         estimate D2E/DX2                !
 ! A151  A(2,44,40)            115.9547         estimate D2E/DX2                !
 ! A152  A(2,44,47)            123.9756         estimate D2E/DX2                !
 ! A153  A(40,44,47)           118.952          estimate D2E/DX2                !
 ! A154  A(4,45,41)            115.8898         estimate D2E/DX2                !
 ! A155  A(4,45,48)            123.8153         estimate D2E/DX2                !
 ! A156  A(41,45,48)           119.1381         estimate D2E/DX2                !
 ! A157  A(4,46,14)            109.6246         estimate D2E/DX2                !
 ! A158  A(4,46,42)            125.951          estimate D2E/DX2                !
 ! A159  A(14,46,42)           120.1326         estimate D2E/DX2                !
 ! A160  A(44,47,48)           119.7419         estimate D2E/DX2                !
 ! A161  A(44,47,49)           119.0886         estimate D2E/DX2                !
 ! A162  A(48,47,49)           120.635          estimate D2E/DX2                !
 ! A163  A(45,48,47)           120.2648         estimate D2E/DX2                !
 ! A164  A(45,48,50)           118.6863         estimate D2E/DX2                !
 ! A165  A(47,48,50)           120.444          estimate D2E/DX2                !
 ! A166  A(10,49,47)           110.4521         estimate D2E/DX2                !
 ! A167  A(10,49,51)           101.0374         estimate D2E/DX2                !
 ! A168  A(10,49,90)           113.4935         estimate D2E/DX2                !
 ! A169  A(47,49,51)           108.8804         estimate D2E/DX2                !
 ! A170  A(47,49,90)           108.7454         estimate D2E/DX2                !
 ! A171  A(51,49,90)           114.0002         estimate D2E/DX2                !
 ! A172  A(11,50,48)           110.059          estimate D2E/DX2                !
 ! A173  A(11,50,52)           101.0439         estimate D2E/DX2                !
 ! A174  A(11,50,89)           113.2389         estimate D2E/DX2                !
 ! A175  A(48,50,52)           109.0508         estimate D2E/DX2                !
 ! A176  A(48,50,89)           109.1939         estimate D2E/DX2                !
 ! A177  A(52,50,89)           113.9768         estimate D2E/DX2                !
 ! A178  A(49,51,52)           121.3548         estimate D2E/DX2                !
 ! A179  A(49,51,55)           111.3966         estimate D2E/DX2                !
 ! A180  A(52,51,55)           120.7029         estimate D2E/DX2                !
 ! A181  A(50,52,51)           122.6747         estimate D2E/DX2                !
 ! A182  A(50,52,56)           111.0554         estimate D2E/DX2                !
 ! A183  A(51,52,56)           119.1551         estimate D2E/DX2                !
 ! A184  A(10,53,19)           121.2079         estimate D2E/DX2                !
 ! A185  A(10,53,55)           109.2144         estimate D2E/DX2                !
 ! A186  A(19,53,55)           119.9162         estimate D2E/DX2                !
 ! A187  A(11,54,20)           122.0668         estimate D2E/DX2                !
 ! A188  A(11,54,56)           108.2249         estimate D2E/DX2                !
 ! A189  A(20,54,56)           121.6166         estimate D2E/DX2                !
 ! A190  A(51,55,53)           107.8385         estimate D2E/DX2                !
 ! A191  A(51,55,83)           121.8727         estimate D2E/DX2                !
 ! A192  A(53,55,83)           120.7791         estimate D2E/DX2                !
 ! A193  A(52,56,54)           108.6816         estimate D2E/DX2                !
 ! A194  A(52,56,84)           121.3047         estimate D2E/DX2                !
 ! A195  A(54,56,84)           121.4709         estimate D2E/DX2                !
 ! A196  A(21,57,59)           118.4911         estimate D2E/DX2                !
 ! A197  A(21,57,83)           119.7405         estimate D2E/DX2                !
 ! A198  A(59,57,83)           120.4385         estimate D2E/DX2                !
 ! A199  A(22,58,60)           109.6516         estimate D2E/DX2                !
 ! A200  A(22,58,84)           122.3858         estimate D2E/DX2                !
 ! A201  A(60,58,84)           121.18           estimate D2E/DX2                !
 ! A202  A(57,59,60)           119.9723         estimate D2E/DX2                !
 ! A203  A(57,59,61)           122.2965         estimate D2E/DX2                !
 ! A204  A(60,59,61)           115.8664         estimate D2E/DX2                !
 ! A205  A(58,60,59)           120.3352         estimate D2E/DX2                !
 ! A206  A(58,60,62)           109.5593         estimate D2E/DX2                !
 ! A207  A(59,60,62)           125.5522         estimate D2E/DX2                !
 ! A208  A(25,61,59)           112.2689         estimate D2E/DX2                !
 ! A209  A(25,61,63)           100.0778         estimate D2E/DX2                !
 ! A210  A(25,61,96)           112.639          estimate D2E/DX2                !
 ! A211  A(59,61,63)           109.0313         estimate D2E/DX2                !
 ! A212  A(59,61,96)           110.4838         estimate D2E/DX2                !
 ! A213  A(63,61,96)           111.9167         estimate D2E/DX2                !
 ! A214  A(24,62,60)           101.5291         estimate D2E/DX2                !
 ! A215  A(24,62,64)           110.0162         estimate D2E/DX2                !
 ! A216  A(24,62,94)           113.3098         estimate D2E/DX2                !
 ! A217  A(60,62,64)           109.1556         estimate D2E/DX2                !
 ! A218  A(60,62,94)           112.4126         estimate D2E/DX2                !
 ! A219  A(64,62,94)           110.0922         estimate D2E/DX2                !
 ! A220  A(61,63,64)           125.6048         estimate D2E/DX2                !
 ! A221  A(61,63,65)           111.5671         estimate D2E/DX2                !
 ! A222  A(64,63,65)           120.5733         estimate D2E/DX2                !
 ! A223  A(62,64,63)           116.195          estimate D2E/DX2                !
 ! A224  A(62,64,66)           123.6354         estimate D2E/DX2                !
 ! A225  A(63,64,66)           119.0465         estimate D2E/DX2                !
 ! A226  A(27,65,63)           111.1971         estimate D2E/DX2                !
 ! A227  A(27,65,67)           125.3901         estimate D2E/DX2                !
 ! A228  A(63,65,67)           121.061          estimate D2E/DX2                !
 ! A229  A(28,66,64)           118.9612         estimate D2E/DX2                !
 ! A230  A(28,66,68)           119.8311         estimate D2E/DX2                !
 ! A231  A(64,66,68)           120.5353         estimate D2E/DX2                !
 ! A232  A(65,67,68)           119.274          estimate D2E/DX2                !
 ! A233  A(65,67,69)           115.9536         estimate D2E/DX2                !
 ! A234  A(68,67,69)           123.597          estimate D2E/DX2                !
 ! A235  A(66,68,67)           119.4709         estimate D2E/DX2                !
 ! A236  A(66,68,70)           120.404          estimate D2E/DX2                !
 ! A237  A(67,68,70)           119.5221         estimate D2E/DX2                !
 ! A238  A(31,69,67)           108.0761         estimate D2E/DX2                !
 ! A239  A(31,69,71)           101.7488         estimate D2E/DX2                !
 ! A240  A(31,69,92)           113.102          estimate D2E/DX2                !
 ! A241  A(67,69,71)           110.0975         estimate D2E/DX2                !
 ! A242  A(67,69,92)           110.2667         estimate D2E/DX2                !
 ! A243  A(71,69,92)           113.1719         estimate D2E/DX2                !
 ! A244  A(32,70,68)           110.4644         estimate D2E/DX2                !
 ! A245  A(32,70,72)           100.8424         estimate D2E/DX2                !
 ! A246  A(32,70,86)           113.446          estimate D2E/DX2                !
 ! A247  A(68,70,72)           110.5998         estimate D2E/DX2                !
 ! A248  A(68,70,86)           108.2172         estimate D2E/DX2                !
 ! A249  A(72,70,86)           113.1619         estimate D2E/DX2                !
 ! A250  A(69,71,72)           123.2991         estimate D2E/DX2                !
 ! A251  A(69,71,73)           109.4955         estimate D2E/DX2                !
 ! A252  A(72,71,73)           118.7877         estimate D2E/DX2                !
 ! A253  A(70,72,71)           122.0823         estimate D2E/DX2                !
 ! A254  A(70,72,74)           111.562          estimate D2E/DX2                !
 ! A255  A(71,72,74)           120.2059         estimate D2E/DX2                !
 ! A256  A(33,73,71)           109.1685         estimate D2E/DX2                !
 ! A257  A(33,73,75)           118.9128         estimate D2E/DX2                !
 ! A258  A(71,73,75)           120.9461         estimate D2E/DX2                !
 ! A259  A(34,74,72)           111.3959         estimate D2E/DX2                !
 ! A260  A(34,74,76)           121.2295         estimate D2E/DX2                !
 ! A261  A(72,74,76)           121.3347         estimate D2E/DX2                !
 ! A262  A(73,75,76)           119.8644         estimate D2E/DX2                !
 ! A263  A(73,75,77)           119.9926         estimate D2E/DX2                !
 ! A264  A(76,75,77)           110.5188         estimate D2E/DX2                !
 ! A265  A(74,76,75)           118.6511         estimate D2E/DX2                !
 ! A266  A(74,76,78)           123.3803         estimate D2E/DX2                !
 ! A267  A(75,76,78)           109.833          estimate D2E/DX2                !
 ! A268  A(37,77,75)           121.7123         estimate D2E/DX2                !
 ! A269  A(37,77,81)           121.3001         estimate D2E/DX2                !
 ! A270  A(75,77,81)           106.9432         estimate D2E/DX2                !
 ! A271  A(38,78,76)           110.8691         estimate D2E/DX2                !
 ! A272  A(38,78,81)           109.9658         estimate D2E/DX2                !
 ! A273  A(38,78,99)           108.8292         estimate D2E/DX2                !
 ! A274  A(76,78,81)           101.6621         estimate D2E/DX2                !
 ! A275  A(76,78,99)           113.184          estimate D2E/DX2                !
 ! A276  A(81,78,99)           112.1873         estimate D2E/DX2                !
 ! A277  A(39,79,40)           108.4366         estimate D2E/DX2                !
 ! A278  A(39,79,82)           113.856          estimate D2E/DX2                !
 ! A279  A(39,79,98)           110.3658         estimate D2E/DX2                !
 ! A280  A(40,79,82)           100.7023         estimate D2E/DX2                !
 ! A281  A(40,79,98)           111.7035         estimate D2E/DX2                !
 ! A282  A(82,79,98)           111.4145         estimate D2E/DX2                !
 ! A283  A(41,80,42)           108.607          estimate D2E/DX2                !
 ! A284  A(41,80,82)           100.0819         estimate D2E/DX2                !
 ! A285  A(41,80,87)           111.6183         estimate D2E/DX2                !
 ! A286  A(42,80,82)           111.8069         estimate D2E/DX2                !
 ! A287  A(42,80,87)           110.587          estimate D2E/DX2                !
 ! A288  A(82,80,87)           113.6399         estimate D2E/DX2                !
 ! A289  A(77,81,78)           110.6302         estimate D2E/DX2                !
 ! A290  A(77,81,82)           121.3133         estimate D2E/DX2                !
 ! A291  A(78,81,82)           123.3277         estimate D2E/DX2                !
 ! A292  A(79,82,80)           112.1956         estimate D2E/DX2                !
 ! A293  A(79,82,81)           120.9435         estimate D2E/DX2                !
 ! A294  A(80,82,81)           121.6564         estimate D2E/DX2                !
 ! A295  A(55,83,57)           120.1389         estimate D2E/DX2                !
 ! A296  A(55,83,84)           116.1109         estimate D2E/DX2                !
 ! A297  A(57,83,84)           119.3976         estimate D2E/DX2                !
 ! A298  A(56,84,58)           116.0469         estimate D2E/DX2                !
 ! A299  A(56,84,83)           120.2698         estimate D2E/DX2                !
 ! A300  A(58,84,83)           118.5187         estimate D2E/DX2                !
 ! D1    D(17,1,5,9)            21.0432         estimate D2E/DX2                !
 ! D2    D(17,1,5,29)         -145.3828         estimate D2E/DX2                !
 ! D3    D(23,1,5,9)           133.7207         estimate D2E/DX2                !
 ! D4    D(23,1,5,29)          -32.7053         estimate D2E/DX2                !
 ! D5    D(95,1,5,9)          -103.3214         estimate D2E/DX2                !
 ! D6    D(95,1,5,29)           90.2527         estimate D2E/DX2                !
 ! D7    D(5,1,17,15)          -23.1284         estimate D2E/DX2                !
 ! D8    D(5,1,17,19)          127.7756         estimate D2E/DX2                !
 ! D9    D(23,1,17,15)        -142.1526         estimate D2E/DX2                !
 ! D10   D(23,1,17,19)           8.7513         estimate D2E/DX2                !
 ! D11   D(95,1,17,15)          99.4074         estimate D2E/DX2                !
 ! D12   D(95,1,17,19)        -109.6886         estimate D2E/DX2                !
 ! D13   D(5,1,23,21)         -133.7714         estimate D2E/DX2                !
 ! D14   D(5,1,23,25)           28.6288         estimate D2E/DX2                !
 ! D15   D(17,1,23,21)         -13.8246         estimate D2E/DX2                !
 ! D16   D(17,1,23,25)         148.5755         estimate D2E/DX2                !
 ! D17   D(95,1,23,21)         104.9253         estimate D2E/DX2                !
 ! D18   D(95,1,23,25)         -92.6746         estimate D2E/DX2                !
 ! D19   D(43,2,6,10)         -137.7073         estimate D2E/DX2                !
 ! D20   D(43,2,6,15)           10.1848         estimate D2E/DX2                !
 ! D21   D(44,2,6,10)          -23.0357         estimate D2E/DX2                !
 ! D22   D(44,2,6,15)          124.8563         estimate D2E/DX2                !
 ! D23   D(91,2,6,10)          100.8486         estimate D2E/DX2                !
 ! D24   D(91,2,6,15)         -111.2594         estimate D2E/DX2                !
 ! D25   D(6,2,43,13)           -7.9696         estimate D2E/DX2                !
 ! D26   D(6,2,43,39)          149.4783         estimate D2E/DX2                !
 ! D27   D(44,2,43,13)        -124.2021         estimate D2E/DX2                !
 ! D28   D(44,2,43,39)          33.2458         estimate D2E/DX2                !
 ! D29   D(91,2,43,13)         113.6537         estimate D2E/DX2                !
 ! D30   D(91,2,43,39)         -88.8984         estimate D2E/DX2                !
 ! D31   D(6,2,44,40)         -147.7908         estimate D2E/DX2                !
 ! D32   D(6,2,44,47)           19.9596         estimate D2E/DX2                !
 ! D33   D(43,2,44,40)         -37.4656         estimate D2E/DX2                !
 ! D34   D(43,2,44,47)         130.2848         estimate D2E/DX2                !
 ! D35   D(91,2,44,40)          86.4806         estimate D2E/DX2                !
 ! D36   D(91,2,44,47)        -105.769          estimate D2E/DX2                !
 ! D37   D(18,3,7,12)            6.4086         estimate D2E/DX2                !
 ! D38   D(18,3,7,30)          151.1174         estimate D2E/DX2                !
 ! D39   D(26,3,7,12)         -143.624          estimate D2E/DX2                !
 ! D40   D(26,3,7,30)            1.0847         estimate D2E/DX2                !
 ! D41   D(7,3,18,16)            4.9375         estimate D2E/DX2                !
 ! D42   D(7,3,18,20)         -144.6321         estimate D2E/DX2                !
 ! D43   D(26,3,18,16)         151.2565         estimate D2E/DX2                !
 ! D44   D(26,3,18,20)           1.6869         estimate D2E/DX2                !
 ! D45   D(7,3,26,24)          147.1315         estimate D2E/DX2                !
 ! D46   D(7,3,26,28)           -3.7153         estimate D2E/DX2                !
 ! D47   D(18,3,26,24)          -3.0933         estimate D2E/DX2                !
 ! D48   D(18,3,26,28)        -153.9401         estimate D2E/DX2                !
 ! D49   D(45,4,8,11)           24.5737         estimate D2E/DX2                !
 ! D50   D(45,4,8,16)         -124.356          estimate D2E/DX2                !
 ! D51   D(46,4,8,11)          139.5783         estimate D2E/DX2                !
 ! D52   D(46,4,8,16)           -9.3513         estimate D2E/DX2                !
 ! D53   D(88,4,8,11)          -99.4182         estimate D2E/DX2                !
 ! D54   D(88,4,8,16)          111.6521         estimate D2E/DX2                !
 ! D55   D(8,4,45,41)          144.67           estimate D2E/DX2                !
 ! D56   D(8,4,45,48)          -22.8947         estimate D2E/DX2                !
 ! D57   D(46,4,45,41)          34.4499         estimate D2E/DX2                !
 ! D58   D(46,4,45,48)        -133.1149         estimate D2E/DX2                !
 ! D59   D(88,4,45,41)         -89.5059         estimate D2E/DX2                !
 ! D60   D(88,4,45,48)         102.9294         estimate D2E/DX2                !
 ! D61   D(8,4,46,14)           10.2509         estimate D2E/DX2                !
 ! D62   D(8,4,46,42)         -146.2351         estimate D2E/DX2                !
 ! D63   D(45,4,46,14)         126.219          estimate D2E/DX2                !
 ! D64   D(45,4,46,42)         -30.267          estimate D2E/DX2                !
 ! D65   D(88,4,46,14)        -111.2842         estimate D2E/DX2                !
 ! D66   D(88,4,46,42)          92.2298         estimate D2E/DX2                !
 ! D67   D(1,5,9,13)            -9.1842         estimate D2E/DX2                !
 ! D68   D(1,5,9,35)          -167.7596         estimate D2E/DX2                !
 ! D69   D(29,5,9,13)          156.9455         estimate D2E/DX2                !
 ! D70   D(29,5,9,35)           -1.6298         estimate D2E/DX2                !
 ! D71   D(1,5,29,27)           10.9382         estimate D2E/DX2                !
 ! D72   D(1,5,29,31)          174.0814         estimate D2E/DX2                !
 ! D73   D(9,5,29,27)         -155.5169         estimate D2E/DX2                !
 ! D74   D(9,5,29,31)            7.6263         estimate D2E/DX2                !
 ! D75   D(2,6,10,49)           -0.4842         estimate D2E/DX2                !
 ! D76   D(2,6,10,53)          145.4493         estimate D2E/DX2                !
 ! D77   D(15,6,10,49)        -145.3969         estimate D2E/DX2                !
 ! D78   D(15,6,10,53)           0.5367         estimate D2E/DX2                !
 ! D79   D(2,6,15,13)           -9.094          estimate D2E/DX2                !
 ! D80   D(2,6,15,17)         -154.2884         estimate D2E/DX2                !
 ! D81   D(10,6,15,13)         139.8897         estimate D2E/DX2                !
 ! D82   D(10,6,15,17)          -5.3047         estimate D2E/DX2                !
 ! D83   D(3,7,12,14)          -11.4673         estimate D2E/DX2                !
 ! D84   D(3,7,12,36)          144.0341         estimate D2E/DX2                !
 ! D85   D(30,7,12,14)        -152.3917         estimate D2E/DX2                !
 ! D86   D(30,7,12,36)           3.1097         estimate D2E/DX2                !
 ! D87   D(3,7,30,28)            1.9367         estimate D2E/DX2                !
 ! D88   D(3,7,30,32)         -152.6525         estimate D2E/DX2                !
 ! D89   D(12,7,30,28)         147.3072         estimate D2E/DX2                !
 ! D90   D(12,7,30,32)          -7.282          estimate D2E/DX2                !
 ! D91   D(4,8,11,50)            2.0144         estimate D2E/DX2                !
 ! D92   D(4,8,11,54)         -145.5471         estimate D2E/DX2                !
 ! D93   D(16,8,11,50)         148.1867         estimate D2E/DX2                !
 ! D94   D(16,8,11,54)           0.6252         estimate D2E/DX2                !
 ! D95   D(4,8,16,14)            5.3316         estimate D2E/DX2                !
 ! D96   D(4,8,16,18)          152.6246         estimate D2E/DX2                !
 ! D97   D(11,8,16,14)        -144.4393         estimate D2E/DX2                !
 ! D98   D(11,8,16,18)           2.8538         estimate D2E/DX2                !
 ! D99   D(5,9,13,15)           -2.8928         estimate D2E/DX2                !
 ! D100  D(5,9,13,43)         -147.2394         estimate D2E/DX2                !
 ! D101  D(35,9,13,15)         156.5671         estimate D2E/DX2                !
 ! D102  D(35,9,13,43)          12.2205         estimate D2E/DX2                !
 ! D103  D(5,9,35,33)           -7.1453         estimate D2E/DX2                !
 ! D104  D(5,9,35,37)          150.475          estimate D2E/DX2                !
 ! D105  D(13,9,35,33)        -166.4199         estimate D2E/DX2                !
 ! D106  D(13,9,35,37)          -8.7996         estimate D2E/DX2                !
 ! D107  D(6,10,49,47)          26.8786         estimate D2E/DX2                !
 ! D108  D(6,10,49,51)         142.0049         estimate D2E/DX2                !
 ! D109  D(6,10,49,90)         -95.5392         estimate D2E/DX2                !
 ! D110  D(53,10,49,47)       -121.7078         estimate D2E/DX2                !
 ! D111  D(53,10,49,51)         -6.5815         estimate D2E/DX2                !
 ! D112  D(53,10,49,90)        115.8744         estimate D2E/DX2                !
 ! D113  D(6,10,53,19)           3.9606         estimate D2E/DX2                !
 ! D114  D(6,10,53,55)        -141.9995         estimate D2E/DX2                !
 ! D115  D(49,10,53,19)        154.054          estimate D2E/DX2                !
 ! D116  D(49,10,53,55)          8.0938         estimate D2E/DX2                !
 ! D117  D(8,11,50,48)         -30.1891         estimate D2E/DX2                !
 ! D118  D(8,11,50,52)        -145.3592         estimate D2E/DX2                !
 ! D119  D(8,11,50,89)          92.3374         estimate D2E/DX2                !
 ! D120  D(54,11,50,48)        119.7776         estimate D2E/DX2                !
 ! D121  D(54,11,50,52)          4.6075         estimate D2E/DX2                !
 ! D122  D(54,11,50,89)       -117.6958         estimate D2E/DX2                !
 ! D123  D(8,11,54,20)          -2.7086         estimate D2E/DX2                !
 ! D124  D(8,11,54,56)         146.336          estimate D2E/DX2                !
 ! D125  D(50,11,54,20)       -153.8699         estimate D2E/DX2                !
 ! D126  D(50,11,54,56)         -4.8253         estimate D2E/DX2                !
 ! D127  D(7,12,14,16)           5.7204         estimate D2E/DX2                !
 ! D128  D(7,12,14,46)         154.5636         estimate D2E/DX2                !
 ! D129  D(36,12,14,16)       -150.4513         estimate D2E/DX2                !
 ! D130  D(36,12,14,46)         -1.6082         estimate D2E/DX2                !
 ! D131  D(7,12,36,34)          16.2382         estimate D2E/DX2                !
 ! D132  D(7,12,36,38)        -151.3404         estimate D2E/DX2                !
 ! D133  D(14,12,36,34)        171.0783         estimate D2E/DX2                !
 ! D134  D(14,12,36,38)          3.4996         estimate D2E/DX2                !
 ! D135  D(9,13,15,6)         -144.5152         estimate D2E/DX2                !
 ! D136  D(9,13,15,17)           1.2201         estimate D2E/DX2                !
 ! D137  D(43,13,15,6)           3.707          estimate D2E/DX2                !
 ! D138  D(43,13,15,17)        149.4423         estimate D2E/DX2                !
 ! D139  D(9,13,43,2)          151.3248         estimate D2E/DX2                !
 ! D140  D(9,13,43,39)          -6.7308         estimate D2E/DX2                !
 ! D141  D(15,13,43,2)           3.0263         estimate D2E/DX2                !
 ! D142  D(15,13,43,39)       -155.0293         estimate D2E/DX2                !
 ! D143  D(12,14,16,8)         153.5965         estimate D2E/DX2                !
 ! D144  D(12,14,16,18)          5.4713         estimate D2E/DX2                !
 ! D145  D(46,14,16,8)           1.5657         estimate D2E/DX2                !
 ! D146  D(46,14,16,18)       -146.5595         estimate D2E/DX2                !
 ! D147  D(12,14,46,4)        -160.2571         estimate D2E/DX2                !
 ! D148  D(12,14,46,42)         -2.1851         estimate D2E/DX2                !
 ! D149  D(16,14,46,4)          -7.7682         estimate D2E/DX2                !
 ! D150  D(16,14,46,42)        150.3038         estimate D2E/DX2                !
 ! D151  D(6,15,17,1)          154.4201         estimate D2E/DX2                !
 ! D152  D(6,15,17,19)           5.5402         estimate D2E/DX2                !
 ! D153  D(13,15,17,1)          12.8595         estimate D2E/DX2                !
 ! D154  D(13,15,17,19)       -136.0204         estimate D2E/DX2                !
 ! D155  D(8,16,18,3)         -153.9902         estimate D2E/DX2                !
 ! D156  D(8,16,18,20)          -4.1333         estimate D2E/DX2                !
 ! D157  D(14,16,18,3)         -10.6048         estimate D2E/DX2                !
 ! D158  D(14,16,18,20)        139.252          estimate D2E/DX2                !
 ! D159  D(1,17,19,21)          -0.8354         estimate D2E/DX2                !
 ! D160  D(1,17,19,53)        -152.7461         estimate D2E/DX2                !
 ! D161  D(15,17,19,21)        150.8981         estimate D2E/DX2                !
 ! D162  D(15,17,19,53)         -1.0126         estimate D2E/DX2                !
 ! D163  D(3,18,20,22)           1.4825         estimate D2E/DX2                !
 ! D164  D(3,18,20,54)         151.0952         estimate D2E/DX2                !
 ! D165  D(16,18,20,22)       -147.6288         estimate D2E/DX2                !
 ! D166  D(16,18,20,54)          1.9839         estimate D2E/DX2                !
 ! D167  D(17,19,21,23)         -7.5038         estimate D2E/DX2                !
 ! D168  D(17,19,21,57)       -126.6775         estimate D2E/DX2                !
 ! D169  D(17,19,21,97)        110.7901         estimate D2E/DX2                !
 ! D170  D(53,19,21,23)        143.6747         estimate D2E/DX2                !
 ! D171  D(53,19,21,57)         24.501          estimate D2E/DX2                !
 ! D172  D(53,19,21,97)        -98.0314         estimate D2E/DX2                !
 ! D173  D(17,19,53,10)         -3.7389         estimate D2E/DX2                !
 ! D174  D(17,19,53,55)        138.6828         estimate D2E/DX2                !
 ! D175  D(21,19,53,10)       -152.7836         estimate D2E/DX2                !
 ! D176  D(21,19,53,55)        -10.3619         estimate D2E/DX2                !
 ! D177  D(18,20,22,24)         -3.3833         estimate D2E/DX2                !
 ! D178  D(18,20,22,58)        139.5288         estimate D2E/DX2                !
 ! D179  D(54,20,22,24)       -153.5699         estimate D2E/DX2                !
 ! D180  D(54,20,22,58)        -10.6578         estimate D2E/DX2                !
 ! D181  D(18,20,54,11)          1.3511         estimate D2E/DX2                !
 ! D182  D(18,20,54,56)       -143.6387         estimate D2E/DX2                !
 ! D183  D(22,20,54,11)        151.3789         estimate D2E/DX2                !
 ! D184  D(22,20,54,56)          6.3891         estimate D2E/DX2                !
 ! D185  D(19,21,23,1)          13.3898         estimate D2E/DX2                !
 ! D186  D(19,21,23,25)       -148.9943         estimate D2E/DX2                !
 ! D187  D(57,21,23,1)         133.0821         estimate D2E/DX2                !
 ! D188  D(57,21,23,25)        -29.302          estimate D2E/DX2                !
 ! D189  D(97,21,23,1)        -105.4956         estimate D2E/DX2                !
 ! D190  D(97,21,23,25)         92.1203         estimate D2E/DX2                !
 ! D191  D(19,21,57,59)        142.4066         estimate D2E/DX2                !
 ! D192  D(19,21,57,83)        -24.4885         estimate D2E/DX2                !
 ! D193  D(23,21,57,59)         29.7191         estimate D2E/DX2                !
 ! D194  D(23,21,57,83)       -137.176          estimate D2E/DX2                !
 ! D195  D(97,21,57,59)        -93.1747         estimate D2E/DX2                !
 ! D196  D(97,21,57,83)         99.9302         estimate D2E/DX2                !
 ! D197  D(20,22,24,26)          2.0433         estimate D2E/DX2                !
 ! D198  D(20,22,24,62)        152.5459         estimate D2E/DX2                !
 ! D199  D(58,22,24,26)       -144.9482         estimate D2E/DX2                !
 ! D200  D(58,22,24,62)          5.5544         estimate D2E/DX2                !
 ! D201  D(20,22,58,60)       -146.2714         estimate D2E/DX2                !
 ! D202  D(20,22,58,84)          5.0715         estimate D2E/DX2                !
 ! D203  D(24,22,58,60)          1.3164         estimate D2E/DX2                !
 ! D204  D(24,22,58,84)        152.6593         estimate D2E/DX2                !
 ! D205  D(1,23,25,27)          -0.8109         estimate D2E/DX2                !
 ! D206  D(1,23,25,61)        -156.8551         estimate D2E/DX2                !
 ! D207  D(21,23,25,27)        159.7809         estimate D2E/DX2                !
 ! D208  D(21,23,25,61)          3.7368         estimate D2E/DX2                !
 ! D209  D(22,24,26,3)           1.2264         estimate D2E/DX2                !
 ! D210  D(22,24,26,28)        148.3769         estimate D2E/DX2                !
 ! D211  D(62,24,26,3)        -145.7262         estimate D2E/DX2                !
 ! D212  D(62,24,26,28)          1.4243         estimate D2E/DX2                !
 ! D213  D(22,24,62,60)         -9.483          estimate D2E/DX2                !
 ! D214  D(22,24,62,64)       -124.9969         estimate D2E/DX2                !
 ! D215  D(22,24,62,94)        111.2873         estimate D2E/DX2                !
 ! D216  D(26,24,62,60)        140.3444         estimate D2E/DX2                !
 ! D217  D(26,24,62,64)         24.8305         estimate D2E/DX2                !
 ! D218  D(26,24,62,94)        -98.8853         estimate D2E/DX2                !
 ! D219  D(23,25,27,29)        -22.2603         estimate D2E/DX2                !
 ! D220  D(23,25,27,65)       -136.7187         estimate D2E/DX2                !
 ! D221  D(23,25,27,93)        103.6243         estimate D2E/DX2                !
 ! D222  D(61,25,27,29)        135.9989         estimate D2E/DX2                !
 ! D223  D(61,25,27,65)         21.5405         estimate D2E/DX2                !
 ! D224  D(61,25,27,93)        -98.1165         estimate D2E/DX2                !
 ! D225  D(23,25,61,59)         20.7392         estimate D2E/DX2                !
 ! D226  D(23,25,61,63)        136.249          estimate D2E/DX2                !
 ! D227  D(23,25,61,96)       -104.7464         estimate D2E/DX2                !
 ! D228  D(27,25,61,59)       -137.4992         estimate D2E/DX2                !
 ! D229  D(27,25,61,63)        -21.9894         estimate D2E/DX2                !
 ! D230  D(27,25,61,96)         97.0151         estimate D2E/DX2                !
 ! D231  D(3,26,28,30)           4.5593         estimate D2E/DX2                !
 ! D232  D(3,26,28,66)         120.3311         estimate D2E/DX2                !
 ! D233  D(3,26,28,85)        -116.9116         estimate D2E/DX2                !
 ! D234  D(24,26,28,30)       -145.1007         estimate D2E/DX2                !
 ! D235  D(24,26,28,66)        -29.329          estimate D2E/DX2                !
 ! D236  D(24,26,28,85)         93.4284         estimate D2E/DX2                !
 ! D237  D(25,27,29,5)          16.7326         estimate D2E/DX2                !
 ! D238  D(25,27,29,31)       -146.9034         estimate D2E/DX2                !
 ! D239  D(65,27,29,5)         126.4128         estimate D2E/DX2                !
 ! D240  D(65,27,29,31)        -37.2232         estimate D2E/DX2                !
 ! D241  D(93,27,29,5)        -109.8399         estimate D2E/DX2                !
 ! D242  D(93,27,29,31)         86.524          estimate D2E/DX2                !
 ! D243  D(25,27,65,63)        -12.1641         estimate D2E/DX2                !
 ! D244  D(25,27,65,67)        150.452          estimate D2E/DX2                !
 ! D245  D(29,27,65,63)       -129.6616         estimate D2E/DX2                !
 ! D246  D(29,27,65,67)         32.9544         estimate D2E/DX2                !
 ! D247  D(93,27,65,63)        107.4203         estimate D2E/DX2                !
 ! D248  D(93,27,65,67)        -89.9637         estimate D2E/DX2                !
 ! D249  D(26,28,30,7)          -3.8875         estimate D2E/DX2                !
 ! D250  D(26,28,30,32)        149.9632         estimate D2E/DX2                !
 ! D251  D(66,28,30,7)        -120.3566         estimate D2E/DX2                !
 ! D252  D(66,28,30,32)         33.4942         estimate D2E/DX2                !
 ! D253  D(85,28,30,7)         117.6786         estimate D2E/DX2                !
 ! D254  D(85,28,30,32)        -88.4706         estimate D2E/DX2                !
 ! D255  D(26,28,66,64)         30.0574         estimate D2E/DX2                !
 ! D256  D(26,28,66,68)       -140.5979         estimate D2E/DX2                !
 ! D257  D(30,28,66,64)        140.7073         estimate D2E/DX2                !
 ! D258  D(30,28,66,68)        -29.9479         estimate D2E/DX2                !
 ! D259  D(85,28,66,64)        -95.0229         estimate D2E/DX2                !
 ! D260  D(85,28,66,68)         94.3219         estimate D2E/DX2                !
 ! D261  D(5,29,31,33)          -4.5944         estimate D2E/DX2                !
 ! D262  D(5,29,31,69)        -157.9154         estimate D2E/DX2                !
 ! D263  D(27,29,31,33)        159.6096         estimate D2E/DX2                !
 ! D264  D(27,29,31,69)          6.2887         estimate D2E/DX2                !
 ! D265  D(7,30,32,34)          -8.9591         estimate D2E/DX2                !
[...]
 Alpha virt. eigenvalues --    1.59321   1.59517   1.60290   1.61013   1.61209
 Alpha virt. eigenvalues --    1.61444   1.61770   1.61906   1.62144   1.62524
 Alpha virt. eigenvalues --    1.62855   1.63225   1.63294   1.63718   1.63853
 Alpha virt. eigenvalues --    1.63932   1.64215   1.64325   1.64717   1.64816
 Alpha virt. eigenvalues --    1.65190   1.65245   1.65638   1.66021   1.66370
 Alpha virt. eigenvalues --    1.66505   1.66633   1.66870   1.66993   1.67323
 Alpha virt. eigenvalues --    1.67589   1.67856   1.68251   1.68346   1.68427
 Alpha virt. eigenvalues --    1.68642   1.68881   1.68991   1.69564   1.69651
 Alpha virt. eigenvalues --    1.69819   1.70058   1.70221   1.70355   1.70642
 Alpha virt. eigenvalues --    1.71160   1.71326   1.71424   1.71891   1.72101
 Alpha virt. eigenvalues --    1.72416   1.72448   1.72703   1.73031   1.73137
 Alpha virt. eigenvalues --    1.73613   1.73685   1.73992   1.74199   1.74457
 Alpha virt. eigenvalues --    1.74621   1.74923   1.75046   1.75126   1.75417
 Alpha virt. eigenvalues --    1.75531   1.75721   1.75836   1.76175   1.76478
 Alpha virt. eigenvalues --    1.76562   1.76757   1.76950   1.77385   1.77648
 Alpha virt. eigenvalues --    1.77689   1.78044   1.78188   1.78330   1.78452
 Alpha virt. eigenvalues --    1.78626   1.78653   1.79094   1.79279   1.79559
 Alpha virt. eigenvalues --    1.79917   1.80277   1.80418   1.80769   1.81175
 Alpha virt. eigenvalues --    1.81329   1.81455   1.81689   1.81856   1.82136
 Alpha virt. eigenvalues --    1.82302   1.82884   1.83195   1.83396   1.83637
 Alpha virt. eigenvalues --    1.84147   1.84271   1.84498   1.84564   1.85152
 Alpha virt. eigenvalues --    1.85528   1.85765   1.86083   1.86273   1.86475
 Alpha virt. eigenvalues --    1.86888   1.87156   1.87435   1.87800   1.88140
 Alpha virt. eigenvalues --    1.88475   1.88780   1.89198   1.89238   1.89679
 Alpha virt. eigenvalues --    1.90209   1.90470   1.90694   1.91073   1.91235
 Alpha virt. eigenvalues --    1.91434   1.91776   1.92066   1.92908   1.93233
 Alpha virt. eigenvalues --    1.93527   1.93887   1.94243   1.94510   1.95240
 Alpha virt. eigenvalues --    1.95304   1.95586   1.96254   1.96432   1.96748
 Alpha virt. eigenvalues --    1.97349   1.97490   1.98065   1.98209   1.98496
 Alpha virt. eigenvalues --    1.99066   1.99284   1.99592   1.99906   2.00004
 Alpha virt. eigenvalues --    2.00378   2.00632   2.00939   2.01379   2.01617
 Alpha virt. eigenvalues --    2.02012   2.02086   2.02362   2.02821   2.03185
 Alpha virt. eigenvalues --    2.03774   2.04207   2.04395   2.04771   2.05108
 Alpha virt. eigenvalues --    2.05652   2.05836   2.06204   2.07027   2.07055
 Alpha virt. eigenvalues --    2.07704   2.08184   2.08270   2.08636   2.08998
 Alpha virt. eigenvalues --    2.09381   2.09969   2.10313   2.10493   2.10912
 Alpha virt. eigenvalues --    2.11110   2.11626   2.11974   2.12182   2.12612
 Alpha virt. eigenvalues --    2.12792   2.13221   2.13527   2.13602   2.13877
 Alpha virt. eigenvalues --    2.14253   2.14884   2.15419   2.16030   2.16174
 Alpha virt. eigenvalues --    2.16852   2.17321   2.17743   2.18121   2.18313
 Alpha virt. eigenvalues --    2.18705   2.18895   2.19098   2.19235   2.19541
 Alpha virt. eigenvalues --    2.20131   2.20606   2.21299   2.21508   2.21782
 Alpha virt. eigenvalues --    2.21906   2.23021   2.23229   2.23791   2.24249
 Alpha virt. eigenvalues --    2.24624   2.24979   2.25038   2.25431   2.26048
 Alpha virt. eigenvalues --    2.26418   2.26903   2.27189   2.27626   2.28302
 Alpha virt. eigenvalues --    2.28475   2.28768   2.29152   2.29655   2.30109
 Alpha virt. eigenvalues --    2.30390   2.31012   2.31272   2.31627   2.32422
 Alpha virt. eigenvalues --    2.32757   2.32870   2.33514   2.33965   2.35169
 Alpha virt. eigenvalues --    2.35773   2.36053   2.36138   2.36830   2.37380
 Alpha virt. eigenvalues --    2.37888   2.38494   2.38664   2.39169   2.39658
 Alpha virt. eigenvalues --    2.39957   2.40532   2.41005   2.41413   2.42262
 Alpha virt. eigenvalues --    2.42985   2.43408   2.44054   2.44102   2.44742
 Alpha virt. eigenvalues --    2.44986   2.45173   2.45403   2.46204   2.47022
 Alpha virt. eigenvalues --    2.47298   2.47766   2.47908   2.48514   2.48968
 Alpha virt. eigenvalues --    2.49585   2.50340   2.50935   2.51061   2.51411
 Alpha virt. eigenvalues --    2.51960   2.52534   2.52782   2.53526   2.53863
 Alpha virt. eigenvalues --    2.53978   2.54298   2.54761   2.54906   2.55277
 Alpha virt. eigenvalues --    2.55833   2.56241   2.56474   2.56919   2.57029
 Alpha virt. eigenvalues --    2.57568   2.57743   2.58247   2.58431   2.58990
 Alpha virt. eigenvalues --    2.59185   2.59372   2.59485   2.59870   2.60421
 Alpha virt. eigenvalues --    2.60698   2.61232   2.61389   2.61857   2.62246
 Alpha virt. eigenvalues --    2.62486   2.62682   2.63244   2.63672   2.64403
 Alpha virt. eigenvalues --    2.64603   2.65000   2.65232   2.65334   2.65800
 Alpha virt. eigenvalues --    2.66066   2.66490   2.66580   2.67312   2.67622
 Alpha virt. eigenvalues --    2.68075   2.68393   2.68923   2.69219   2.69475
 Alpha virt. eigenvalues --    2.69573   2.69920   2.70290   2.70499   2.70558
 Alpha virt. eigenvalues --    2.71052   2.71265   2.71619   2.72514   2.72709
 Alpha virt. eigenvalues --    2.73368   2.73552   2.74083   2.74304   2.74514
 Alpha virt. eigenvalues --    2.74882   2.75183   2.75561   2.75856   2.76502
 Alpha virt. eigenvalues --    2.76698   2.77262   2.77396   2.77688   2.78247
 Alpha virt. eigenvalues --    2.78563   2.79245   2.79563   2.80349   2.80847
 Alpha virt. eigenvalues --    2.80985   2.81419   2.81772   2.82750   2.83196
 Alpha virt. eigenvalues --    2.83510   2.83898   2.84570   2.84675   2.85194
 Alpha virt. eigenvalues --    2.85683   2.86820   2.86978   2.87393   2.87823
 Alpha virt. eigenvalues --    2.88538   2.89068   2.89421   2.90010   2.90451
 Alpha virt. eigenvalues --    2.91345   2.92023   2.92287   2.92554   2.93286
 Alpha virt. eigenvalues --    2.94154   2.94519   2.95492   2.96257   2.96597
 Alpha virt. eigenvalues --    2.97133   2.98944   2.99945   3.00332   3.01329
 Alpha virt. eigenvalues --    3.02357   3.03926   3.04905   3.06393   3.08327
 Alpha virt. eigenvalues --    3.09000   3.10264   3.10707   3.11974   3.13756
 Alpha virt. eigenvalues --    3.15208   3.15782   3.16338   3.17862   3.18754
 Alpha virt. eigenvalues --    3.19343   3.20039   3.22173   3.22326   3.23706
 Alpha virt. eigenvalues --    3.25034   3.26049   3.27322   3.31354   3.33037
 Alpha virt. eigenvalues --    3.34267   3.38565   3.39852   3.41066   3.41614
 Alpha virt. eigenvalues --    3.43047   3.47437   3.48956   3.51355   3.52091
 Alpha virt. eigenvalues --    3.55486   4.00752   4.01402   4.02332   4.02758
 Alpha virt. eigenvalues --    4.03095   4.04175   4.04690   4.05736   4.06670
 Alpha virt. eigenvalues --    4.07327   4.07752   4.08162   4.09011   4.09406
 Alpha virt. eigenvalues --    4.10127   4.10779   4.11533   4.12087   4.13013
 Alpha virt. eigenvalues --    4.13477   4.14695   4.15200   4.15606   4.16764
 Alpha virt. eigenvalues --    4.17670   4.18315   4.18708   4.19359   4.19714
 Alpha virt. eigenvalues --    4.20954   4.21212   4.22116   4.23011   4.23980
 Alpha virt. eigenvalues --    4.24829   4.25166   4.25727   4.25830   4.26566
 Alpha virt. eigenvalues --    4.26987   4.27170   4.27324   4.28127   4.28368
 Alpha virt. eigenvalues --    4.28855   4.29340   4.29711   4.30287   4.31041
 Alpha virt. eigenvalues --    4.32401   4.33483   4.33720   4.35545   4.36171
 Alpha virt. eigenvalues --    4.37304   4.37963   4.39062   4.39580   4.40490
 Alpha virt. eigenvalues --    4.41392   4.41795   4.42247   4.42704   4.43439
 Alpha virt. eigenvalues --    4.43854   4.44591   4.46558   4.47898   4.48258
 Alpha virt. eigenvalues --    4.51168   4.51603   4.53898   4.54693   4.55177
 Alpha virt. eigenvalues --    4.57433   4.57518   4.57818   4.60373   4.62955
 Alpha virt. eigenvalues --    4.63882   4.64779   4.66343   4.68385   4.70049
 Alpha virt. eigenvalues --    4.74596   4.77370   4.79292   4.80615   4.81740
 Alpha virt. eigenvalues --    4.82861   4.84724   4.89788   4.93435   4.96585
 Alpha virt. eigenvalues --    4.98131   5.01765   5.04105   5.11839   5.13264
 Alpha virt. eigenvalues --    5.19213
          Condensed to atoms (all electrons):
 Mulliken charges:
               1
     1  C   -0.358502
     2  C   -0.385635
     3  C    0.013734
     4  C   -0.388061
     5  C    0.089918
     6  C    0.091405
     7  C   -0.008383
     8  C    0.090768
     9  C    0.058768
    10  C    0.092648
    11  C    0.091969
    12  C    0.074189
    13  C   -0.009300
    14  C    0.012949
    15  C    0.030071
    16  C    0.013005
    17  C    0.106829
    18  C    0.044831
    19  C    0.107157
    20  C    0.045060
    21  C   -0.356465
    22  C    0.011010
    23  C    0.179543
    24  C    0.088396
    25  C    0.185672
    26  C    0.095873
    27  C   -0.375981
    28  C   -0.387149
    29  C    0.153365
    30  C    0.114702
    31  C    0.084036
    32  C    0.151423
    33  C    0.004612
    34  C   -0.348053
    35  C    0.035432
    36  C    0.100396
    37  C    0.068178
    38  C    0.123704
    39  C    0.119707
    40  C    0.121721
    41  C    0.112749
    42  C    0.152354
    43  C    0.083267
    44  C    0.142632
    45  C    0.142727
    46  C    0.077817
    47  C    0.120077
    48  C    0.125831
    49  C   -0.378416
    50  C   -0.381236
    51  C    0.096302
    52  C    0.088641
    53  C    0.029826
    54  C    0.011052
    55  C   -0.010451
    56  C    0.009491
    57  C    0.089522
    58  C    0.007147
    59  C    0.154665
    60  C    0.079857
    61  C   -0.378349
    62  C   -0.388701
    63  C    0.111580
    64  C    0.147434
    65  C    0.119494
    66  C    0.123198
    67  C    0.145720
    68  C    0.123960
    69  C   -0.389895
    70  C   -0.364857
    71  C    0.086200
    72  C    0.124833
    73  C    0.016485
    74  C    0.124198
    75  C    0.019623
    76  C    0.088989
    77  C   -0.022147
    78  C   -0.382024
    79  C   -0.361147
    80  C   -0.369674
    81  C    0.108548
    82  C    0.160405
    83  C    0.071500
    84  C    0.042669
    85  Cl   0.030180
    86  Cl   0.012248
    87  Cl   0.017525
    88  Cl   0.030992
    89  Cl   0.024917
    90  Cl   0.024238
    91  Cl   0.029830
    92  Cl   0.029098
    93  Cl   0.029644
    94  Cl   0.027502
    95  Cl   0.002083
    96  Cl   0.027480
    97  Cl   0.003627
    98  Cl   0.000129
    99  Cl   0.021699
   100  Cl  -0.006626
 Sum of Mulliken charges =  -0.00000
 Mulliken charges with hydrogens summed into heavy atoms:
               1
     1  C   -0.358502
     2  C   -0.385635
     3  C    0.013734
     4  C   -0.388061
     5  C    0.089918
     6  C    0.091405
     7  C   -0.008383
     8  C    0.090768
     9  C    0.058768
    10  C    0.092648
    11  C    0.091969
    12  C    0.074189
    13  C   -0.009300
    14  C    0.012949
    15  C    0.030071
    16  C    0.013005
    17  C    0.106829
    18  C    0.044831
    19  C    0.107157
    20  C    0.045060
    21  C   -0.356465
    22  C    0.011010
    23  C    0.179543
    24  C    0.088396
    25  C    0.185672
    26  C    0.095873
    27  C   -0.375981
    28  C   -0.387149
    29  C    0.153365
    30  C    0.114702
    31  C    0.084036
    32  C    0.151423
    33  C    0.004612
    34  C   -0.348053
    35  C    0.035432
    36  C    0.100396
    37  C    0.068178
    38  C    0.123704
    39  C    0.119707
    40  C    0.121721
    41  C    0.112749
    42  C    0.152354
    43  C    0.083267
    44  C    0.142632
    45  C    0.142727
    46  C    0.077817
    47  C    0.120077
    48  C    0.125831
    49  C   -0.378416
    50  C   -0.381236
    51  C    0.096302
    52  C    0.088641
    53  C    0.029826
    54  C    0.011052
    55  C   -0.010451
    56  C    0.009491
    57  C    0.089522
    58  C    0.007147
    59  C    0.154665
    60  C    0.079857
    61  C   -0.378349
    62  C   -0.388701
    63  C    0.111580
    64  C    0.147434
    65  C    0.119494
    66  C    0.123198
    67  C    0.145720
    68  C    0.123960
    69  C   -0.389895
    70  C   -0.364857
    71  C    0.086200
    72  C    0.124833
    73  C    0.016485
    74  C    0.124198
    75  C    0.019623
    76  C    0.088989
    77  C   -0.022147
    78  C   -0.382024
    79  C   -0.361147
    80  C   -0.369674
    81  C    0.108548
    82  C    0.160405
    83  C    0.071500
    84  C    0.042669
    85  Cl   0.030180
    86  Cl   0.012248
    87  Cl   0.017525
    88  Cl   0.030992
    89  Cl   0.024917
    90  Cl   0.024238
    91  Cl   0.029830
    92  Cl   0.029098
    93  Cl   0.029644
    94  Cl   0.027502
    95  Cl   0.002083
    96  Cl   0.027480
    97  Cl   0.003627
    98  Cl   0.000129
    99  Cl   0.021699
   100  Cl  -0.006626
 Electronic spatial extent (au):  <R**2>=          72256.6340
 Charge=              0.0000 electrons
 Dipole moment (field-independent basis, Debye):
    X=              0.6044    Y=             -0.6745    Z=              2.6727  Tot=              2.8220
 Quadrupole moment (field-independent basis, Debye-Ang):
   XX=           -724.0764   YY=           -702.3795   ZZ=           -661.2749
   XY=             -4.7132   XZ=              3.3493   YZ=             -1.6086
 Traceless Quadrupole moment (field-independent basis, Debye-Ang):
   XX=            -28.1661   YY=             -6.4692   ZZ=             34.6354
   XY=             -4.7132   XZ=              3.3493   YZ=             -1.6086
 Octapole moment (field-independent basis, Debye-Ang**2):
  XXX=            -41.4422  YYY=            -43.8475  ZZZ=             10.7062  XYY=             38.5321
  XXY=              5.8729  XXZ=              8.4013  XZZ=             -9.5762  YZZ=             23.0402
  YYZ=             30.3659  XYZ=             27.9241
 Hexadecapole moment (field-independent basis, Debye-Ang**3):
 XXXX=         -40664.3040 YYYY=         -36112.3443 ZZZZ=         -24669.7498 XXXY=              4.5773
 XXXZ=             42.9463 YYYX=              6.8270 YYYZ=             18.2454 ZZZX=             28.0760
 ZZZY=            -26.7877 XXYY=         -12923.0546 XXZZ=         -11127.2196 YYZZ=         -10006.7811
 XXYZ=             32.5768 YYXZ=             -5.3743 ZZXY=              2.3996
 N-N= 2.800266296694D+04 E-N=-8.089412747885D+04  KE= 1.051179404130D+04
 No NMR shielding tensors so no spin-rotation constants.
 Leave Link  601 at Mon Jun 27 21:03:42 2022, MaxMem=  1342177280 cpu:              28.0 elap:               1.4
 (Enter /home/mkliu/g16/l9999.exe)
 1\1\GINC-NODE02\FOpt\RB3LYP\6-31G(d,p)\C84Cl16\MKLIU\27-Jun-2022\0\\#P
  opt b3lyp/6-31G(d, p) empiricaldispersion=GD3\\force\\0,1\C,8.4193937
 539,18.6395928797,10.8251830461\C,12.6016732562,19.9799370515,8.890996
 437\C,8.2576702968,26.8564052909,10.5032895156\C,12.5114803253,25.7608
 371253,8.921074076\C,8.0082289153,19.1420433747,9.4485262052\C,12.0856
 542825,19.4820706482,10.2191173655\C,7.9548117272,26.8383454967,9.1239
 304345\C,11.8999278919,26.1946257921,10.2349727722\C,8.9787950632,19.2
 448952139,8.4009554347\C,12.355082832,20.1171604313,11.3946722865\C,12
 .1545179661,25.5413476675,11.4028621007\C,8.9704033582,26.6235214267,8
 .1492275779\C,10.37208488,19.0660737525,8.7019902625\C,10.301133957,26
 .6643116843,8.6190424306\C,10.8210987846,18.8440857666,10.0299567557\C
 ,10.6219170178,26.789584897,10.0131811913\C,9.8925052804,18.7812024184
 ,11.076210786\C,9.6035669926,26.7768651831,10.9887197165\C,10.16032174
 05,19.4327343271,12.2689915545\C,9.8533487766,26.0569204733,12.2157243
 8\C,8.8988323916,19.8452781045,12.9785306534\C,8.7555024415,25.4397922
 601,12.8599149064\C,7.8497199069,19.4996712081,11.9387990494\C,7.42091
 93871,25.5689932842,12.3723773007\C,6.7276508901,20.1923910542,11.7985
 681616\C,7.1700800116,26.2655289344,11.23129123\C,5.92298813,20.168481
 4899,10.5231362605\C,6.036321859,25.9130095241,10.2885964718\C,6.75057
 29986,19.7627705325,9.3152011703\C,6.6472278452,26.2559059555,8.944119
 0441\C,6.4077395266,20.3480140916,8.1019115882\C,6.3139290585,25.63096
 82589,7.8088551674\C,7.3353668464,20.4092570032,7.0469271196\C,7.21607
 21488,25.6644659247,6.5911914774\C,8.6691955811,19.9629801684,7.196649
 7523\C,8.687675679,25.8781420822,6.956885295\C,9.7177513178,20.6359110
 048,6.4346654664\C,9.717447104,25.1593434504,6.3378279178\C,11.0766767
 047,20.5732487204,6.9058107558\C,12.7415474121,22.1877578892,7.7723145
 277\C,12.7245472018,23.5778574147,7.7739299626\C,11.0572974303,25.1855
 778567,6.8566430706\C,11.3725800213,19.7774609802,7.9887370422\C,12.93
 89387096,21.4636877004,8.9474393725\C,12.8906190251,24.2901229716,8.95
 93769759\C,11.3358852549,25.9669752782,7.95876079\C,13.1507585222,22.1
 617637163,10.1534924599\C,13.1184638991,23.5834605704,10.1593116313\C,
 13.1943088368,21.3807311643,11.4766430519\C,13.0947341458,24.348794432
 5,11.4871859391\C,12.4532722416,22.1543728142,12.5545788214\C,12.41399
 73077,23.5152819649,12.5503740681\C,11.3644569463,20.1274605463,12.429
 8967745\C,11.1277310114,25.4392368788,12.390926057\C,11.366731774,21.3
 924798884,13.0719404419\C,11.2676614805,24.1865054531,13.061200058\C,8
 .8927680037,21.3276602102,13.3309421343\C,8.8898012502,24.1387172869,1
 3.4595973227\C,7.6764724987,22.0441782926,13.2240609445\C,7.6783450568
 ,23.4315309868,13.3324643979\C,6.4269746159,21.4151767888,12.627820125
 9\C,6.5999659755,24.3606248239,12.7713561252\C,5.8463789665,22.3325696
 907,11.5631705959\C,5.9506347204,23.7222874346,11.5577955751\C,5.55267
 13846,21.6384538207,10.3961950381\C,5.7144229477,24.4205059645,10.3563
 952631\C,5.3408712227,22.3095480681,9.1907945725\C,5.4017195522,23.718
 2192012,9.1666893348\C,5.364035192,21.46177924,7.9333192547\C,5.362828
 9266,24.4616316739,7.8173077105\C,5.931250683,22.2403299999,6.76748118
 57\C,5.9428184628,23.6153497297,6.714451514\C,7.0001797688,21.52282083
 93,6.195560334\C,6.9824794793,24.2955970365,6.0192087471\C,8.017416837
 7,22.1850515884,5.5088503819\C,7.9857946084,23.6010101087,5.3934939543
 \C,9.3605811511,21.7160452682,5.599241539\C,9.3949626752,24.1341612794
 ,5.2531048879\C,12.0864497416,21.635610046,6.5202724281\C,12.092755836
 8,24.1301585285,6.4995818062\C,10.2253206258,22.8696972398,5.453102192
 5\C,11.4684878086,22.8827792573,5.9503047181\C,10.1321929552,22.021878
 3006,13.4790004718\C,10.131404033,23.4617284187,13.5186807764\Cl,4.529
 8139209,26.9042534371,10.6402898141\Cl,3.6090706646,24.9488035424,7.46
 20875602\Cl,13.3759119123,24.8401123934,5.3688907461\Cl,13.9624897996,
 26.79856424,8.4781304669\Cl,14.7978177712,24.8586325504,11.9580392507\
 Cl,14.940522787,21.0232719272,11.9242719549\Cl,14.0550954767,19.003588
 5271,8.3347877105\Cl,3.6854478175,20.8181290632,7.5467937644\Cl,4.4380
 911893,19.0905464523,10.6958428006\Cl,5.3333281545,24.7924986022,14.03
 57236876\Cl,7.8946637623,16.8602801591,11.0047265204\Cl,5.1992218252,2
 1.0509061146,13.956495729\Cl,8.6606864611,18.8519562152,14.5361664452\
 Cl,13.3437667903,20.9387342723,5.3296031559\Cl,9.693146502,24.88007932
 28,3.595085543\Cl,6.6931995211,27.0074261958,5.4060321672\\Version=ES6
 4L-G16RevA.03\State=1-A\HF=-10564.2123671\RMSD=1.927e-09\RMSF=1.903e-0
 5\Dipole=0.4328314,0.6209538,0.8122291\Quadrupole=-16.4425249,10.39698
 ,6.0455449,1.169999,10.8257277,16.0067201\PG=C01 [X(C84Cl16)]\\@


 FROM AN ANONYMOUS WRITER, ON PERSPECTIVE:

 MAN, DESPITE HIS ARTISTIC PRETENSIONS, HIS SOPHISTICATION AND MANY 
 ACCOMPLISHMENTS, OWES THE FACT OF HIS EXISTENCE TO A SIX-INCH LAYER OF 
 TOPSOIL AND THE FACT THAT IT RAINS.
 Job cpu time:       1 days 18 hours 58 minutes 55.2 seconds.
 Elapsed time:       0 days  1 hours 47 minutes 36.2 seconds.
 File lengths (MBytes):  RWF=   1500 Int=      0 D2E=      0 Chk=    187 Scr=      1
 Normal termination of Gaussian 16 at Mon Jun 27 21:03:44 2022.
