 Entering Gaussian System, Link 0=g16
 Input=16_addons_C84_11_Cl22_rank_1.gjf
 Output=16_addons_C84_11_Cl22_rank_1.log
 Initial command:
 /home/mkliu/g16/l1.exe "/data/scratch/Gau-128527.inp" -scrdir="/data/scratch/"
 Entering Link 1 = /home/mkliu/g16/l1.exe PID=    128528.
  
 Copyright (c) 1988,1990,1992,1993,1995,1998,2003,2009,2016,
            Gaussian, Inc.  All Rights Reserved.
  
 This is part of the Gaussian(R) 16 program.  It is based on
 the Gaussian(R) 09 system (copyright 2009, Gaussian, Inc.),
 the Gaussian(R) 03 system (copyright 2003, Gaussian, Inc.),
 the Gaussian(R) 98 system (copyright 1998, Gaussian, Inc.),
 the Gaussian(R) 94 system (copyright 1995, Gaussian, Inc.),
 the Gaussian 92(TM) system (copyright 1992, Gaussian, Inc.),
 the Gaussian 90(TM) system (copyright 1990, Gaussian, Inc.),
 the Gaussian 88(TM) system (copyright 1988, Gaussian, Inc.),
 the Gaussian 86(TM) system (copyright 1986, Carnegie Mellon
 University), and the Gaussian 82(TM) system (copyright 1983,
 Carnegie Mellon University). Gaussian is a federally registered
 trademark of Gaussian, Inc.
  
 This software contains proprietary and confidential information,
 including trade secrets, belonging to Gaussian, Inc.
  
 This software is provided under written license and may be
 used, copied, transmitted, or stored only in accord with that
 written license.
  
 The following legend is applicable only to US Government
 contracts under FAR:
  
                    RESTRICTED RIGHTS LEGEND
  
 Use, reproduction and disclosure by the US Government is
 subject to restrictions as set forth in subparagraphs (a)
 and (c) of the Commercial Computer Software - Restricted
 Rights clause in FAR 52.227-19.
  
 Gaussian, Inc.
 340 Quinnipiac St., Bldg. 40, Wallingford CT 06492
  
  
 ---------------------------------------------------------------
 Warning -- This program may not be used in any manner that
 competes with the business of Gaussian, Inc. or will provide
 assistance to any competitor of Gaussian, Inc.  The licensee
 of this program is prohibited from giving any competitor of
 Gaussian, Inc. access to this program.  By using this program,
 the user acknowledges that Gaussian, Inc. is engaged in the
 business of creating and licensing software in the field of
 computational chemistry and represents and warrants to the
 licensee that it is not a competitor of Gaussian, Inc. and that
 it will not use this program in any manner prohibited above.
 ---------------------------------------------------------------
  

 Cite this work as:
 Gaussian 16, Revision A.03,
 M. J. Frisch, G. W. Trucks, H. B. Schlegel, G. E. Scuseria, 
 M. A. Robb, J. R. Cheeseman, G. Scalmani, V. Barone, 
 G. A. Petersson, H. Nakatsuji, X. Li, M. Caricato, A. V. Marenich, 
 J. Bloino, B. G. Janesko, R. Gomperts, B. Mennucci, H. P. Hratchian, 
 J. V. Ortiz, A. F. Izmaylov, J. L. Sonnenberg, D. Williams-Young, 
 F. Ding, F. Lipparini, F. Egidi, J. Goings, B. Peng, A. Petrone, 
 T. Henderson, D. Ranasinghe, V. G. Zakrzewski, J. Gao, N. Rega, 
 G. Zheng, W. Liang, M. Hada, M. Ehara, K. Toyota, R. Fukuda, 
 J. Hasegawa, M. Ishida, T. Nakajima, Y. Honda, O. Kitao, H. Nakai, 
 T. Vreven, K. Throssell, J. A. Montgomery, Jr., J. E. Peralta, 
 F. Ogliaro, M. J. Bearpark, J. J. Heyd, E. N. Brothers, K. N. Kudin, 
 V. N. Staroverov, T. A. Keith, R. Kobayashi, J. Normand, 
 K. Raghavachari, A. P. Rendell, J. C. Burant, S. S. Iyengar, 
 J. Tomasi, M. Cossi, J. M. Millam, M. Klene, C. Adamo, R. Cammi, 
 J. W. Ochterski, R. L. Martin, K. Morokuma, O. Farkas, 
 J. B. Foresman, and D. J. Fox, Gaussian, Inc., Wallingford CT, 2016.
 
 ******************************************
 Gaussian 16:  ES64L-G16RevA.03 25-Dec-2016
                29-Jun-2022 
 ******************************************
 %mem=10GB
 %chk=16_addons_C84_11_Cl22_rank_1.chk
 %nprocshared=24
 Will use up to   24 processors via shared memory.
 ------------------------------------------------
 #P opt b3lyp/6-31G(d, p) empiricaldispersion=GD3
 ------------------------------------------------
 1/18=20,19=15,26=3,38=1/1,3;
 2/9=110,12=2,17=6,18=5,40=1/2;
 3/5=1,6=6,7=101,11=2,25=1,30=1,71=1,74=-5,124=31/1,2,3;
 4//1;
 5/5=2,38=5/2;
 6/7=2,8=2,9=2,10=2,28=1/1;
 7//1,2,3,16;
 1/18=20,19=15,26=3/3(2);
 2/9=110/2;
 99//99;
 2/9=110/2;
 3/5=1,6=6,7=101,11=2,25=1,30=1,71=1,74=-5,124=31/1,2,3;
 4/5=5,16=3,69=1/1;
 5/5=2,38=5/2;
 7//1,2,3,16;
 1/18=20,19=15,26=3/3(-5);
 2/9=110/2;
 6/7=2,8=2,9=2,10=2,19=2,28=1/1;
 99/9=1/99;
 Leave Link    1 at Wed Jun 29 11:31:22 2022, MaxMem=  1342177280 cpu:               0.7 elap:               0.0
 (Enter /home/mkliu/g16/l101.exe)
 -----
 force
 -----
 Symbolic Z-matrix:
 Charge =  0 Multiplicity = 1
 C                     8.43491   18.68042   10.80592 
 C                     12.57338   20.00441   8.88719 
 C                     8.25675   26.84541   10.52516 
 C                     12.48219   25.74666   8.91286 
 C                     8.03332   19.19669   9.44052 
 C                     12.05345   19.52943   10.21112 
 C                     7.94889   26.82132   9.13815 
 C                     11.876    26.16673   10.22006 
 C                     8.99654   19.30579   8.39258 
 C                     12.30998   20.17734   11.39199 
 C                     12.13341   25.51409   11.37738 
 C                     8.95395   26.6305   8.16327 
 C                     10.36495   19.12439   8.6845 
 C                     10.28446   26.66682   8.62919 
 C                     10.81189   18.89287   10.03777 
 C                     10.59951   26.77116   10.0009 
 C                     9.8982    18.81548   11.06329 
 C                     9.58697   26.75588   10.98837 
 C                     10.17036   19.46563   12.26956 
 C                     9.84148   26.03896   12.19848 
 C                     8.90658   19.86997   12.96142 
 C                     8.75321   25.42457   12.83784 
 C                     7.87832   19.54379   11.90658 
 C                     7.41721   25.55755   12.3704 
 C                     6.75371   20.22613   11.76471 
 C                     7.16763   26.26342   11.23673 
 C                     5.95841   20.20366   10.49148 
 C                     6.0352    25.92929   10.30097 
 C                     6.80111   19.81861   9.30698 
 C                     6.64543   26.28095   8.97565 
 C                     6.46023   20.40649   8.08675 
 C                     6.34179   25.6141   7.83684 
 C                     7.35967   20.44313   7.03091 
 C                     7.32421   25.45989   6.81691 
 C                     8.69877   20.01726   7.19019 
 C                     8.66076   25.8851   6.98099 
 C                     9.73513   20.64938   6.4408 
 C                     9.71459   25.14155   6.33383 
 C                     11.04825   20.60954   6.89504 
 C                     12.68543   22.18735   7.78027 
 C                     12.66834   23.57454   7.78432 
 C                     11.05157   25.18274   6.86881 
 C                     11.35635   19.8114   7.99812 
 C                     12.88234   21.47585   8.95194 
 C                     12.83687   24.2825   8.95952 
 C                     11.32167   25.95632   7.95924 
 C                     13.09879   22.17405   10.14942 
 C                     13.06864   23.57757   10.14799 
 C                     13.16432   21.40749   11.46455 
 C                     13.06498   24.33522   11.46087 
 C                     12.46421   22.17039   12.55007 
 C                     12.39357   23.50222   12.51603 
 C                     11.35633   20.14491   12.42471 
 C                     11.10659   25.41198   12.37202 
 C                     11.45968   21.34192   13.30787 
 C                     11.24955   24.19324   13.04874 
 C                     8.9173    21.3518   13.27498 
 C                     8.89114   24.12839   13.41584 
 C                     7.68913   22.05735   13.17002 
 C                     7.67994   23.42634   13.28554 
 C                     6.44569   21.43679   12.59206 
 C                     6.60464   24.35441   12.75653 
 C                     5.89434   22.35382   11.52894 
 C                     5.98917   23.73446   11.52914 
 C                     5.61072   21.66317   10.36045 
 C                     5.75434   24.43403   10.3372 
 C                     5.40138   22.3332   9.16635 
 C                     5.45071   23.73497   9.1556 
 C                     5.40028   21.48048   7.92263 
 C                     5.36212   24.47002   7.82513 
 C                     5.93552   22.25439   6.7541 
 C                     5.91897   23.61584   6.71555 
 C                     7.01702   21.54047   6.15704 
 C                     7.00088   24.29048   6.0836 
 C                     8.0002    22.16816   5.4416 
 C                     8.02405   23.58429   5.45093 
 C                     9.38996   21.61783   5.33033 
 C                     9.36441   24.03802   5.54502 
 C                     12.08677   21.63353   6.51019 
 C                     12.06377   24.12259   6.51989 
 C                     10.21911   22.87297   5.46304 
 C                     11.46055   22.87391   5.94987 
 C                     10.1187   22.03161   13.44657 
 C                     10.12039   23.45359   13.47983 
 Cl                    4.5002    19.15371   10.61663 
 Cl                    7.87492   16.96109   10.95563 
 Cl                    3.75408   20.81161   7.63504 
 Cl                    3.65658   24.97322   7.55578 
 Cl                    4.51863   26.82195   10.66975 
 Cl                    14.01334   19.08662   8.32472 
 Cl                    14.89445   21.05122   11.83402 
 Cl                    14.75175   24.78997   11.8892 
 Cl                    13.33126   20.90881   5.42567 
 Cl                    9.6663    20.79117   3.74266 
 Cl                    13.92722   26.7164   8.45085 
 Cl                    5.33174   24.70819   13.9772 
 Cl                    5.23718   21.1056   13.88793 
 Cl                    13.33615   24.81575   5.42826 
 Cl                    8.61144   18.95422   14.4893 
 Cl                    12.06959   20.92762   14.96925 
 
 ITRead=  0  0  0  0  0  0  0  0  0  0  0  0  0  0  0  0  0  0  0  0
 ITRead=  0  0  0  0  0  0  0  0  0  0  0  0  0  0  0  0  0  0  0  0
 ITRead=  0  0  0  0  0  0  0  0  0  0  0  0  0  0  0  0  0  0  0  0
 ITRead=  0  0  0  0  0  0  0  0  0  0  0  0  0  0  0  0  0  0  0  0
 ITRead=  0  0  0  0  0  0  0  0  0  0  0  0  0  0  0  0  0  0  0  0
 MicOpt= -1 -1 -1 -1 -1 -1 -1 -1 -1 -1 -1 -1 -1 -1 -1 -1 -1 -1 -1 -1
 MicOpt= -1 -1 -1 -1 -1 -1 -1 -1 -1 -1 -1 -1 -1 -1 -1 -1 -1 -1 -1 -1
 MicOpt= -1 -1 -1 -1 -1 -1 -1 -1 -1 -1 -1 -1 -1 -1 -1 -1 -1 -1 -1 -1
 MicOpt= -1 -1 -1 -1 -1 -1 -1 -1 -1 -1 -1 -1 -1 -1 -1 -1 -1 -1 -1 -1
 MicOpt= -1 -1 -1 -1 -1 -1 -1 -1 -1 -1 -1 -1 -1 -1 -1 -1 -1 -1 -1 -1
 NAtoms=    100 NQM=      100 NQMF=       0 NMMI=      0 NMMIF=      0
                NMic=       0 NMicF=      0.
                    Isotopes and Nuclear Properties:
 (Nuclear quadrupole moments (NQMom) in fm**2, nuclear magnetic moments (NMagM)
  in nuclear magnetons)

  Atom         1           2           3           4           5           6           7           8           9          10
 IAtWgt=          12          12          12          12          12          12          12          12          12          12
 AtmWgt=  12.0000000  12.0000000  12.0000000  12.0000000  12.0000000  12.0000000  12.0000000  12.0000000  12.0000000  12.0000000
 NucSpn=           0           0           0           0           0           0           0           0           0           0
 AtZEff=  -0.0000000  -0.0000000  -0.0000000  -0.0000000  -0.0000000  -0.0000000  -0.0000000  -0.0000000  -0.0000000  -0.0000000
 NQMom=    0.0000000   0.0000000   0.0000000   0.0000000   0.0000000   0.0000000   0.0000000   0.0000000   0.0000000   0.0000000
 NMagM=    0.0000000   0.0000000   0.0000000   0.0000000   0.0000000   0.0000000   0.0000000   0.0000000   0.0000000   0.0000000
 AtZNuc=   6.0000000   6.0000000   6.0000000   6.0000000   6.0000000   6.0000000   6.0000000   6.0000000   6.0000000   6.0000000

  Atom        11          12          13          14          15          16          17          18          19          20
 IAtWgt=          12          12          12          12          12          12          12          12          12          12
 AtmWgt=  12.0000000  12.0000000  12.0000000  12.0000000  12.0000000  12.0000000  12.0000000  12.0000000  12.0000000  12.0000000
 NucSpn=           0           0           0           0           0           0           0           0           0           0
 AtZEff=  -0.0000000  -0.0000000  -0.0000000  -0.0000000  -0.0000000  -0.0000000  -0.0000000  -0.0000000  -0.0000000  -0.0000000
 NQMom=    0.0000000   0.0000000   0.0000000   0.0000000   0.0000000   0.0000000   0.0000000   0.0000000   0.0000000   0.0000000
 NMagM=    0.0000000   0.0000000   0.0000000   0.0000000   0.0000000   0.0000000   0.0000000   0.0000000   0.0000000   0.0000000
 AtZNuc=   6.0000000   6.0000000   6.0000000   6.0000000   6.0000000   6.0000000   6.0000000   6.0000000   6.0000000   6.0000000

  Atom        21          22          23          24          25          26          27          28          29          30
 IAtWgt=          12          12          12          12          12          12          12          12          12          12
 AtmWgt=  12.0000000  12.0000000  12.0000000  12.0000000  12.0000000  12.0000000  12.0000000  12.0000000  12.0000000  12.0000000
 NucSpn=           0           0           0           0           0           0           0           0           0           0
 AtZEff=  -0.0000000  -0.0000000  -0.0000000  -0.0000000  -0.0000000  -0.0000000  -0.0000000  -0.0000000  -0.0000000  -0.0000000
 NQMom=    0.0000000   0.0000000   0.0000000   0.0000000   0.0000000   0.0000000   0.0000000   0.0000000   0.0000000   0.0000000
 NMagM=    0.0000000   0.0000000   0.0000000   0.0000000   0.0000000   0.0000000   0.0000000   0.0000000   0.0000000   0.0000000
 AtZNuc=   6.0000000   6.0000000   6.0000000   6.0000000   6.0000000   6.0000000   6.0000000   6.0000000   6.0000000   6.0000000

  Atom        31          32          33          34          35          36          37          38          39          40
 IAtWgt=          12          12          12          12          12          12          12          12          12          12
 AtmWgt=  12.0000000  12.0000000  12.0000000  12.0000000  12.0000000  12.0000000  12.0000000  12.0000000  12.0000000  12.0000000
 NucSpn=           0           0           0           0           0           0           0           0           0           0
 AtZEff=  -0.0000000  -0.0000000  -0.0000000  -0.0000000  -0.0000000  -0.0000000  -0.0000000  -0.0000000  -0.0000000  -0.0000000
 NQMom=    0.0000000   0.0000000   0.0000000   0.0000000   0.0000000   0.0000000   0.0000000   0.0000000   0.0000000   0.0000000
 NMagM=    0.0000000   0.0000000   0.0000000   0.0000000   0.0000000   0.0000000   0.0000000   0.0000000   0.0000000   0.0000000
 AtZNuc=   6.0000000   6.0000000   6.0000000   6.0000000   6.0000000   6.0000000   6.0000000   6.0000000   6.0000000   6.0000000

  Atom        41          42          43          44          45          46          47          48          49          50
 IAtWgt=          12          12          12          12          12          12          12          12          12          12
 AtmWgt=  12.0000000  12.0000000  12.0000000  12.0000000  12.0000000  12.0000000  12.0000000  12.0000000  12.0000000  12.0000000
 NucSpn=           0           0           0           0           0           0           0           0           0           0
 AtZEff=  -0.0000000  -0.0000000  -0.0000000  -0.0000000  -0.0000000  -0.0000000  -0.0000000  -0.0000000  -0.0000000  -0.0000000
 NQMom=    0.0000000   0.0000000   0.0000000   0.0000000   0.0000000   0.0000000   0.0000000   0.0000000   0.0000000   0.0000000
 NMagM=    0.0000000   0.0000000   0.0000000   0.0000000   0.0000000   0.0000000   0.0000000   0.0000000   0.0000000   0.0000000
 AtZNuc=   6.0000000   6.0000000   6.0000000   6.0000000   6.0000000   6.0000000   6.0000000   6.0000000   6.0000000   6.0000000

  Atom        51          52          53          54          55          56          57          58          59          60
 IAtWgt=          12          12          12          12          12          12          12          12          12          12
 AtmWgt=  12.0000000  12.0000000  12.0000000  12.0000000  12.0000000  12.0000000  12.0000000  12.0000000  12.0000000  12.0000000
 NucSpn=           0           0           0           0           0           0           0           0           0           0
 AtZEff=  -0.0000000  -0.0000000  -0.0000000  -0.0000000  -0.0000000  -0.0000000  -0.0000000  -0.0000000  -0.0000000  -0.0000000
 NQMom=    0.0000000   0.0000000   0.0000000   0.0000000   0.0000000   0.0000000   0.0000000   0.0000000   0.0000000   0.0000000
 NMagM=    0.0000000   0.0000000   0.0000000   0.0000000   0.0000000   0.0000000   0.0000000   0.0000000   0.0000000   0.0000000
 AtZNuc=   6.0000000   6.0000000   6.0000000   6.0000000   6.0000000   6.0000000   6.0000000   6.0000000   6.0000000   6.0000000

  Atom        61          62          63          64          65          66          67          68          69          70
 IAtWgt=          12          12          12          12          12          12          12          12          12          12
 AtmWgt=  12.0000000  12.0000000  12.0000000  12.0000000  12.0000000  12.0000000  12.0000000  12.0000000  12.0000000  12.0000000
 NucSpn=           0           0           0           0           0           0           0           0           0           0
 AtZEff=  -0.0000000  -0.0000000  -0.0000000  -0.0000000  -0.0000000  -0.0000000  -0.0000000  -0.0000000  -0.0000000  -0.0000000
 NQMom=    0.0000000   0.0000000   0.0000000   0.0000000   0.0000000   0.0000000   0.0000000   0.0000000   0.0000000   0.0000000
 NMagM=    0.0000000   0.0000000   0.0000000   0.0000000   0.0000000   0.0000000   0.0000000   0.0000000   0.0000000   0.0000000
 AtZNuc=   6.0000000   6.0000000   6.0000000   6.0000000   6.0000000   6.0000000   6.0000000   6.0000000   6.0000000   6.0000000

  Atom        71          72          73          74          75          76          77          78          79          80
 IAtWgt=          12          12          12          12          12          12          12          12          12          12
 AtmWgt=  12.0000000  12.0000000  12.0000000  12.0000000  12.0000000  12.0000000  12.0000000  12.0000000  12.0000000  12.0000000
 NucSpn=           0           0           0           0           0           0           0           0           0           0
 AtZEff=  -0.0000000  -0.0000000  -0.0000000  -0.0000000  -0.0000000  -0.0000000  -0.0000000  -0.0000000  -0.0000000  -0.0000000
 NQMom=    0.0000000   0.0000000   0.0000000   0.0000000   0.0000000   0.0000000   0.0000000   0.0000000   0.0000000   0.0000000
 NMagM=    0.0000000   0.0000000   0.0000000   0.0000000   0.0000000   0.0000000   0.0000000   0.0000000   0.0000000   0.0000000
 AtZNuc=   6.0000000   6.0000000   6.0000000   6.0000000   6.0000000   6.0000000   6.0000000   6.0000000   6.0000000   6.0000000

  Atom        81          82          83          84          85          86          87          88          89          90
 IAtWgt=          12          12          12          12          35          35          35          35          35          35
 AtmWgt=  12.0000000  12.0000000  12.0000000  12.0000000  34.9688527  34.9688527  34.9688527  34.9688527  34.9688527  34.9688527
 NucSpn=           0           0           0           0           3           3           3           3           3           3
 AtZEff=  -0.0000000  -0.0000000  -0.0000000  -0.0000000  -0.0000000  -0.0000000  -0.0000000  -0.0000000  -0.0000000  -0.0000000
 NQMom=    0.0000000   0.0000000   0.0000000   0.0000000  -8.1650000  -8.1650000  -8.1650000  -8.1650000  -8.1650000  -8.1650000
 NMagM=    0.0000000   0.0000000   0.0000000   0.0000000   0.8218740   0.8218740   0.8218740   0.8218740   0.8218740   0.8218740
 AtZNuc=   6.0000000   6.0000000   6.0000000   6.0000000  17.0000000  17.0000000  17.0000000  17.0000000  17.0000000  17.0000000

  Atom        91          92          93          94          95          96          97          98          99         100
 IAtWgt=          35          35          35          35          35          35          35          35          35          35
 AtmWgt=  34.9688527  34.9688527  34.9688527  34.9688527  34.9688527  34.9688527  34.9688527  34.9688527  34.9688527  34.9688527
 NucSpn=           3           3           3           3           3           3           3           3           3           3
 AtZEff=  -0.0000000  -0.0000000  -0.0000000  -0.0000000  -0.0000000  -0.0000000  -0.0000000  -0.0000000  -0.0000000  -0.0000000
 NQMom=   -8.1650000  -8.1650000  -8.1650000  -8.1650000  -8.1650000  -8.1650000  -8.1650000  -8.1650000  -8.1650000  -8.1650000
 NMagM=    0.8218740   0.8218740   0.8218740   0.8218740   0.8218740   0.8218740   0.8218740   0.8218740   0.8218740   0.8218740
 AtZNuc=  17.0000000  17.0000000  17.0000000  17.0000000  17.0000000  17.0000000  17.0000000  17.0000000  17.0000000  17.0000000
 Leave Link  101 at Wed Jun 29 11:31:22 2022, MaxMem=  1342177280 cpu:               6.8 elap:               0.3
 (Enter /home/mkliu/g16/l103.exe)

 GradGradGradGradGradGradGradGradGradGradGradGradGradGradGradGradGradGrad
 Berny optimization.
 Initialization pass.
                           ----------------------------
                           !    Initial Parameters    !
                           ! (Angstroms and Degrees)  !
 --------------------------                            --------------------------
 ! Name  Definition              Value          Derivative Info.                !
 --------------------------------------------------------------------------------
 ! R1    R(1,5)                  1.514          estimate D2E/DX2                !
 ! R2    R(1,17)                 1.4919         estimate D2E/DX2                !
 ! R3    R(1,23)                 1.5055         estimate D2E/DX2                !
 ! R4    R(1,86)                 1.8144         estimate D2E/DX2                !
 ! R5    R(2,6)                  1.4996         estimate D2E/DX2                !
 ! R6    R(2,43)                 1.5195         estimate D2E/DX2                !
 ! R7    R(2,44)                 1.5049         estimate D2E/DX2                !
 ! R8    R(2,90)                 1.7978         estimate D2E/DX2                !
 ! R9    R(3,7)                  1.421          estimate D2E/DX2                !
 ! R10   R(3,18)                 1.4114         estimate D2E/DX2                !
 ! R11   R(3,26)                 1.4252         estimate D2E/DX2                !
 ! R12   R(4,8)                  1.5009         estimate D2E/DX2                !
 ! R13   R(4,45)                 1.5072         estimate D2E/DX2                !
 ! R14   R(4,46)                 1.5166         estimate D2E/DX2                !
 ! R15   R(4,95)                 1.8006         estimate D2E/DX2                !
 ! R16   R(5,9)                  1.4275         estimate D2E/DX2                !
 ! R17   R(5,29)                 1.3867         estimate D2E/DX2                !
 ! R18   R(6,10)                 1.3711         estimate D2E/DX2                !
 ! R19   R(6,15)                 1.406          estimate D2E/DX2                !
 ! R20   R(7,12)                 1.4131         estimate D2E/DX2                !
 ! R21   R(7,30)                 1.4204         estimate D2E/DX2                !
 ! R22   R(8,11)                 1.3534         estimate D2E/DX2                !
 ! R23   R(8,16)                 1.4293         estimate D2E/DX2                !
 ! R24   R(9,13)                 1.4109         estimate D2E/DX2                !
 ! R25   R(9,35)                 1.4285         estimate D2E/DX2                !
 ! R26   R(10,49)                1.4995         estimate D2E/DX2                !
 ! R27   R(10,53)                1.4061         estimate D2E/DX2                !
 ! R28   R(11,50)                1.5048         estimate D2E/DX2                !
 ! R29   R(11,54)                1.4332         estimate D2E/DX2                !
 ! R30   R(12,14)                1.4102         estimate D2E/DX2                !
 ! R31   R(12,36)                1.4281         estimate D2E/DX2                !
 ! R32   R(13,15)                1.4438         estimate D2E/DX2                !
 ! R33   R(13,43)                1.3878         estimate D2E/DX2                !
 ! R34   R(14,16)                1.4113         estimate D2E/DX2                !
 ! R35   R(14,46)                1.4246         estimate D2E/DX2                !
 ! R36   R(15,17)                1.3757         estimate D2E/DX2                !
 ! R37   R(16,18)                1.4144         estimate D2E/DX2                !
 ! R38   R(17,19)                1.3971         estimate D2E/DX2                !
 ! R39   R(18,20)                1.4294         estimate D2E/DX2                !
 ! R40   R(19,21)                1.4964         estimate D2E/DX2                !
 ! R41   R(19,53)                1.3755         estimate D2E/DX2                !
 ! R42   R(20,22)                1.4038         estimate D2E/DX2                !
 ! R43   R(20,54)                1.4226         estimate D2E/DX2                !
 ! R44   R(21,23)                1.5088         estimate D2E/DX2                !
 ! R45   R(21,57)                1.5147         estimate D2E/DX2                !
 ! R46   R(21,99)                1.8056         estimate D2E/DX2                !
 ! R47   R(22,24)                1.4217         estimate D2E/DX2                !
 ! R48   R(22,58)                1.4259         estimate D2E/DX2                !
 ! R49   R(23,25)                1.323          estimate D2E/DX2                !
 ! R50   R(24,26)                1.3586         estimate D2E/DX2                !
 ! R51   R(24,62)                1.5023         estimate D2E/DX2                !
 ! R52   R(25,27)                1.5014         estimate D2E/DX2                !
 ! R53   R(25,61)                1.4984         estimate D2E/DX2                !
 ! R54   R(26,28)                1.5065         estimate D2E/DX2                !
 ! R55   R(27,29)                1.5038         estimate D2E/DX2                !
 ! R56   R(27,65)                1.5061         estimate D2E/DX2                !
 ! R57   R(27,85)                1.8012         estimate D2E/DX2                !
 ! R58   R(28,30)                1.5008         estimate D2E/DX2                !
 ! R59   R(28,66)                1.5218         estimate D2E/DX2                !
 ! R60   R(28,89)                1.798          estimate D2E/DX2                !
 ! R61   R(29,31)                1.3967         estimate D2E/DX2                !
 ! R62   R(30,32)                1.3542         estimate D2E/DX2                !
 ! R63   R(31,33)                1.3875         estimate D2E/DX2                !
 ! R64   R(31,69)                1.5179         estimate D2E/DX2                !
 ! R65   R(32,34)                1.4245         estimate D2E/DX2                !
 ! R66   R(32,70)                1.5063         estimate D2E/DX2                !
 ! R67   R(33,35)                1.4142         estimate D2E/DX2                !
 ! R68   R(33,73)                1.444          estimate D2E/DX2                !
 ! R69   R(34,36)                1.4121         estimate D2E/DX2                !
 ! R70   R(34,74)                1.4177         estimate D2E/DX2                !
 ! R71   R(35,37)                1.4266         estimate D2E/DX2                !
 ! R72   R(36,38)                1.443          estimate D2E/DX2                !
 ! R73   R(37,39)                1.39           estimate D2E/DX2                !
 ! R74   R(37,77)                1.5133         estimate D2E/DX2                !
 ! R75   R(38,42)                1.4406         estimate D2E/DX2                !
 ! R76   R(38,78)                1.4009         estimate D2E/DX2                !
 ! R77   R(39,43)                1.396          estimate D2E/DX2                !
 ! R78   R(39,79)                1.5084         estimate D2E/DX2                !
 ! R79   R(40,41)                1.3873         estimate D2E/DX2                !
 ! R80   R(40,44)                1.3849         estimate D2E/DX2                !
 ! R81   R(40,79)                1.5094         estimate D2E/DX2                !
 ! R82   R(41,45)                1.3823         estimate D2E/DX2                !
 ! R83   R(41,80)                1.5049         estimate D2E/DX2                !
 ! R84   R(42,46)                1.364          estimate D2E/DX2                !
 ! R85   R(42,80)                1.5067         estimate D2E/DX2                !
 ! R86   R(44,47)                1.403          estimate D2E/DX2                !
 ! R87   R(45,48)                1.4011         estimate D2E/DX2                !
 ! R88   R(47,48)                1.4038         estimate D2E/DX2                !
 ! R89   R(47,49)                1.5236         estimate D2E/DX2                !
 ! R90   R(48,50)                1.5158         estimate D2E/DX2                !
 ! R91   R(49,51)                1.5002         estimate D2E/DX2                !
 ! R92   R(49,91)                1.8047         estimate D2E/DX2                !
 ! R93   R(50,52)                1.5027         estimate D2E/DX2                !
 ! R94   R(50,92)                1.7987         estimate D2E/DX2                !
 ! R95   R(51,52)                1.3341         estimate D2E/DX2                !
 ! R96   R(51,55)                1.5066         estimate D2E/DX2                !
 ! R97   R(52,56)                1.4388         estimate D2E/DX2                !
 ! R98   R(53,55)                1.4911         estimate D2E/DX2                !
 ! R99   R(54,56)                1.4013         estimate D2E/DX2                !
 ! R100  R(55,83)                1.5143         estimate D2E/DX2                !
 ! R101  R(55,100)               1.8176         estimate D2E/DX2                !
 ! R102  R(56,84)                1.417          estimate D2E/DX2                !
 ! R103  R(57,59)                1.4203         estimate D2E/DX2                !
 ! R104  R(57,83)                1.391          estimate D2E/DX2                !
 ! R105  R(58,60)                1.406          estimate D2E/DX2                !
 ! R106  R(58,84)                1.4037         estimate D2E/DX2                !
 ! R107  R(59,60)                1.3739         estimate D2E/DX2                !
 ! R108  R(59,61)                1.5051         estimate D2E/DX2                !
 ! R109  R(60,62)                1.5157         estimate D2E/DX2                !
 ! R110  R(61,63)                1.5084         estimate D2E/DX2                !
 ! R111  R(61,97)                1.8026         estimate D2E/DX2                !
 ! R112  R(62,64)                1.5065         estimate D2E/DX2                !
 ! R113  R(62,96)                1.7987         estimate D2E/DX2                !
 ! R114  R(63,64)                1.3839         estimate D2E/DX2                !
 ! R115  R(63,65)                1.3867         estimate D2E/DX2                !
 ! R116  R(64,66)                1.4019         estimate D2E/DX2                !
 ! R117  R(65,67)                1.3851         estimate D2E/DX2                !
 ! R118  R(66,68)                1.4061         estimate D2E/DX2                !
 ! R119  R(67,68)                1.4027         estimate D2E/DX2                !
 ! R120  R(67,69)                1.508          estimate D2E/DX2                !
 ! R121  R(68,70)                1.5226         estimate D2E/DX2                !
 ! R122  R(69,71)                1.5003         estimate D2E/DX2                !
 ! R123  R(69,87)                1.8            estimate D2E/DX2                !
 ! R124  R(70,72)                1.5069         estimate D2E/DX2                !
 ! R125  R(70,88)                1.7985         estimate D2E/DX2                !
 ! R126  R(71,72)                1.3621         estimate D2E/DX2                !
 ! R127  R(71,73)                1.4268         estimate D2E/DX2                !
 ! R128  R(72,74)                1.423          estimate D2E/DX2                !
 ! R129  R(73,75)                1.3684         estimate D2E/DX2                !
 ! R130  R(74,76)                1.3949         estimate D2E/DX2                !
 ! R131  R(75,76)                1.4164         estimate D2E/DX2                !
 ! R132  R(75,77)                1.4989         estimate D2E/DX2                !
 ! R133  R(76,78)                1.4182         estimate D2E/DX2                !
 ! R134  R(77,81)                1.5101         estimate D2E/DX2                !
 ! R135  R(77,94)                1.8112         estimate D2E/DX2                !
 ! R136  R(78,81)                1.4473         estimate D2E/DX2                !
 ! R137  R(79,82)                1.4982         estimate D2E/DX2                !
 ! R138  R(79,93)                1.8028         estimate D2E/DX2                !
 ! R139  R(80,82)                1.4993         estimate D2E/DX2                !
 ! R140  R(80,98)                1.8141         estimate D2E/DX2                !
 ! R141  R(81,82)                1.3335         estimate D2E/DX2                !
 ! R142  R(83,84)                1.4224         estimate D2E/DX2                !
 ! A1    A(5,1,17)             112.6365         estimate D2E/DX2                !
 ! A2    A(5,1,23)             111.4518         estimate D2E/DX2                !
 ! A3    A(5,1,86)             108.402          estimate D2E/DX2                !
 ! A4    A(17,1,23)            100.6361         estimate D2E/DX2                !
 ! A5    A(17,1,86)            111.9792         estimate D2E/DX2                !
 ! A6    A(23,1,86)            111.6531         estimate D2E/DX2                !
 ! A7    A(6,2,43)             101.4578         estimate D2E/DX2                !
 ! A8    A(6,2,44)             110.0533         estimate D2E/DX2                !
 ! A9    A(6,2,90)             113.0927         estimate D2E/DX2                !
 ! A10   A(43,2,44)            108.2887         estimate D2E/DX2                !
 ! A11   A(43,2,90)            113.179          estimate D2E/DX2                !
 ! A12   A(44,2,90)            110.3751         estimate D2E/DX2                !
 ! A13   A(7,3,18)             121.5648         estimate D2E/DX2                !
 ! A14   A(7,3,26)             108.352          estimate D2E/DX2                !
 ! A15   A(18,3,26)            122.0374         estimate D2E/DX2                !
 ! A16   A(8,4,45)             109.8741         estimate D2E/DX2                !
 ! A17   A(8,4,46)             101.5308         estimate D2E/DX2                !
 ! A18   A(8,4,95)             113.3832         estimate D2E/DX2                !
 ! A19   A(45,4,46)            109.5012         estimate D2E/DX2                !
 ! A20   A(45,4,95)            110.0155         estimate D2E/DX2                !
 ! A21   A(46,4,95)            112.2296         estimate D2E/DX2                !
 ! A22   A(1,5,9)              120.6063         estimate D2E/DX2                !
 ! A23   A(1,5,29)             118.3906         estimate D2E/DX2                !
 ! A24   A(9,5,29)             119.6432         estimate D2E/DX2                !
 ! A25   A(2,6,10)             123.0804         estimate D2E/DX2                !
 ! A26   A(2,6,15)             109.9213         estimate D2E/DX2                !
 ! A27   A(10,6,15)            119.0345         estimate D2E/DX2                !
 ! A28   A(3,7,12)             121.4385         estimate D2E/DX2                !
 ! A29   A(3,7,30)             108.4781         estimate D2E/DX2                !
 ! A30   A(12,7,30)            121.4931         estimate D2E/DX2                !
 ! A31   A(4,8,11)             122.2086         estimate D2E/DX2                !
 ! A32   A(4,8,16)             110.2138         estimate D2E/DX2                !
 ! A33   A(11,8,16)            120.3265         estimate D2E/DX2                !
 ! A34   A(5,9,13)             119.5183         estimate D2E/DX2                !
 ! A35   A(5,9,35)             121.0184         estimate D2E/DX2                !
 ! A36   A(13,9,35)            116.1266         estimate D2E/DX2                !
 ! A37   A(6,10,49)            122.4071         estimate D2E/DX2                !
 ! A38   A(6,10,53)            119.6543         estimate D2E/DX2                !
 ! A39   A(49,10,53)           111.7039         estimate D2E/DX2                !
 ! A40   A(8,11,50)            122.8855         estimate D2E/DX2                !
 ! A41   A(8,11,54)            119.4427         estimate D2E/DX2                !
 ! A42   A(50,11,54)           110.4386         estimate D2E/DX2                !
 ! A43   A(7,12,14)            116.0802         estimate D2E/DX2                !
 ! A44   A(7,12,36)            119.7093         estimate D2E/DX2                !
 ! A45   A(14,12,36)           118.7301         estimate D2E/DX2                !
 ! A46   A(9,13,15)            120.9817         estimate D2E/DX2                !
 ! A47   A(9,13,43)            121.7946         estimate D2E/DX2                !
 ! A48   A(15,13,43)           108.7723         estimate D2E/DX2                !
 ! A49   A(12,14,16)           122.2529         estimate D2E/DX2                !
 ! A50   A(12,14,46)           121.2454         estimate D2E/DX2                !
 ! A51   A(16,14,46)           109.3556         estimate D2E/DX2                !
 ! A52   A(6,15,13)            108.44           estimate D2E/DX2                !
 ! A53   A(6,15,17)            121.3368         estimate D2E/DX2                !
 ! A54   A(13,15,17)           120.1406         estimate D2E/DX2                !
 ! A55   A(8,16,14)            108.4903         estimate D2E/DX2                !
 ! A56   A(8,16,18)            121.8529         estimate D2E/DX2                !
 ! A57   A(14,16,18)           121.1953         estimate D2E/DX2                !
 ! A58   A(1,17,15)            121.8658         estimate D2E/DX2                !
 ! A59   A(1,17,19)            112.4672         estimate D2E/DX2                !
 ! A60   A(15,17,19)           119.2145         estimate D2E/DX2                !
 ! A61   A(3,18,16)            116.4163         estimate D2E/DX2                !
 ! A62   A(3,18,20)            118.5207         estimate D2E/DX2                !
 ! A63   A(16,18,20)           117.9691         estimate D2E/DX2                !
 ! A64   A(17,19,21)           111.1259         estimate D2E/DX2                !
 ! A65   A(17,19,53)           119.6809         estimate D2E/DX2                !
 ! A66   A(21,19,53)           122.8587         estimate D2E/DX2                !
 ! A67   A(18,20,22)           117.8439         estimate D2E/DX2                !
 ! A68   A(18,20,54)           118.8609         estimate D2E/DX2                !
 ! A69   A(22,20,54)           116.1662         estimate D2E/DX2                !
 ! A70   A(19,21,23)           101.1808         estimate D2E/DX2                !
 ! A71   A(19,21,57)           110.737          estimate D2E/DX2                !
 ! A72   A(19,21,99)           113.0941         estimate D2E/DX2                !
 ! A73   A(23,21,57)           111.1648         estimate D2E/DX2                !
 ! A74   A(23,21,99)           111.75           estimate D2E/DX2                !
 ! A75   A(57,21,99)           108.7938         estimate D2E/DX2                !
 ! A76   A(20,22,24)           122.5374         estimate D2E/DX2                !
 ! A77   A(20,22,58)           120.4964         estimate D2E/DX2                !
 ! A78   A(24,22,58)           108.012          estimate D2E/DX2                !
 ! A79   A(1,23,21)            112.5286         estimate D2E/DX2                !
 ! A80   A(1,23,25)            122.1138         estimate D2E/DX2                !
 ! A81   A(21,23,25)           122.8727         estimate D2E/DX2                !
 ! A82   A(22,24,26)           119.7096         estimate D2E/DX2                !
 ! A83   A(22,24,62)           110.4185         estimate D2E/DX2                !
 ! A84   A(26,24,62)           122.0873         estimate D2E/DX2                !
 ! A85   A(23,25,27)           122.241          estimate D2E/DX2                !
 ! A86   A(23,25,61)           122.1568         estimate D2E/DX2                !
 ! A87   A(27,25,61)           111.8056         estimate D2E/DX2                !
 ! A88   A(3,26,24)            119.2352         estimate D2E/DX2                !
 ! A89   A(3,26,28)            110.7858         estimate D2E/DX2                !
 ! A90   A(24,26,28)           122.762          estimate D2E/DX2                !
 ! A91   A(25,27,29)           112.0223         estimate D2E/DX2                !
 ! A92   A(25,27,65)           100.4613         estimate D2E/DX2                !
 ! A93   A(25,27,85)           112.2497         estimate D2E/DX2                !
 ! A94   A(29,27,65)           107.9973         estimate D2E/DX2                !
 ! A95   A(29,27,85)           111.0468         estimate D2E/DX2                !
 ! A96   A(65,27,85)           112.584          estimate D2E/DX2                !
 ! A97   A(26,28,30)           101.005          estimate D2E/DX2                !
 ! A98   A(26,28,66)           109.9899         estimate D2E/DX2                !
 ! A99   A(26,28,89)           113.36           estimate D2E/DX2                !
 ! A100  A(30,28,66)           109.0431         estimate D2E/DX2                !
 ! A101  A(30,28,89)           114.0628         estimate D2E/DX2                !
 ! A102  A(66,28,89)           109.102          estimate D2E/DX2                !
 ! A103  A(5,29,27)            122.4748         estimate D2E/DX2                !
 ! A104  A(5,29,31)            119.3256         estimate D2E/DX2                !
 ! A105  A(27,29,31)           116.3342         estimate D2E/DX2                !
 ! A106  A(7,30,28)            111.1767         estimate D2E/DX2                !
 ! A107  A(7,30,32)            119.2967         estimate D2E/DX2                !
 ! A108  A(28,30,32)           122.4159         estimate D2E/DX2                !
 ! A109  A(29,31,33)           121.18           estimate D2E/DX2                !
 ! A110  A(29,31,69)           124.2443         estimate D2E/DX2                !
 ! A111  A(33,31,69)           110.5923         estimate D2E/DX2                !
 ! A112  A(30,32,34)           120.0525         estimate D2E/DX2                !
 ! A113  A(30,32,70)           121.7637         estimate D2E/DX2                !
 ! A114  A(34,32,70)           111.1469         estimate D2E/DX2                !
 ! A115  A(31,33,35)           121.3437         estimate D2E/DX2                !
 ! A116  A(31,33,73)           109.072          estimate D2E/DX2                !
 ! A117  A(35,33,73)           121.4456         estimate D2E/DX2                !
 ! A118  A(32,34,36)           122.4771         estimate D2E/DX2                !
 ! A119  A(32,34,74)           107.5996         estimate D2E/DX2                !
 ! A120  A(36,34,74)           121.6242         estimate D2E/DX2                !
 ! A121  A(9,35,33)            116.242          estimate D2E/DX2                !
 ! A122  A(9,35,37)            120.7577         estimate D2E/DX2                !
 ! A123  A(33,35,37)           119.6887         estimate D2E/DX2                !
 ! A124  A(12,36,34)           116.5953         estimate D2E/DX2                !
 ! A125  A(12,36,38)           119.3613         estimate D2E/DX2                !
 ! A126  A(34,36,38)           118.9439         estimate D2E/DX2                !
 ! A127  A(35,37,39)           120.1257         estimate D2E/DX2                !
 ! A128  A(35,37,77)           120.22           estimate D2E/DX2                !
 ! A129  A(39,37,77)           118.2677         estimate D2E/DX2                !
 ! A130  A(36,38,42)           119.7676         estimate D2E/DX2                !
 ! A131  A(36,38,78)           118.416          estimate D2E/DX2                !
 ! A132  A(42,38,78)           117.6189         estimate D2E/DX2                !
 ! A133  A(37,39,43)           118.8877         estimate D2E/DX2                !
 ! A134  A(37,39,79)           123.2007         estimate D2E/DX2                !
 ! A135  A(43,39,79)           115.9634         estimate D2E/DX2                !
 ! A136  A(41,40,44)           120.8645         estimate D2E/DX2                !
 ! A137  A(41,40,79)           111.3748         estimate D2E/DX2                !
 ! A138  A(44,40,79)           125.4371         estimate D2E/DX2                !
 ! A139  A(40,41,45)           120.8712         estimate D2E/DX2                !
 ! A140  A(40,41,80)           111.5091         estimate D2E/DX2                !
 ! A141  A(45,41,80)           125.2262         estimate D2E/DX2                !
 ! A142  A(38,42,46)           119.7933         estimate D2E/DX2                !
 ! A143  A(38,42,80)           121.154          estimate D2E/DX2                !
 ! A144  A(46,42,80)           116.818          estimate D2E/DX2                !
 ! A145  A(2,43,13)            110.2221         estimate D2E/DX2                !
 ! A146  A(2,43,39)            124.506          estimate D2E/DX2                !
 ! A147  A(13,43,39)           121.0768         estimate D2E/DX2                !
 ! A148  A(2,44,40)            115.8967         estimate D2E/DX2                !
 ! A149  A(2,44,47)            123.7097         estimate D2E/DX2                !
 ! A150  A(40,44,47)           119.2356         estimate D2E/DX2                !
 ! A151  A(4,45,41)            116.2645         estimate D2E/DX2                !
 ! A152  A(4,45,48)            123.6377         estimate D2E/DX2                !
 ! A153  A(41,45,48)           118.9234         estimate D2E/DX2                !
 ! A154  A(4,46,14)            109.2909         estimate D2E/DX2                !
 ! A155  A(4,46,42)            125.156          estimate D2E/DX2                !
 ! A156  A(14,46,42)           120.9743         estimate D2E/DX2                !
 ! A157  A(44,47,48)           119.5618         estimate D2E/DX2                !
 ! A158  A(44,47,49)           119.5371         estimate D2E/DX2                !
 ! A159  A(48,47,49)           120.3182         estimate D2E/DX2                !
 ! A160  A(45,48,47)           120.4927         estimate D2E/DX2                !
 ! A161  A(45,48,50)           118.8682         estimate D2E/DX2                !
 ! A162  A(47,48,50)           119.9261         estimate D2E/DX2                !
 ! A163  A(10,49,47)           110.2717         estimate D2E/DX2                !
 ! A164  A(10,49,51)           100.7383         estimate D2E/DX2                !
 ! A165  A(10,49,91)           113.2151         estimate D2E/DX2                !
 ! A166  A(47,49,51)           110.4044         estimate D2E/DX2                !
 ! A167  A(47,49,91)           108.4976         estimate D2E/DX2                !
 ! A168  A(51,49,91)           113.5571         estimate D2E/DX2                !
 ! A169  A(11,50,48)           110.182          estimate D2E/DX2                !
 ! A170  A(11,50,52)           101.3396         estimate D2E/DX2                !
 ! A171  A(11,50,92)           113.308          estimate D2E/DX2                !
 ! A172  A(48,50,52)           109.401          estimate D2E/DX2                !
 ! A173  A(48,50,92)           109.2902         estimate D2E/DX2                !
 ! A174  A(52,50,92)           113.0748         estimate D2E/DX2                !
 ! A175  A(49,51,52)           120.9251         estimate D2E/DX2                !
 ! A176  A(49,51,55)           113.2964         estimate D2E/DX2                !
 ! A177  A(52,51,55)           121.7682         estimate D2E/DX2                !
 ! A178  A(50,52,51)           123.2052         estimate D2E/DX2                !
 ! A179  A(50,52,56)           110.4273         estimate D2E/DX2                !
 ! A180  A(51,52,56)           120.8047         estimate D2E/DX2                !
 ! A181  A(10,53,19)           120.8855         estimate D2E/DX2                !
 ! A182  A(10,53,55)           111.6842         estimate D2E/DX2                !
 ! A183  A(19,53,55)           121.5333         estimate D2E/DX2                !
 ! A184  A(11,54,20)           121.405          estimate D2E/DX2                !
 ! A185  A(11,54,56)           108.9056         estimate D2E/DX2                !
 ! A186  A(20,54,56)           122.2049         estimate D2E/DX2                !
 ! A187  A(51,55,53)           100.9375         estimate D2E/DX2                !
 ! A188  A(51,55,83)           112.7103         estimate D2E/DX2                !
 ! A189  A(51,55,100)          111.1838         estimate D2E/DX2                !
 ! A190  A(53,55,83)           111.0073         estimate D2E/DX2                !
 ! A191  A(53,55,100)          112.435          estimate D2E/DX2                !
 ! A192  A(83,55,100)          108.4961         estimate D2E/DX2                !
 ! A193  A(52,56,54)           108.6644         estimate D2E/DX2                !
 ! A194  A(52,56,84)           119.7062         estimate D2E/DX2                !
 ! A195  A(54,56,84)           121.3043         estimate D2E/DX2                !
 ! A196  A(21,57,59)           117.6829         estimate D2E/DX2                !
 ! A197  A(21,57,83)           120.6481         estimate D2E/DX2                !
 ! A198  A(59,57,83)           120.8764         estimate D2E/DX2                !
 ! A199  A(22,58,60)           109.4508         estimate D2E/DX2                !
 ! A200  A(22,58,84)           122.6949         estimate D2E/DX2                !
 ! A201  A(60,58,84)           121.2358         estimate D2E/DX2                !
 ! A202  A(57,59,60)           119.6414         estimate D2E/DX2                !
 ! A203  A(57,59,61)           122.5452         estimate D2E/DX2                !
 ! A204  A(60,59,61)           115.9508         estimate D2E/DX2                !
 ! A205  A(58,60,59)           119.9712         estimate D2E/DX2                !
 ! A206  A(58,60,62)           109.7401         estimate D2E/DX2                !
 ! A207  A(59,60,62)           125.839          estimate D2E/DX2                !
 ! A208  A(25,61,59)           112.0454         estimate D2E/DX2                !
 ! A209  A(25,61,63)           100.2064         estimate D2E/DX2                !
 ! A210  A(25,61,97)           112.7253         estimate D2E/DX2                !
 ! A211  A(59,61,63)           108.7821         estimate D2E/DX2                !
 ! A212  A(59,61,97)           110.706          estimate D2E/DX2                !
 ! A213  A(63,61,97)           111.9204         estimate D2E/DX2                !
 ! A214  A(24,62,60)           101.3236         estimate D2E/DX2                !
 ! A215  A(24,62,64)           109.9457         estimate D2E/DX2                !
 ! A216  A(24,62,96)           113.5572         estimate D2E/DX2                !
 ! A217  A(60,62,64)           108.7968         estimate D2E/DX2                !
 ! A218  A(60,62,96)           112.6817         estimate D2E/DX2                !
 ! A219  A(64,62,96)           110.1648         estimate D2E/DX2                !
 ! A220  A(61,63,64)           125.5481         estimate D2E/DX2                !
 ! A221  A(61,63,65)           111.462          estimate D2E/DX2                !
 ! A222  A(64,63,65)           120.7326         estimate D2E/DX2                !
 ! A223  A(62,64,63)           116.0178         estimate D2E/DX2                !
 ! A224  A(62,64,66)           123.7651         estimate D2E/DX2                !
 ! A225  A(63,64,66)           119.0946         estimate D2E/DX2                !
 ! A226  A(27,65,63)           111.2315         estimate D2E/DX2                !
 ! A227  A(27,65,67)           125.3568         estimate D2E/DX2                !
 ! A228  A(63,65,67)           121.093          estimate D2E/DX2                !
 ! A229  A(28,66,64)           118.6615         estimate D2E/DX2                !
 ! A230  A(28,66,68)           120.5528         estimate D2E/DX2                !
 ! A231  A(64,66,68)           120.1707         estimate D2E/DX2                !
 ! A232  A(65,67,68)           118.993          estimate D2E/DX2                !
 ! A233  A(65,67,69)           115.9499         estimate D2E/DX2                !
 ! A234  A(68,67,69)           123.9736         estimate D2E/DX2                !
 ! A235  A(66,68,67)           119.8677         estimate D2E/DX2                !
 ! A236  A(66,68,70)           120.4556         estimate D2E/DX2                !
 ! A237  A(67,68,70)           119.1498         estimate D2E/DX2                !
 ! A238  A(31,69,67)           108.0848         estimate D2E/DX2                !
 ! A239  A(31,69,71)           101.5418         estimate D2E/DX2                !
 ! A240  A(31,69,87)           113.141          estimate D2E/DX2                !
 ! A241  A(67,69,71)           110.5137         estimate D2E/DX2                !
 ! A242  A(67,69,87)           110.033          estimate D2E/DX2                !
 ! A243  A(71,69,87)           113.1731         estimate D2E/DX2                !
 ! A244  A(32,70,68)           108.7862         estimate D2E/DX2                !
 ! A245  A(32,70,72)           101.299          estimate D2E/DX2                !
 ! A246  A(32,70,88)           113.9179         estimate D2E/DX2                !
 ! A247  A(68,70,72)           110.3812         estimate D2E/DX2                !
 ! A248  A(68,70,88)           108.7302         estimate D2E/DX2                !
 ! A249  A(72,70,88)           113.4996         estimate D2E/DX2                !
 ! A250  A(69,71,72)           122.2292         estimate D2E/DX2                !
 ! A251  A(69,71,73)           109.7693         estimate D2E/DX2                !
 ! A252  A(72,71,73)           119.8335         estimate D2E/DX2                !
 ! A253  A(70,72,71)           123.3813         estimate D2E/DX2                !
 ! A254  A(70,72,74)           109.8283         estimate D2E/DX2                !
 ! A255  A(71,72,74)           118.5023         estimate D2E/DX2                !
 ! A256  A(33,73,71)           107.8699         estimate D2E/DX2                !
 ! A257  A(33,73,75)           119.6357         estimate D2E/DX2                !
 ! A258  A(71,73,75)           122.2676         estimate D2E/DX2                !
 ! A259  A(34,74,72)           109.5575         estimate D2E/DX2                !
 ! A260  A(34,74,76)           119.0069         estimate D2E/DX2                !
 ! A261  A(72,74,76)           121.2697         estimate D2E/DX2                !
 ! A262  A(73,75,76)           117.8585         estimate D2E/DX2                !
 ! A263  A(73,75,77)           122.4511         estimate D2E/DX2                !
 ! A264  A(76,75,77)           110.6078         estimate D2E/DX2                !
 ! A265  A(74,76,75)           119.7885         estimate D2E/DX2                !
 ! A266  A(74,76,78)           120.0774         estimate D2E/DX2                !
 ! A267  A(75,76,78)           109.6477         estimate D2E/DX2                !
 ! A268  A(37,77,75)           113.0767         estimate D2E/DX2                !
 ! A269  A(37,77,81)           110.0094         estimate D2E/DX2                !
 ! A270  A(37,77,94)           108.4422         estimate D2E/DX2                !
 ! A271  A(75,77,81)           101.3852         estimate D2E/DX2                !
 ! A272  A(75,77,94)           111.9696         estimate D2E/DX2                !
 ! A273  A(81,77,94)           111.8767         estimate D2E/DX2                !
 ! A274  A(38,78,76)           121.7093         estimate D2E/DX2                !
 ! A275  A(38,78,81)           121.2243         estimate D2E/DX2                !
 ! A276  A(76,78,81)           107.2681         estimate D2E/DX2                !
 ! A277  A(39,79,40)           107.9075         estimate D2E/DX2                !
 ! A278  A(39,79,82)           111.696          estimate D2E/DX2                !
 ! A279  A(39,79,93)           110.846          estimate D2E/DX2                !
 ! A280  A(40,79,82)           100.1777         estimate D2E/DX2                !
 ! A281  A(40,79,93)           112.3283         estimate D2E/DX2                !
 ! A282  A(82,79,93)           113.3506         estimate D2E/DX2                !
 ! A283  A(41,80,42)           109.3629         estimate D2E/DX2                !
 ! A284  A(41,80,82)           100.2397         estimate D2E/DX2                !
 ! A285  A(41,80,98)           111.2833         estimate D2E/DX2                !
 ! A286  A(42,80,82)           113.8125         estimate D2E/DX2                !
 ! A287  A(42,80,98)           109.9792         estimate D2E/DX2                !
 ! A288  A(82,80,98)           111.8158         estimate D2E/DX2                !
 ! A289  A(77,81,78)           110.4749         estimate D2E/DX2                !
 ! A290  A(77,81,82)           122.9453         estimate D2E/DX2                !
 ! A291  A(78,81,82)           121.9072         estimate D2E/DX2                !
 ! A292  A(79,82,80)           112.2809         estimate D2E/DX2                !
 ! A293  A(79,82,81)           121.6733         estimate D2E/DX2                !
 ! A294  A(80,82,81)           120.9272         estimate D2E/DX2                !
 ! A295  A(55,83,57)           122.0687         estimate D2E/DX2                !
 ! A296  A(55,83,84)           117.1556         estimate D2E/DX2                !
 ! A297  A(57,83,84)           119.5048         estimate D2E/DX2                !
 ! A298  A(56,84,58)           115.6592         estimate D2E/DX2                !
 ! A299  A(56,84,83)           121.0424         estimate D2E/DX2                !
 ! A300  A(58,84,83)           118.5856         estimate D2E/DX2                !
 ! D1    D(17,1,5,9)            21.7085         estimate D2E/DX2                !
 ! D2    D(17,1,5,29)         -144.9325         estimate D2E/DX2                !
 ! D3    D(23,1,5,9)           133.9628         estimate D2E/DX2                !
 ! D4    D(23,1,5,29)          -32.6782         estimate D2E/DX2                !
 ! D5    D(86,1,5,9)          -102.7701         estimate D2E/DX2                !
 ! D6    D(86,1,5,29)           90.5889         estimate D2E/DX2                !
 ! D7    D(5,1,17,15)          -23.562          estimate D2E/DX2                !
 ! D8    D(5,1,17,19)          127.9556         estimate D2E/DX2                !
 ! D9    D(23,1,17,15)        -142.3443         estimate D2E/DX2                !
 ! D10   D(23,1,17,19)           9.1733         estimate D2E/DX2                !
 ! D11   D(86,1,17,15)          98.9274         estimate D2E/DX2                !
 ! D12   D(86,1,17,19)        -109.555          estimate D2E/DX2                !
 ! D13   D(5,1,23,21)         -134.0241         estimate D2E/DX2                !
 ! D14   D(5,1,23,25)           28.5508         estimate D2E/DX2                !
 ! D15   D(17,1,23,21)         -14.3838         estimate D2E/DX2                !
 ! D16   D(17,1,23,25)         148.1911         estimate D2E/DX2                !
 ! D17   D(86,1,23,21)         104.5815         estimate D2E/DX2                !
 ! D18   D(86,1,23,25)         -92.8435         estimate D2E/DX2                !
 ! D19   D(43,2,6,10)         -137.4898         estimate D2E/DX2                !
 ! D20   D(43,2,6,15)           10.9587         estimate D2E/DX2                !
 ! D21   D(44,2,6,10)          -22.9809         estimate D2E/DX2                !
 ! D22   D(44,2,6,15)          125.4676         estimate D2E/DX2                !
 ! D23   D(90,2,6,10)          100.9755         estimate D2E/DX2                !
 ! D24   D(90,2,6,15)         -110.576          estimate D2E/DX2                !
 ! D25   D(6,2,43,13)           -8.3957         estimate D2E/DX2                !
 ! D26   D(6,2,43,39)          148.6426         estimate D2E/DX2                !
 ! D27   D(44,2,43,13)        -124.2106         estimate D2E/DX2                !
 ! D28   D(44,2,43,39)          32.8277         estimate D2E/DX2                !
 ! D29   D(90,2,43,13)         113.0789         estimate D2E/DX2                !
 ! D30   D(90,2,43,39)         -89.8828         estimate D2E/DX2                !
 ! D31   D(6,2,44,40)         -147.2405         estimate D2E/DX2                !
 ! D32   D(6,2,44,47)           20.3313         estimate D2E/DX2                !
 ! D33   D(43,2,44,40)         -37.159          estimate D2E/DX2                !
 ! D34   D(43,2,44,47)         130.4128         estimate D2E/DX2                !
 ! D35   D(90,2,44,40)          87.2406         estimate D2E/DX2                !
 ! D36   D(90,2,44,47)        -105.1876         estimate D2E/DX2                !
 ! D37   D(18,3,7,12)            3.6384         estimate D2E/DX2                !
 ! D38   D(18,3,7,30)          151.8333         estimate D2E/DX2                !
 ! D39   D(26,3,7,12)         -145.6494         estimate D2E/DX2                !
 ! D40   D(26,3,7,30)            2.5456         estimate D2E/DX2                !
 ! D41   D(7,3,18,16)            5.8835         estimate D2E/DX2                !
 ! D42   D(7,3,18,20)         -144.1083         estimate D2E/DX2                !
 ! D43   D(26,3,18,16)         151.0047         estimate D2E/DX2                !
 ! D44   D(26,3,18,20)           1.013          estimate D2E/DX2                !
 ! D45   D(7,3,26,24)          146.6343         estimate D2E/DX2                !
 ! D46   D(7,3,26,28)           -4.5012         estimate D2E/DX2                !
 ! D47   D(18,3,26,24)          -2.4788         estimate D2E/DX2                !
 ! D48   D(18,3,26,28)        -153.6143         estimate D2E/DX2                !
 ! D49   D(45,4,8,11)           25.0477         estimate D2E/DX2                !
 ! D50   D(45,4,8,16)         -125.1647         estimate D2E/DX2                !
 ! D51   D(46,4,8,11)          140.8983         estimate D2E/DX2                !
 ! D52   D(46,4,8,16)           -9.3141         estimate D2E/DX2                !
 ! D53   D(95,4,8,11)          -98.5129         estimate D2E/DX2                !
 ! D54   D(95,4,8,16)          111.2747         estimate D2E/DX2                !
 ! D55   D(8,4,45,41)          144.2142         estimate D2E/DX2                !
 ! D56   D(8,4,45,48)          -23.2362         estimate D2E/DX2                !
 ! D57   D(46,4,45,41)          33.5123         estimate D2E/DX2                !
 ! D58   D(46,4,45,48)        -133.9381         estimate D2E/DX2                !
 ! D59   D(95,4,45,41)         -90.2775         estimate D2E/DX2                !
 ! D60   D(95,4,45,48)         102.2721         estimate D2E/DX2                !
 ! D61   D(8,4,46,14)           10.5168         estimate D2E/DX2                !
 ! D62   D(8,4,46,42)         -145.4673         estimate D2E/DX2                !
 ! D63   D(45,4,46,14)         126.6411         estimate D2E/DX2                !
 ! D64   D(45,4,46,42)         -29.3429         estimate D2E/DX2                !
 ! D65   D(95,4,46,14)        -110.8796         estimate D2E/DX2                !
 ! D66   D(95,4,46,42)          93.1364         estimate D2E/DX2                !
 ! D67   D(1,5,9,13)            -9.5658         estimate D2E/DX2                !
 ! D68   D(1,5,9,35)          -168.1462         estimate D2E/DX2                !
 ! D69   D(29,5,9,13)          156.9091         estimate D2E/DX2                !
 ! D70   D(29,5,9,35)           -1.6713         estimate D2E/DX2                !
 ! D71   D(1,5,29,27)           10.5093         estimate D2E/DX2                !
 ! D72   D(1,5,29,31)          174.3836         estimate D2E/DX2                !
 ! D73   D(9,5,29,27)         -156.2637         estimate D2E/DX2                !
 ! D74   D(9,5,29,31)            7.6106         estimate D2E/DX2                !
 ! D75   D(2,6,10,49)           -1.4343         estimate D2E/DX2                !
 ! D76   D(2,6,10,53)          148.5002         estimate D2E/DX2                !
 ! D77   D(15,6,10,49)        -147.194          estimate D2E/DX2                !
 ! D78   D(15,6,10,53)           2.7405         estimate D2E/DX2                !
 ! D79   D(2,6,15,13)           -9.8558         estimate D2E/DX2                !
 ! D80   D(2,6,15,17)         -155.2139         estimate D2E/DX2                !
 ! D81   D(10,6,15,13)         140.0471         estimate D2E/DX2                !
 ! D82   D(10,6,15,17)          -5.311          estimate D2E/DX2                !
 ! D83   D(3,7,12,14)           -9.1159         estimate D2E/DX2                !
 ! D84   D(3,7,12,36)          144.452          estimate D2E/DX2                !
 ! D85   D(30,7,12,14)        -153.2277         estimate D2E/DX2                !
 ! D86   D(30,7,12,36)           0.3402         estimate D2E/DX2                !
 ! D87   D(3,7,30,28)            0.3347         estimate D2E/DX2                !
 ! D88   D(3,7,30,32)         -150.8964         estimate D2E/DX2                !
 ! D89   D(12,7,30,28)         148.5089         estimate D2E/DX2                !
 ! D90   D(12,7,30,32)          -2.7222         estimate D2E/DX2                !
 ! D91   D(4,8,11,50)            1.2645         estimate D2E/DX2                !
 ! D92   D(4,8,11,54)         -146.1373         estimate D2E/DX2                !
 ! D93   D(16,8,11,50)         148.5744         estimate D2E/DX2                !
 ! D94   D(16,8,11,54)           1.1726         estimate D2E/DX2                !
 ! D95   D(4,8,16,14)            4.9601         estimate D2E/DX2                !
 ! D96   D(4,8,16,18)          153.2532         estimate D2E/DX2                !
 ! D97   D(11,8,16,14)        -145.8981         estimate D2E/DX2                !
 ! D98   D(11,8,16,18)           2.395          estimate D2E/DX2                !
 ! D99   D(5,9,13,15)           -2.9618         estimate D2E/DX2                !
 ! D100  D(5,9,13,43)         -147.4336         estimate D2E/DX2                !
 ! D101  D(35,9,13,15)         156.637          estimate D2E/DX2                !
 ! D102  D(35,9,13,43)          12.1652         estimate D2E/DX2                !
 ! D103  D(5,9,35,33)           -8.0638         estimate D2E/DX2                !
 ! D104  D(5,9,35,37)          151.321          estimate D2E/DX2                !
 ! D105  D(13,9,35,33)        -167.3341         estimate D2E/DX2                !
 ! D106  D(13,9,35,37)          -7.9493         estimate D2E/DX2                !
 ! D107  D(6,10,49,47)          27.9854         estimate D2E/DX2                !
 ! D108  D(6,10,49,51)         144.6222         estimate D2E/DX2                !
 ! D109  D(6,10,49,91)         -93.7791         estimate D2E/DX2                !
 ! D110  D(53,10,49,47)       -124.0716         estimate D2E/DX2                !
 ! D111  D(53,10,49,51)         -7.4348         estimate D2E/DX2                !
 ! D112  D(53,10,49,91)        114.1638         estimate D2E/DX2                !
 ! D113  D(6,10,53,19)           0.3294         estimate D2E/DX2                !
 ! D114  D(6,10,53,55)        -153.0076         estimate D2E/DX2                !
 ! D115  D(49,10,53,19)        153.2491         estimate D2E/DX2                !
 ! D116  D(49,10,53,55)         -0.0879         estimate D2E/DX2                !
 ! D117  D(8,11,50,48)         -29.4296         estimate D2E/DX2                !
 ! D118  D(8,11,50,52)        -145.1936         estimate D2E/DX2                !
 ! D119  D(8,11,50,92)          93.3631         estimate D2E/DX2                !
 ! D120  D(54,11,50,48)        120.5252         estimate D2E/DX2                !
 ! D121  D(54,11,50,52)          4.7612         estimate D2E/DX2                !
 ! D122  D(54,11,50,92)       -116.6822         estimate D2E/DX2                !
 ! D123  D(8,11,54,20)          -3.1592         estimate D2E/DX2                !
 ! D124  D(8,11,54,56)         147.1979         estimate D2E/DX2                !
 ! D125  D(50,11,54,20)       -154.2902         estimate D2E/DX2                !
 ! D126  D(50,11,54,56)         -3.9331         estimate D2E/DX2                !
 ! D127  D(7,12,14,16)           5.2993         estimate D2E/DX2                !
 ! D128  D(7,12,14,46)         152.5699         estimate D2E/DX2                !
 ! D129  D(36,12,14,16)       -148.5393         estimate D2E/DX2                !
 ! D130  D(36,12,14,46)         -1.2687         estimate D2E/DX2                !
 ! D131  D(7,12,36,34)           4.5351         estimate D2E/DX2                !
 ! D132  D(7,12,36,38)        -149.9736         estimate D2E/DX2                !
 ! D133  D(14,12,36,34)        157.4095         estimate D2E/DX2                !
 ! D134  D(14,12,36,38)          2.9008         estimate D2E/DX2                !
 ! D135  D(9,13,15,6)         -144.3562         estimate D2E/DX2                !
 ! D136  D(9,13,15,17)           1.489          estimate D2E/DX2                !
 ! D137  D(43,13,15,6)           4.2005         estimate D2E/DX2                !
 ! D138  D(43,13,15,17)        150.0456         estimate D2E/DX2                !
 ! D139  D(9,13,43,2)          151.2786         estimate D2E/DX2                !
 ! D140  D(9,13,43,39)          -6.6753         estimate D2E/DX2                !
 ! D141  D(15,13,43,2)           3.027          estimate D2E/DX2                !
 ! D142  D(15,13,43,39)       -154.9269         estimate D2E/DX2                !
 ! D143  D(12,14,16,8)         152.7705         estimate D2E/DX2                !
 ! D144  D(12,14,16,18)          4.2294         estimate D2E/DX2                !
 ! D145  D(46,14,16,8)           2.1072         estimate D2E/DX2                !
 ! D146  D(46,14,16,18)       -146.4339         estimate D2E/DX2                !
 ! D147  D(12,14,46,4)        -159.2846         estimate D2E/DX2                !
 ! D148  D(12,14,46,42)         -2.1205         estimate D2E/DX2                !
 ! D149  D(16,14,46,4)          -8.2734         estimate D2E/DX2                !
 ! D150  D(16,14,46,42)        148.8907         estimate D2E/DX2                !
 ! D151  D(6,15,17,1)          154.3375         estimate D2E/DX2                !
 ! D152  D(6,15,17,19)           4.6634         estimate D2E/DX2                !
 ! D153  D(13,15,17,1)          12.9147         estimate D2E/DX2                !
 ! D154  D(13,15,17,19)       -136.7594         estimate D2E/DX2                !
 ! D155  D(8,16,18,3)         -154.064          estimate D2E/DX2                !
 ! D156  D(8,16,18,20)          -3.9017         estimate D2E/DX2                !
 ! D157  D(14,16,18,3)          -9.7044         estimate D2E/DX2                !
 ! D158  D(14,16,18,20)        140.4579         estimate D2E/DX2                !
 ! D159  D(1,17,19,21)          -1.0021         estimate D2E/DX2                !
 ! D160  D(1,17,19,53)        -153.8408         estimate D2E/DX2                !
 ! D161  D(15,17,19,21)        151.3497         estimate D2E/DX2                !
 ! D162  D(15,17,19,53)         -1.489          estimate D2E/DX2                !
 ! D163  D(3,18,20,22)           2.0286         estimate D2E/DX2                !
 ! D164  D(3,18,20,54)         151.4089         estimate D2E/DX2                !
 ! D165  D(16,18,20,22)       -147.498          estimate D2E/DX2                !
 ! D166  D(16,18,20,54)          1.8823         estimate D2E/DX2                !
 ! D167  D(17,19,21,23)         -7.6676         estimate D2E/DX2                !
 ! D168  D(17,19,21,57)       -125.5959         estimate D2E/DX2                !
 ! D169  D(17,19,21,99)        111.9968         estimate D2E/DX2                !
 ! D170  D(53,19,21,23)        144.1591         estimate D2E/DX2                !
 ! D171  D(53,19,21,57)         26.2308         estimate D2E/DX2                !
 ! D172  D(53,19,21,99)        -96.1766         estimate D2E/DX2                !
 ! D173  D(17,19,53,10)         -0.9902         estimate D2E/DX2                !
 ! D174  D(17,19,53,55)        149.7199         estimate D2E/DX2                !
 ! D175  D(21,19,53,10)       -150.5315         estimate D2E/DX2                !
 ! D176  D(21,19,53,55)          0.1786         estimate D2E/DX2                !
 ! D177  D(18,20,22,24)         -3.7717         estimate D2E/DX2                !
 ! D178  D(18,20,22,58)        139.4945         estimate D2E/DX2                !
 ! D179  D(54,20,22,24)       -153.9694         estimate D2E/DX2                !
 ! D180  D(54,20,22,58)        -10.7032         estimate D2E/DX2                !
 ! D181  D(18,20,54,11)          1.5711         estimate D2E/DX2                !
 ! D182  D(18,20,54,56)       -144.8565         estimate D2E/DX2                !
 ! D183  D(22,20,54,11)        151.4525         estimate D2E/DX2                !
 ! D184  D(22,20,54,56)          5.0249         estimate D2E/DX2                !
 ! D185  D(19,21,23,1)          13.9402         estimate D2E/DX2                !
 ! D186  D(19,21,23,25)       -148.4823         estimate D2E/DX2                !
 ! D187  D(57,21,23,1)         131.5575         estimate D2E/DX2                !
 ! D188  D(57,21,23,25)        -30.8651         estimate D2E/DX2                !
 ! D189  D(99,21,23,1)        -106.6793         estimate D2E/DX2                !
 ! D190  D(99,21,23,25)         90.8982         estimate D2E/DX2                !
 ! D191  D(19,21,57,59)        143.5149         estimate D2E/DX2                !
 ! D192  D(19,21,57,83)        -26.3776         estimate D2E/DX2                !
 ! D193  D(23,21,57,59)         31.8659         estimate D2E/DX2                !
 ! D194  D(23,21,57,83)       -138.0266         estimate D2E/DX2                !
 ! D195  D(99,21,57,59)        -91.6039         estimate D2E/DX2                !
 ! D196  D(99,21,57,83)         98.5036         estimate D2E/DX2                !
 ! D197  D(20,22,24,26)          2.3712         estimate D2E/DX2                !
 ! D198  D(20,22,24,62)        152.2574         estimate D2E/DX2                !
 ! D199  D(58,22,24,26)       -144.8146         estimate D2E/DX2                !
 ! D200  D(58,22,24,62)          5.0716         estimate D2E/DX2                !
 ! D201  D(20,22,58,60)       -146.2013         estimate D2E/DX2                !
 ! D202  D(20,22,58,84)          5.4606         estimate D2E/DX2                !
 ! D203  D(24,22,58,60)          1.7793         estimate D2E/DX2                !
 ! D204  D(24,22,58,84)        153.4413         estimate D2E/DX2                !
 ! D205  D(1,23,25,27)          -0.76           estimate D2E/DX2                !
 ! D206  D(1,23,25,61)        -157.0061         estimate D2E/DX2                !
 ! D207  D(21,23,25,27)        160.0112         estimate D2E/DX2                !
 ! D208  D(21,23,25,61)          3.7652         estimate D2E/DX2                !
 ! D209  D(22,24,26,3)           0.7967         estimate D2E/DX2                !
 ! D210  D(22,24,26,28)        148.3378         estimate D2E/DX2                !
 ! D211  D(62,24,26,3)        -145.4944         estimate D2E/DX2                !
 ! D212  D(62,24,26,28)          2.0467         estimate D2E/DX2                !
 ! D213  D(22,24,62,60)         -9.1548         estimate D2E/DX2                !
 ! D214  D(22,24,62,64)       -124.1314         estimate D2E/DX2                !
 ! D215  D(22,24,62,96)        111.9315         estimate D2E/DX2                !
 ! D216  D(26,24,62,60)        139.892          estimate D2E/DX2                !
 ! D217  D(26,24,62,64)         24.9154         estimate D2E/DX2                !
 ! D218  D(26,24,62,96)        -99.0216         estimate D2E/DX2                !
 ! D219  D(23,25,27,29)        -22.5867         estimate D2E/DX2                !
 ! D220  D(23,25,27,65)       -137.0183         estimate D2E/DX2                !
 ! D221  D(23,25,27,85)        103.1481         estimate D2E/DX2                !
 ! D222  D(61,25,27,29)        135.8643         estimate D2E/DX2                !
 ! D223  D(61,25,27,65)         21.4327         estimate D2E/DX2                !
 ! D224  D(61,25,27,85)        -98.4009         estimate D2E/DX2                !
 ! D225  D(23,25,61,59)         21.4085         estimate D2E/DX2                !
 ! D226  D(23,25,61,63)        136.6137         estimate D2E/DX2                !
 ! D227  D(23,25,61,97)       -104.2655         estimate D2E/DX2                !
 ! D228  D(27,25,61,59)       -137.0634         estimate D2E/DX2                !
 ! D229  D(27,25,61,63)        -21.8582         estimate D2E/DX2                !
 ! D230  D(27,25,61,97)         97.2626         estimate D2E/DX2                !
 ! D231  D(3,26,28,30)           4.3985         estimate D2E/DX2                !
 ! D232  D(3,26,28,66)         119.514          estimate D2E/DX2                !
 ! D233  D(3,26,28,89)        -118.0445         estimate D2E/DX2                !
 ! D234  D(24,26,28,30)       -145.5396         estimate D2E/DX2                !
 ! D235  D(24,26,28,66)        -30.4241         estimate D2E/DX2                !
 ! D236  D(24,26,28,89)         92.0175         estimate D2E/DX2                !
 ! D237  D(25,27,29,5)          17.2294         estimate D2E/DX2                !
 ! D238  D(25,27,29,31)       -147.0949         estimate D2E/DX2                !
 ! D239  D(65,27,29,5)         126.9444         estimate D2E/DX2                !
 ! D240  D(65,27,29,31)        -37.3799         estimate D2E/DX2                !
 ! D241  D(85,27,29,5)        -109.161          estimate D2E/DX2                !
 ! D242  D(85,27,29,31)         86.5147         estimate D2E/DX2                !
 ! D243  D(25,27,65,63)        -12.1277         estimate D2E/DX2                !
 ! D244  D(25,27,65,67)        150.6154         estimate D2E/DX2                !
 ! D245  D(29,27,65,63)       -129.5733         estimate D2E/DX2                !
 ! D246  D(29,27,65,67)         33.1698         estimate D2E/DX2                !
 ! D247  D(85,27,65,63)        107.4643         estimate D2E/DX2                !
 ! D248  D(85,27,65,67)        -89.7926         estimate D2E/DX2                !
 ! D249  D(26,28,30,7)          -2.8272         estimate D2E/DX2                !
 ! D250  D(26,28,30,32)        147.3583         estimate D2E/DX2                !
 ! D251  D(66,28,30,7)        -118.6472         estimate D2E/DX2                !
 ! D252  D(66,28,30,32)         31.5382         estimate D2E/DX2                !
 ! D253  D(89,28,30,7)         119.1256         estimate D2E/DX2                !
 ! D254  D(89,28,30,32)        -90.689          estimate D2E/DX2                !
 ! D255  D(26,28,66,64)         30.9343         estimate D2E/DX2                !
 ! D256  D(26,28,66,68)       -140.0912         estimate D2E/DX2                !
 ! D257  D(30,28,66,64)        140.839          estimate D2E/DX2                !
 ! D258  D(30,28,66,68)        -30.1866         estimate D2E/DX2                !
 ! D259  D(89,28,66,64)        -93.9901         estimate D2E/DX2                !
 ! D260  D(89,28,66,68)         94.9844         estimate D2E/DX2                !
 ! D261  D(5,29,31,33)          -3.5574         estimate D2E/DX2                !
 ! D262  D(5,29,31,69)        -158.9599         estimate D2E/DX2                !
 ! D263  D(27,29,31,33)        161.2867         estimate D2E/DX2                !
 ! D264  D(27,29,31,69)          5.8843         estimate D2E/DX2                !
 ! D265  D(7,30,32,34)           0.0056         estimate D2E/DX2                !
[...]
 Alpha virt. eigenvalues --    1.56401   1.57329   1.57477   1.58537   1.59026
 Alpha virt. eigenvalues --    1.59334   1.59633   1.60130   1.60552   1.60840
 Alpha virt. eigenvalues --    1.61587   1.61823   1.61895   1.62213   1.62601
 Alpha virt. eigenvalues --    1.62715   1.63389   1.63437   1.63529   1.63624
 Alpha virt. eigenvalues --    1.63825   1.64296   1.64421   1.64497   1.64749
 Alpha virt. eigenvalues --    1.64905   1.65257   1.65914   1.66173   1.66216
 Alpha virt. eigenvalues --    1.66440   1.66778   1.67099   1.67157   1.67411
 Alpha virt. eigenvalues --    1.67540   1.68087   1.68229   1.68354   1.68576
 Alpha virt. eigenvalues --    1.68808   1.68854   1.69200   1.69458   1.69534
 Alpha virt. eigenvalues --    1.69813   1.70122   1.70459   1.70668   1.70685
 Alpha virt. eigenvalues --    1.70932   1.71081   1.71485   1.71887   1.72007
 Alpha virt. eigenvalues --    1.72149   1.72371   1.72708   1.72898   1.73133
 Alpha virt. eigenvalues --    1.73325   1.73534   1.73955   1.74226   1.74603
 Alpha virt. eigenvalues --    1.74665   1.74778   1.75081   1.75319   1.75574
 Alpha virt. eigenvalues --    1.75724   1.75806   1.75943   1.76252   1.76342
 Alpha virt. eigenvalues --    1.76662   1.76783   1.77206   1.77330   1.77442
 Alpha virt. eigenvalues --    1.77632   1.77920   1.78236   1.78254   1.78657
 Alpha virt. eigenvalues --    1.78818   1.78847   1.79070   1.79270   1.79656
 Alpha virt. eigenvalues --    1.80035   1.80387   1.80599   1.80798   1.81151
 Alpha virt. eigenvalues --    1.81318   1.81464   1.81570   1.82143   1.82203
 Alpha virt. eigenvalues --    1.82570   1.82775   1.82973   1.83411   1.83533
 Alpha virt. eigenvalues --    1.83786   1.84024   1.84378   1.84582   1.85063
 Alpha virt. eigenvalues --    1.85785   1.86076   1.86140   1.86472   1.86777
 Alpha virt. eigenvalues --    1.87082   1.87420   1.87664   1.87792   1.88123
 Alpha virt. eigenvalues --    1.88425   1.88889   1.89283   1.89520   1.89833
 Alpha virt. eigenvalues --    1.89956   1.90057   1.90720   1.90914   1.91714
 Alpha virt. eigenvalues --    1.91830   1.91994   1.92362   1.93008   1.93399
 Alpha virt. eigenvalues --    1.93727   1.94008   1.94205   1.94452   1.95089
 Alpha virt. eigenvalues --    1.95353   1.95947   1.96151   1.96656   1.96990
 Alpha virt. eigenvalues --    1.97074   1.97594   1.97937   1.98019   1.98429
 Alpha virt. eigenvalues --    1.98624   1.98767   1.99365   2.00122   2.00200
 Alpha virt. eigenvalues --    2.00566   2.00823   2.01060   2.01444   2.01873
 Alpha virt. eigenvalues --    2.02205   2.02486   2.02788   2.02916   2.03596
 Alpha virt. eigenvalues --    2.03744   2.04058   2.04555   2.04700   2.05215
 Alpha virt. eigenvalues --    2.05597   2.06209   2.06581   2.06824   2.06955
 Alpha virt. eigenvalues --    2.07610   2.07873   2.08166   2.08634   2.08963
 Alpha virt. eigenvalues --    2.09480   2.09624   2.10139   2.10718   2.11049
 Alpha virt. eigenvalues --    2.11705   2.11766   2.12155   2.12417   2.12674
 Alpha virt. eigenvalues --    2.12739   2.13438   2.13880   2.13992   2.14127
 Alpha virt. eigenvalues --    2.15012   2.15122   2.15653   2.15872   2.16378
 Alpha virt. eigenvalues --    2.17040   2.17740   2.17884   2.18361   2.18544
 Alpha virt. eigenvalues --    2.18818   2.18957   2.19255   2.19454   2.19974
 Alpha virt. eigenvalues --    2.20440   2.20852   2.21360   2.21536   2.22173
 Alpha virt. eigenvalues --    2.22510   2.22581   2.23043   2.23417   2.23794
 Alpha virt. eigenvalues --    2.24589   2.24705   2.24858   2.25310   2.25965
 Alpha virt. eigenvalues --    2.26144   2.26553   2.27268   2.27625   2.27966
 Alpha virt. eigenvalues --    2.28654   2.28964   2.29249   2.29660   2.30227
 Alpha virt. eigenvalues --    2.30508   2.30669   2.31391   2.31686   2.32193
 Alpha virt. eigenvalues --    2.32915   2.33044   2.33740   2.34059   2.35509
 Alpha virt. eigenvalues --    2.35792   2.36012   2.36040   2.37057   2.37524
 Alpha virt. eigenvalues --    2.38052   2.38590   2.38886   2.39140   2.39860
 Alpha virt. eigenvalues --    2.40160   2.40537   2.41219   2.41862   2.42218
 Alpha virt. eigenvalues --    2.42485   2.42753   2.43762   2.44437   2.44613
 Alpha virt. eigenvalues --    2.45041   2.45493   2.46096   2.46452   2.46882
 Alpha virt. eigenvalues --    2.47355   2.47930   2.48093   2.48320   2.49655
 Alpha virt. eigenvalues --    2.49760   2.50276   2.50588   2.51361   2.51474
 Alpha virt. eigenvalues --    2.51998   2.52366   2.52607   2.53165   2.53631
 Alpha virt. eigenvalues --    2.53829   2.53961   2.54208   2.55009   2.55586
 Alpha virt. eigenvalues --    2.55725   2.56051   2.56120   2.56596   2.57150
 Alpha virt. eigenvalues --    2.57448   2.57692   2.58043   2.58493   2.58830
 Alpha virt. eigenvalues --    2.59152   2.59743   2.60198   2.60643   2.60750
 Alpha virt. eigenvalues --    2.61148   2.61497   2.61679   2.61922   2.62110
 Alpha virt. eigenvalues --    2.62300   2.62601   2.63242   2.63783   2.64052
 Alpha virt. eigenvalues --    2.64311   2.64646   2.64879   2.65215   2.65766
 Alpha virt. eigenvalues --    2.65996   2.66768   2.66802   2.67744   2.67899
 Alpha virt. eigenvalues --    2.68198   2.68484   2.68723   2.68971   2.69455
 Alpha virt. eigenvalues --    2.69714   2.70067   2.70681   2.70835   2.71100
 Alpha virt. eigenvalues --    2.71542   2.71774   2.72096   2.72284   2.72994
 Alpha virt. eigenvalues --    2.73433   2.73639   2.74076   2.74201   2.74424
 Alpha virt. eigenvalues --    2.74661   2.75059   2.75822   2.75931   2.76115
 Alpha virt. eigenvalues --    2.76303   2.76948   2.77331   2.78002   2.78544
 Alpha virt. eigenvalues --    2.78887   2.79383   2.79736   2.80207   2.80592
 Alpha virt. eigenvalues --    2.81174   2.81617   2.82149   2.82761   2.82865
 Alpha virt. eigenvalues --    2.83379   2.83504   2.84746   2.85139   2.85521
 Alpha virt. eigenvalues --    2.86088   2.86547   2.87149   2.87344   2.87703
 Alpha virt. eigenvalues --    2.88792   2.89224   2.89433   2.89630   2.90549
 Alpha virt. eigenvalues --    2.91366   2.91995   2.92677   2.93242   2.93575
 Alpha virt. eigenvalues --    2.94187   2.94654   2.95837   2.96450   2.96700
 Alpha virt. eigenvalues --    2.97595   2.98369   2.99490   3.00286   3.01566
 Alpha virt. eigenvalues --    3.02324   3.03140   3.05030   3.06700   3.08262
 Alpha virt. eigenvalues --    3.08599   3.10225   3.11315   3.12234   3.13306
 Alpha virt. eigenvalues --    3.14800   3.16183   3.16395   3.17529   3.18186
 Alpha virt. eigenvalues --    3.19402   3.20500   3.22112   3.22671   3.24517
 Alpha virt. eigenvalues --    3.25369   3.26952   3.27782   3.31042   3.33611
 Alpha virt. eigenvalues --    3.35309   3.38411   3.39820   3.40858   3.41210
 Alpha virt. eigenvalues --    3.41714   3.47727   3.48271   3.50999   3.52729
 Alpha virt. eigenvalues --    3.58341   4.00560   4.01584   4.02230   4.02898
 Alpha virt. eigenvalues --    4.03337   4.03985   4.05023   4.06045   4.06532
 Alpha virt. eigenvalues --    4.07082   4.07726   4.08356   4.08952   4.09127
 Alpha virt. eigenvalues --    4.10062   4.11163   4.11451   4.11925   4.12809
 Alpha virt. eigenvalues --    4.13695   4.14453   4.15328   4.15896   4.16886
 Alpha virt. eigenvalues --    4.18070   4.18476   4.18890   4.19434   4.19794
 Alpha virt. eigenvalues --    4.20958   4.21506   4.21959   4.22415   4.24456
 Alpha virt. eigenvalues --    4.24792   4.25130   4.25938   4.26082   4.26378
 Alpha virt. eigenvalues --    4.26942   4.27364   4.27555   4.28035   4.28312
 Alpha virt. eigenvalues --    4.28664   4.29237   4.30000   4.30612   4.30974
 Alpha virt. eigenvalues --    4.32511   4.33462   4.34077   4.35532   4.36008
 Alpha virt. eigenvalues --    4.37097   4.38343   4.39242   4.40043   4.40225
 Alpha virt. eigenvalues --    4.41621   4.41800   4.42373   4.42810   4.43299
 Alpha virt. eigenvalues --    4.44093   4.44696   4.46787   4.47654   4.48372
 Alpha virt. eigenvalues --    4.50893   4.52082   4.53835   4.54809   4.55268
 Alpha virt. eigenvalues --    4.56868   4.57377   4.58831   4.60121   4.63055
 Alpha virt. eigenvalues --    4.63803   4.64718   4.66621   4.67798   4.69972
 Alpha virt. eigenvalues --    4.76630   4.77639   4.79027   4.80854   4.81546
 Alpha virt. eigenvalues --    4.82766   4.85536   4.88899   4.93617   4.96463
 Alpha virt. eigenvalues --    4.98377   5.01441   5.04213   5.09387   5.15215
 Alpha virt. eigenvalues --    5.20669
          Condensed to atoms (all electrons):
 Mulliken charges:
               1
     1  C   -0.355817
     2  C   -0.390149
     3  C    0.008318
     4  C   -0.387557
     5  C    0.092763
     6  C    0.085398
     7  C    0.010337
     8  C    0.088650
     9  C    0.063933
    10  C    0.128210
    11  C    0.092850
    12  C    0.039357
    13  C   -0.015841
    14  C    0.009037
    15  C    0.035213
    16  C    0.010560
    17  C    0.100111
    18  C    0.044631
    19  C    0.127296
    20  C    0.045305
    21  C   -0.375043
    22  C    0.011671
    23  C    0.176848
    24  C    0.090504
    25  C    0.188132
    26  C    0.091548
    27  C   -0.378395
    28  C   -0.380647
    29  C    0.154217
    30  C    0.087715
    31  C    0.084664
    32  C    0.091763
    33  C   -0.013618
    34  C    0.008534
    35  C    0.057377
    36  C    0.041314
    37  C    0.095756
    38  C    0.064925
    39  C    0.154137
    40  C    0.115883
    41  C    0.114404
    42  C    0.119781
    43  C    0.087236
    44  C    0.144626
    45  C    0.147670
    46  C    0.078694
    47  C    0.121982
    48  C    0.124118
    49  C   -0.368242
    50  C   -0.385940
    51  C    0.151452
    52  C    0.114075
    53  C    0.115824
    54  C    0.013387
    55  C   -0.349775
    56  C   -0.009513
    57  C    0.121056
    58  C    0.010158
    59  C    0.150206
    60  C    0.078535
    61  C   -0.378549
    62  C   -0.388526
    63  C    0.114766
    64  C    0.144681
    65  C    0.117864
    66  C    0.125875
    67  C    0.143462
    68  C    0.120360
    69  C   -0.384599
    70  C   -0.379206
    71  C    0.087333
    72  C    0.097077
    73  C    0.040949
    74  C    0.012556
    75  C    0.069182
    76  C    0.022688
    77  C   -0.362644
    78  C   -0.022482
    79  C   -0.369318
    80  C   -0.362436
    81  C    0.112354
    82  C    0.160641
    83  C    0.104407
    84  C    0.072566
    85  Cl   0.033408
    86  Cl   0.007120
    87  Cl   0.023860
    88  Cl   0.023070
    89  Cl   0.025916
    90  Cl   0.031049
    91  Cl   0.018776
    92  Cl   0.026662
    93  Cl   0.023655
    94  Cl   0.001854
    95  Cl   0.027806
    96  Cl   0.028582
    97  Cl   0.028481
    98  Cl   0.001374
    99  Cl   0.025697
   100  Cl  -0.005937
 Sum of Mulliken charges =  -0.00000
 Mulliken charges with hydrogens summed into heavy atoms:
               1
     1  C   -0.355817
     2  C   -0.390149
     3  C    0.008318
     4  C   -0.387557
     5  C    0.092763
     6  C    0.085398
     7  C    0.010337
     8  C    0.088650
     9  C    0.063933
    10  C    0.128210
    11  C    0.092850
    12  C    0.039357
    13  C   -0.015841
    14  C    0.009037
    15  C    0.035213
    16  C    0.010560
    17  C    0.100111
    18  C    0.044631
    19  C    0.127296
    20  C    0.045305
    21  C   -0.375043
    22  C    0.011671
    23  C    0.176848
    24  C    0.090504
    25  C    0.188132
    26  C    0.091548
    27  C   -0.378395
    28  C   -0.380647
    29  C    0.154217
    30  C    0.087715
    31  C    0.084664
    32  C    0.091763
    33  C   -0.013618
    34  C    0.008534
    35  C    0.057377
    36  C    0.041314
    37  C    0.095756
    38  C    0.064925
    39  C    0.154137
    40  C    0.115883
    41  C    0.114404
    42  C    0.119781
    43  C    0.087236
    44  C    0.144626
    45  C    0.147670
    46  C    0.078694
    47  C    0.121982
    48  C    0.124118
    49  C   -0.368242
    50  C   -0.385940
    51  C    0.151452
    52  C    0.114075
    53  C    0.115824
    54  C    0.013387
    55  C   -0.349775
    56  C   -0.009513
    57  C    0.121056
    58  C    0.010158
    59  C    0.150206
    60  C    0.078535
    61  C   -0.378549
    62  C   -0.388526
    63  C    0.114766
    64  C    0.144681
    65  C    0.117864
    66  C    0.125875
    67  C    0.143462
    68  C    0.120360
    69  C   -0.384599
    70  C   -0.379206
    71  C    0.087333
    72  C    0.097077
    73  C    0.040949
    74  C    0.012556
    75  C    0.069182
    76  C    0.022688
    77  C   -0.362644
    78  C   -0.022482
    79  C   -0.369318
    80  C   -0.362436
    81  C    0.112354
    82  C    0.160641
    83  C    0.104407
    84  C    0.072566
    85  Cl   0.033408
    86  Cl   0.007120
    87  Cl   0.023860
    88  Cl   0.023070
    89  Cl   0.025916
    90  Cl   0.031049
    91  Cl   0.018776
    92  Cl   0.026662
    93  Cl   0.023655
    94  Cl   0.001854
    95  Cl   0.027806
    96  Cl   0.028582
    97  Cl   0.028481
    98  Cl   0.001374
    99  Cl   0.025697
   100  Cl  -0.005937
 Electronic spatial extent (au):  <R**2>=          71914.2012
 Charge=              0.0000 electrons
 Dipole moment (field-independent basis, Debye):
    X=              0.8083    Y=             -3.0161    Z=              3.0552  Tot=              4.3686
 Quadrupole moment (field-independent basis, Debye-Ang):
   XX=           -722.1028   YY=           -691.3461   ZZ=           -670.2369
   XY=             -5.6318   XZ=              0.8637   YZ=             -3.4986
 Traceless Quadrupole moment (field-independent basis, Debye-Ang):
   XX=            -27.5409   YY=              3.2158   ZZ=             24.3250
   XY=             -5.6318   XZ=              0.8637   YZ=             -3.4986
 Octapole moment (field-independent basis, Debye-Ang**2):
  XXX=             25.6643  YYY=            -59.2022  ZZZ=             26.4921  XYY=             24.6361
  XXY=             40.4813  XXZ=            -20.8786  XZZ=             -0.3559  YZZ=             23.7681
  YYZ=             20.5551  XYZ=             34.6827
 Hexadecapole moment (field-independent basis, Debye-Ang**3):
 XXXX=         -40502.7136 YYYY=         -33275.1688 ZZZZ=         -26822.4187 XXXY=             39.9075
 XXXZ=             -1.0952 YYYX=             61.9400 YYYZ=            -89.6463 ZZZX=            -15.6891
 ZZZY=             -7.1559 XXYY=         -12527.0979 XXZZ=         -11414.1221 YYZZ=         -10062.3920
 XXYZ=             -4.0713 YYXZ=             15.6296 ZZXY=            -40.1142
 N-N= 2.802632116365D+04 E-N=-8.094168510079D+04  KE= 1.051181428426D+04
 No NMR shielding tensors so no spin-rotation constants.
 Leave Link  601 at Wed Jun 29 13:06:25 2022, MaxMem=  1342177280 cpu:              27.9 elap:               1.4
 (Enter /home/mkliu/g16/l9999.exe)
 1\1\GINC-NODE03\FOpt\RB3LYP\6-31G(d,p)\C84Cl16\MKLIU\29-Jun-2022\0\\#P
  opt b3lyp/6-31G(d, p) empiricaldispersion=GD3\\force\\0,1\C,8.4335203
 269,18.6600502347,10.8180226328\C,12.5895718143,19.9860996524,8.887789
 2149\C,8.2476049038,26.8735564913,10.5275343972\C,12.4995643066,25.757
 6371227,8.9090417567\C,8.024421935,19.1710423525,9.4376516255\C,12.059
 2073288,19.5115350837,10.2200534971\C,7.9353408732,26.8515238513,9.133
 361501\C,11.8858525328,26.1803622803,10.2238723267\C,8.9973756236,19.2
 717208566,8.3765599289\C,12.3204059415,20.1623914536,11.407679204\C,12
 .1436640403,25.5294158854,11.3820246922\C,8.9497592395,26.6629065486,8
 .153479561\C,10.3733216538,19.0956336932,8.6760340654\C,10.2898638229,
 26.6967095905,8.6196573466\C,10.8207095378,18.8742282466,10.0441745759
 \C,10.6054391149,26.7935857525,9.9974228468\C,9.9041704381,18.80124512
 45,11.0763267442\C,9.5857148974,26.7788999836,10.9908630098\C,10.17704
 46141,19.450243783,12.2862095082\C,9.8401238774,26.0552428806,12.21431
 68888\C,8.9077207759,19.855806655,12.9868764877\C,8.746644806,25.44102
 56902,12.8572016998\C,7.8677219045,19.5214072234,11.9297870472\C,7.407
 4247183,25.5787851005,12.3832777189\C,6.7475130747,20.214099584,11.779
 8856874\C,7.1583005111,26.2860502813,11.2481594147\C,5.948537341,20.18
 743696,10.4997113155\C,6.0172130592,25.9458324163,10.3038122024\C,6.78
 54511798,19.7916328086,9.297347317\C,6.6263801104,26.307505591,8.96526
 7686\C,6.4421593888,20.3789379861,8.0656481115\C,6.3217174698,25.64038
 26691,7.825368154\C,7.346089901,20.4253142306,7.0097966551\C,7.3059003
 171,25.4821639555,6.7952160718\C,8.6916916705,19.9874698289,7.16826747
 34\C,8.6524802426,25.9131600904,6.9597356177\C,9.7384793157,20.6304669
 496,6.4160620714\C,9.7160355339,25.1652257757,6.3011217783\C,11.059030
 4904,20.5817154275,6.8719310507\C,12.7292733581,22.1848042358,7.755211
 8939\C,12.7205138788,23.5756353901,7.7574546742\C,11.0658863628,25.203
 4757259,6.8468071055\C,11.3679083317,19.7733345886,7.9784998649\C,12.9
 247957347,21.4649577283,8.9349295711\C,12.8896775711,24.2889990282,8.9
 398559602\C,11.3292633493,25.9769583347,7.9433391066\C,13.1447665694,2
 2.1657172807,10.140844976\C,13.1168170189,23.582733331,10.137311747\C,
 13.1830876926,21.3986945684,11.4749987627\C,13.0804780138,24.340393963
 5,11.4639905511\C,12.4867912949,22.1692640228,12.5708979394\C,12.40535
 03857,23.5020676581,12.5309894049\C,11.3696952489,20.1320043751,12.446
 4737171\C,11.1161314458,25.4233467464,12.3898778514\C,11.4756663569,21
 .3353014884,13.3344810347\C,11.2609360824,24.2028211536,13.0706240264\
 C,8.9129966797,21.3487868266,13.316871952\C,8.8848415571,24.1419649573
 ,13.4565295776\C,7.6747503017,22.0606837217,13.2118849848\C,7.67014492
 44,23.4355690243,13.3266456344\C,6.4321921405,21.4287702469,12.6115490
 836\C,6.5876084831,24.3682972984,12.7730331321\C,5.8515836332,22.34673
 79213,11.5463110917\C,5.9450460087,23.7369994058,11.5496635964\C,5.569
 5901428,21.6530240789,10.3752721569\C,5.7092690168,24.4415813867,10.35
 18469529\C,5.3569319831,22.3247317511,9.1706997494\C,5.404241549,23.73
 48286308,9.1585413977\C,5.3815299479,21.4775528392,7.9075181176\C,5.34
 20108659,24.4779668744,7.8146457724\C,5.9245648572,22.2576995811,6.734
 4849272\C,5.9057097282,23.6212557957,6.6930968379\C,7.0083363727,21.53
 78977293,6.1339838305\C,6.9884561734,24.308356728,6.0574323571\C,7.990
 7479024,22.1715074354,5.4205881099\C,8.0177776245,23.5972009878,5.4260
 608973\C,9.3896631932,21.6173269871,5.3070301081\C,9.363824509,24.0537
 250611,5.5122422253\C,12.0948037827,21.6293734909,6.4867177405\C,12.08
 26336467,24.1285584092,6.4955538946\C,10.2290610661,22.8828294199,5.43
 28503512\C,11.4689324979,22.8775017603,5.9271578928\C,10.1242040272,22
 .0346464727,13.4862591854\C,10.1218556023,23.4675444462,13.5186678424\
 Cl,4.475690169,19.093419217,10.6657299944\Cl,7.8994957789,16.888100222
 5,10.9880641615\Cl,3.7044956327,20.8084995994,7.5473972508\Cl,3.611984
 0126,25.0014458006,7.4788836043\Cl,4.5008660578,26.909775317,10.686261
 5211\Cl,14.0511650396,18.9997451271,8.3707491116\Cl,14.9380832112,20.9
 830554452,11.8792941462\Cl,14.7796077901,24.8431329027,11.9543122832\C
 l,13.3508157616,20.9088161483,5.3417642199\Cl,9.6401245983,20.80357803
 63,3.6585829645\Cl,13.9447115976,26.808187377,8.4689923546\Cl,5.315667
 4954,24.7809124646,14.0348332785\Cl,5.1946480664,21.0446022038,13.9252
 951597\Cl,13.3646839782,24.8232626807,5.3368864919\Cl,8.6287925748,18.
 8898244974,14.5351185962\Cl,12.1157049349,20.8898469035,15.0292112602\
 \Version=ES64L-G16RevA.03\State=1-A\HF=-10564.2366187\RMSD=5.005e-09\R
 MSF=1.808e-05\Dipole=-0.4550709,1.6089174,-0.3979396\Quadrupole=-17.57
 82681,16.7230918,0.8551763,-2.003759,8.3641699,5.6627433\PG=C01 [X(C84
 Cl16)]\\@


    THE DOUGHNUT CREED
 AS YOU RAMBLE ON THROUGH LIFE, BROTHER
 WHATEVER BE YOUR GOAL
 KEEP YOUR EYE UPON THE DOUGHNUT
 AND NOT UPON THE HOLE.
 Job cpu time:       1 days 13 hours 47 minutes 58.8 seconds.
 Elapsed time:       0 days  1 hours 34 minutes 37.9 seconds.
 File lengths (MBytes):  RWF=   1500 Int=      0 D2E=      0 Chk=    187 Scr=      1
 Normal termination of Gaussian 16 at Wed Jun 29 13:06:27 2022.
