 Entering Gaussian System, Link 0=g16
 Input=16_addons_C84_11_Cl22_rank_9.gjf
 Output=16_addons_C84_11_Cl22_rank_9.log
 Initial command:
 /home/mkliu/g16/l1.exe "/data/scratch/Gau-44026.inp" -scrdir="/data/scratch/"
 Entering Link 1 = /home/mkliu/g16/l1.exe PID=     44027.
  
 Copyright (c) 1988,1990,1992,1993,1995,1998,2003,2009,2016,
            Gaussian, Inc.  All Rights Reserved.
  
 This is part of the Gaussian(R) 16 program.  It is based on
 the Gaussian(R) 09 system (copyright 2009, Gaussian, Inc.),
 the Gaussian(R) 03 system (copyright 2003, Gaussian, Inc.),
 the Gaussian(R) 98 system (copyright 1998, Gaussian, Inc.),
 the Gaussian(R) 94 system (copyright 1995, Gaussian, Inc.),
 the Gaussian 92(TM) system (copyright 1992, Gaussian, Inc.),
 the Gaussian 90(TM) system (copyright 1990, Gaussian, Inc.),
 the Gaussian 88(TM) system (copyright 1988, Gaussian, Inc.),
 the Gaussian 86(TM) system (copyright 1986, Carnegie Mellon
 University), and the Gaussian 82(TM) system (copyright 1983,
 Carnegie Mellon University). Gaussian is a federally registered
 trademark of Gaussian, Inc.
  
 This software contains proprietary and confidential information,
 including trade secrets, belonging to Gaussian, Inc.
  
 This software is provided under written license and may be
 used, copied, transmitted, or stored only in accord with that
 written license.
  
 The following legend is applicable only to US Government
 contracts under FAR:
  
                    RESTRICTED RIGHTS LEGEND
  
 Use, reproduction and disclosure by the US Government is
 subject to restrictions as set forth in subparagraphs (a)
 and (c) of the Commercial Computer Software - Restricted
 Rights clause in FAR 52.227-19.
  
 Gaussian, Inc.
 340 Quinnipiac St., Bldg. 40, Wallingford CT 06492
  
  
 ---------------------------------------------------------------
 Warning -- This program may not be used in any manner that
 competes with the business of Gaussian, Inc. or will provide
 assistance to any competitor of Gaussian, Inc.  The licensee
 of this program is prohibited from giving any competitor of
 Gaussian, Inc. access to this program.  By using this program,
 the user acknowledges that Gaussian, Inc. is engaged in the
 business of creating and licensing software in the field of
 computational chemistry and represents and warrants to the
 licensee that it is not a competitor of Gaussian, Inc. and that
 it will not use this program in any manner prohibited above.
 ---------------------------------------------------------------
  

 Cite this work as:
 Gaussian 16, Revision A.03,
 M. J. Frisch, G. W. Trucks, H. B. Schlegel, G. E. Scuseria, 
 M. A. Robb, J. R. Cheeseman, G. Scalmani, V. Barone, 
 G. A. Petersson, H. Nakatsuji, X. Li, M. Caricato, A. V. Marenich, 
 J. Bloino, B. G. Janesko, R. Gomperts, B. Mennucci, H. P. Hratchian, 
 J. V. Ortiz, A. F. Izmaylov, J. L. Sonnenberg, D. Williams-Young, 
 F. Ding, F. Lipparini, F. Egidi, J. Goings, B. Peng, A. Petrone, 
 T. Henderson, D. Ranasinghe, V. G. Zakrzewski, J. Gao, N. Rega, 
 G. Zheng, W. Liang, M. Hada, M. Ehara, K. Toyota, R. Fukuda, 
 J. Hasegawa, M. Ishida, T. Nakajima, Y. Honda, O. Kitao, H. Nakai, 
 T. Vreven, K. Throssell, J. A. Montgomery, Jr., J. E. Peralta, 
 F. Ogliaro, M. J. Bearpark, J. J. Heyd, E. N. Brothers, K. N. Kudin, 
 V. N. Staroverov, T. A. Keith, R. Kobayashi, J. Normand, 
 K. Raghavachari, A. P. Rendell, J. C. Burant, S. S. Iyengar, 
 J. Tomasi, M. Cossi, J. M. Millam, M. Klene, C. Adamo, R. Cammi, 
 J. W. Ochterski, R. L. Martin, K. Morokuma, O. Farkas, 
 J. B. Foresman, and D. J. Fox, Gaussian, Inc., Wallingford CT, 2016.
 
 ******************************************
 Gaussian 16:  ES64L-G16RevA.03 25-Dec-2016
                28-Jun-2022 
 ******************************************
 %mem=10GB
 %chk=16_addons_C84_11_Cl22_rank_9.chk
 %nprocshared=24
 Will use up to   24 processors via shared memory.
 ------------------------------------------------
 #P opt b3lyp/6-31G(d, p) empiricaldispersion=GD3
 ------------------------------------------------
 1/18=20,19=15,26=3,38=1/1,3;
 2/9=110,12=2,17=6,18=5,40=1/2;
 3/5=1,6=6,7=101,11=2,25=1,30=1,71=1,74=-5,124=31/1,2,3;
 4//1;
 5/5=2,38=5/2;
 6/7=2,8=2,9=2,10=2,28=1/1;
 7//1,2,3,16;
 1/18=20,19=15,26=3/3(2);
 2/9=110/2;
 99//99;
 2/9=110/2;
 3/5=1,6=6,7=101,11=2,25=1,30=1,71=1,74=-5,124=31/1,2,3;
 4/5=5,16=3,69=1/1;
 5/5=2,38=5/2;
 7//1,2,3,16;
 1/18=20,19=15,26=3/3(-5);
 2/9=110/2;
 6/7=2,8=2,9=2,10=2,19=2,28=1/1;
 99/9=1/99;
 Leave Link    1 at Tue Jun 28 10:05:37 2022, MaxMem=  1342177280 cpu:               0.7 elap:               0.0
 (Enter /home/mkliu/g16/l101.exe)
 -----
 force
 -----
 Symbolic Z-matrix:
 Charge =  0 Multiplicity = 1
 C                     8.43698   18.65055   10.80729 
 C                     12.57679   19.98876   8.90345 
 C                     8.26385   26.85048   10.50705 
 C                     12.47597   25.7365   8.92073 
 C                     8.03902   19.16322   9.43881 
 C                     12.07283   19.48603   10.22185 
 C                     7.90044   27.08816   9.06471 
 C                     11.86793   26.18636   10.2189 
 C                     8.98985   19.25789   8.39085 
 C                     12.33904   20.12973   11.39778 
 C                     12.1305   25.52403   11.39922 
 C                     8.96832   26.56974   8.13918 
 C                     10.37728   19.08801   8.69105 
 C                     10.27196   26.60563   8.61478 
 C                     10.82185   18.85162   10.04365 
 C                     10.62103   26.78205   10.00806 
 C                     9.90222   18.77323   11.06717 
 C                     9.59113   26.75601   10.97539 
 C                     10.16828   19.42744   12.27052 
 C                     9.85014   26.03452   12.18211 
 C                     8.90913   19.84399   12.96182 
 C                     8.76027   25.41304   12.82541 
 C                     7.88235   19.51827   11.9081 
 C                     7.45713   25.53314   12.34832 
 C                     6.75849   20.20264   11.77434 
 C                     7.21805   26.23421   11.18024 
 C                     5.95905   20.18012   10.50509 
 C                     6.0739    25.89753   10.27133 
 C                     6.79254   19.78733   9.31434 
 C                     6.65138   26.27142   8.93675 
 C                     6.44493   20.37148   8.10786 
 C                     6.3595    25.60865   7.82921 
 C                     7.35601   20.41664   7.04778 
 C                     7.23199   25.64414   6.60253 
 C                     8.68137   19.96307   7.18686 
 C                     8.68935   25.81818   6.99105 
 C                     9.71389   20.62328   6.42407 
 C                     9.71128   25.08769   6.36157 
 C                     11.05699   20.59256   6.90718 
 C                     12.69006   22.18221   7.81664 
 C                     12.71128   23.57852   7.80181 
 C                     11.02123   25.11138   6.88258 
 C                     11.36491   19.77104   8.01346 
 C                     12.88964   21.46247   8.98723 
 C                     12.85827   24.28039   8.98097 
 C                     11.29738   25.89766   7.98067 
 C                     13.10533   22.16358   10.18139 
 C                     13.07135   23.5724   10.1794 
 C                     13.17183   21.38353   11.48773 
 C                     13.06527   24.34334   11.48741 
 C                     12.43109   22.14525   12.55455 
 C                     12.39027   23.51855   12.54576 
 C                     11.34978   20.12749   12.41145 
 C                     11.1144   25.42791   12.3599 
 C                     11.35729   21.40663   13.06847 
 C                     11.25892   24.16732   13.04741 
 C                     8.90145   21.3169   13.31021 
 C                     8.89873   24.11053   13.43989 
 C                     7.70419   22.02204   13.19765 
 C                     7.70384   23.41357   13.30497 
 C                     6.45895   21.41624   12.60398 
 C                     6.63938   24.3385   12.74574 
 C                     5.91772   22.33457   11.53753 
 C                     6.02177   23.71425   11.52763 
 C                     5.61935   21.64193   10.37399 
 C                     5.78496   24.41077   10.33376 
 C                     5.40697   22.31077   9.18093 
 C                     5.47236   23.71067   9.16035 
 C                     5.3961    21.45927   7.94168 
 C                     5.40488   24.44812   7.83544 
 C                     5.94216   22.23544   6.77962 
 C                     5.96191   23.60426   6.73056 
 C                     7.0096    21.52135   6.19941 
 C                     6.99089   24.2828   6.03574 
 C                     8.00783   22.18374   5.51239 
 C                     7.98606   23.59051   5.40032 
 C                     9.3607    21.72436   5.60849 
 C                     9.38792   24.11014   5.24522 
 C                     11.87237   21.71979   6.71172 
 C                     12.07722   24.09864   6.52705 
 C                     10.19635   22.84621   5.42938 
 C                     11.44173   22.84668   5.99974 
 C                     10.13762   22.01547   13.46832 
 C                     10.13366   23.44298   13.50539 
 Cl                    4.56854   26.80962   10.65967 
 Cl                    3.69857   24.96069   7.54649 
 Cl                    13.28868   24.81556   5.40773 
 Cl                    13.8893   26.73087   8.42011 
 Cl                    14.75184   24.81387   11.90328 
 Cl                    14.89739   21.06551   11.88231 
 Cl                    14.03322   19.1011   8.31493 
 Cl                    3.74679   20.80656   7.64568 
 Cl                    4.49477   19.14002   10.63846 
 Cl                    5.36712   24.72253   13.95883 
 Cl                    7.8616    16.93584   10.96168 
 Cl                    5.23942   21.09499   13.89236 
 Cl                    8.61557   18.88964   14.47919 
 Cl                    9.68051   24.91794   3.66182 
 Cl                    6.76794   26.97612   5.47646 
 Cl                    7.60546   28.84624   8.73013 
 
 ITRead=  0  0  0  0  0  0  0  0  0  0  0  0  0  0  0  0  0  0  0  0
 ITRead=  0  0  0  0  0  0  0  0  0  0  0  0  0  0  0  0  0  0  0  0
 ITRead=  0  0  0  0  0  0  0  0  0  0  0  0  0  0  0  0  0  0  0  0
 ITRead=  0  0  0  0  0  0  0  0  0  0  0  0  0  0  0  0  0  0  0  0
 ITRead=  0  0  0  0  0  0  0  0  0  0  0  0  0  0  0  0  0  0  0  0
 MicOpt= -1 -1 -1 -1 -1 -1 -1 -1 -1 -1 -1 -1 -1 -1 -1 -1 -1 -1 -1 -1
 MicOpt= -1 -1 -1 -1 -1 -1 -1 -1 -1 -1 -1 -1 -1 -1 -1 -1 -1 -1 -1 -1
 MicOpt= -1 -1 -1 -1 -1 -1 -1 -1 -1 -1 -1 -1 -1 -1 -1 -1 -1 -1 -1 -1
 MicOpt= -1 -1 -1 -1 -1 -1 -1 -1 -1 -1 -1 -1 -1 -1 -1 -1 -1 -1 -1 -1
 MicOpt= -1 -1 -1 -1 -1 -1 -1 -1 -1 -1 -1 -1 -1 -1 -1 -1 -1 -1 -1 -1
 NAtoms=    100 NQM=      100 NQMF=       0 NMMI=      0 NMMIF=      0
                NMic=       0 NMicF=      0.
                    Isotopes and Nuclear Properties:
 (Nuclear quadrupole moments (NQMom) in fm**2, nuclear magnetic moments (NMagM)
  in nuclear magnetons)

  Atom         1           2           3           4           5           6           7           8           9          10
 IAtWgt=          12          12          12          12          12          12          12          12          12          12
 AtmWgt=  12.0000000  12.0000000  12.0000000  12.0000000  12.0000000  12.0000000  12.0000000  12.0000000  12.0000000  12.0000000
 NucSpn=           0           0           0           0           0           0           0           0           0           0
 AtZEff=  -0.0000000  -0.0000000  -0.0000000  -0.0000000  -0.0000000  -0.0000000  -0.0000000  -0.0000000  -0.0000000  -0.0000000
 NQMom=    0.0000000   0.0000000   0.0000000   0.0000000   0.0000000   0.0000000   0.0000000   0.0000000   0.0000000   0.0000000
 NMagM=    0.0000000   0.0000000   0.0000000   0.0000000   0.0000000   0.0000000   0.0000000   0.0000000   0.0000000   0.0000000
 AtZNuc=   6.0000000   6.0000000   6.0000000   6.0000000   6.0000000   6.0000000   6.0000000   6.0000000   6.0000000   6.0000000

  Atom        11          12          13          14          15          16          17          18          19          20
 IAtWgt=          12          12          12          12          12          12          12          12          12          12
 AtmWgt=  12.0000000  12.0000000  12.0000000  12.0000000  12.0000000  12.0000000  12.0000000  12.0000000  12.0000000  12.0000000
 NucSpn=           0           0           0           0           0           0           0           0           0           0
 AtZEff=  -0.0000000  -0.0000000  -0.0000000  -0.0000000  -0.0000000  -0.0000000  -0.0000000  -0.0000000  -0.0000000  -0.0000000
 NQMom=    0.0000000   0.0000000   0.0000000   0.0000000   0.0000000   0.0000000   0.0000000   0.0000000   0.0000000   0.0000000
 NMagM=    0.0000000   0.0000000   0.0000000   0.0000000   0.0000000   0.0000000   0.0000000   0.0000000   0.0000000   0.0000000
 AtZNuc=   6.0000000   6.0000000   6.0000000   6.0000000   6.0000000   6.0000000   6.0000000   6.0000000   6.0000000   6.0000000

  Atom        21          22          23          24          25          26          27          28          29          30
 IAtWgt=          12          12          12          12          12          12          12          12          12          12
 AtmWgt=  12.0000000  12.0000000  12.0000000  12.0000000  12.0000000  12.0000000  12.0000000  12.0000000  12.0000000  12.0000000
 NucSpn=           0           0           0           0           0           0           0           0           0           0
 AtZEff=  -0.0000000  -0.0000000  -0.0000000  -0.0000000  -0.0000000  -0.0000000  -0.0000000  -0.0000000  -0.0000000  -0.0000000
 NQMom=    0.0000000   0.0000000   0.0000000   0.0000000   0.0000000   0.0000000   0.0000000   0.0000000   0.0000000   0.0000000
 NMagM=    0.0000000   0.0000000   0.0000000   0.0000000   0.0000000   0.0000000   0.0000000   0.0000000   0.0000000   0.0000000
 AtZNuc=   6.0000000   6.0000000   6.0000000   6.0000000   6.0000000   6.0000000   6.0000000   6.0000000   6.0000000   6.0000000

  Atom        31          32          33          34          35          36          37          38          39          40
 IAtWgt=          12          12          12          12          12          12          12          12          12          12
 AtmWgt=  12.0000000  12.0000000  12.0000000  12.0000000  12.0000000  12.0000000  12.0000000  12.0000000  12.0000000  12.0000000
 NucSpn=           0           0           0           0           0           0           0           0           0           0
 AtZEff=  -0.0000000  -0.0000000  -0.0000000  -0.0000000  -0.0000000  -0.0000000  -0.0000000  -0.0000000  -0.0000000  -0.0000000
 NQMom=    0.0000000   0.0000000   0.0000000   0.0000000   0.0000000   0.0000000   0.0000000   0.0000000   0.0000000   0.0000000
 NMagM=    0.0000000   0.0000000   0.0000000   0.0000000   0.0000000   0.0000000   0.0000000   0.0000000   0.0000000   0.0000000
 AtZNuc=   6.0000000   6.0000000   6.0000000   6.0000000   6.0000000   6.0000000   6.0000000   6.0000000   6.0000000   6.0000000

  Atom        41          42          43          44          45          46          47          48          49          50
 IAtWgt=          12          12          12          12          12          12          12          12          12          12
 AtmWgt=  12.0000000  12.0000000  12.0000000  12.0000000  12.0000000  12.0000000  12.0000000  12.0000000  12.0000000  12.0000000
 NucSpn=           0           0           0           0           0           0           0           0           0           0
 AtZEff=  -0.0000000  -0.0000000  -0.0000000  -0.0000000  -0.0000000  -0.0000000  -0.0000000  -0.0000000  -0.0000000  -0.0000000
 NQMom=    0.0000000   0.0000000   0.0000000   0.0000000   0.0000000   0.0000000   0.0000000   0.0000000   0.0000000   0.0000000
 NMagM=    0.0000000   0.0000000   0.0000000   0.0000000   0.0000000   0.0000000   0.0000000   0.0000000   0.0000000   0.0000000
 AtZNuc=   6.0000000   6.0000000   6.0000000   6.0000000   6.0000000   6.0000000   6.0000000   6.0000000   6.0000000   6.0000000

  Atom        51          52          53          54          55          56          57          58          59          60
 IAtWgt=          12          12          12          12          12          12          12          12          12          12
 AtmWgt=  12.0000000  12.0000000  12.0000000  12.0000000  12.0000000  12.0000000  12.0000000  12.0000000  12.0000000  12.0000000
 NucSpn=           0           0           0           0           0           0           0           0           0           0
 AtZEff=  -0.0000000  -0.0000000  -0.0000000  -0.0000000  -0.0000000  -0.0000000  -0.0000000  -0.0000000  -0.0000000  -0.0000000
 NQMom=    0.0000000   0.0000000   0.0000000   0.0000000   0.0000000   0.0000000   0.0000000   0.0000000   0.0000000   0.0000000
 NMagM=    0.0000000   0.0000000   0.0000000   0.0000000   0.0000000   0.0000000   0.0000000   0.0000000   0.0000000   0.0000000
 AtZNuc=   6.0000000   6.0000000   6.0000000   6.0000000   6.0000000   6.0000000   6.0000000   6.0000000   6.0000000   6.0000000

  Atom        61          62          63          64          65          66          67          68          69          70
 IAtWgt=          12          12          12          12          12          12          12          12          12          12
 AtmWgt=  12.0000000  12.0000000  12.0000000  12.0000000  12.0000000  12.0000000  12.0000000  12.0000000  12.0000000  12.0000000
 NucSpn=           0           0           0           0           0           0           0           0           0           0
 AtZEff=  -0.0000000  -0.0000000  -0.0000000  -0.0000000  -0.0000000  -0.0000000  -0.0000000  -0.0000000  -0.0000000  -0.0000000
 NQMom=    0.0000000   0.0000000   0.0000000   0.0000000   0.0000000   0.0000000   0.0000000   0.0000000   0.0000000   0.0000000
 NMagM=    0.0000000   0.0000000   0.0000000   0.0000000   0.0000000   0.0000000   0.0000000   0.0000000   0.0000000   0.0000000
 AtZNuc=   6.0000000   6.0000000   6.0000000   6.0000000   6.0000000   6.0000000   6.0000000   6.0000000   6.0000000   6.0000000

  Atom        71          72          73          74          75          76          77          78          79          80
 IAtWgt=          12          12          12          12          12          12          12          12          12          12
 AtmWgt=  12.0000000  12.0000000  12.0000000  12.0000000  12.0000000  12.0000000  12.0000000  12.0000000  12.0000000  12.0000000
 NucSpn=           0           0           0           0           0           0           0           0           0           0
 AtZEff=  -0.0000000  -0.0000000  -0.0000000  -0.0000000  -0.0000000  -0.0000000  -0.0000000  -0.0000000  -0.0000000  -0.0000000
 NQMom=    0.0000000   0.0000000   0.0000000   0.0000000   0.0000000   0.0000000   0.0000000   0.0000000   0.0000000   0.0000000
 NMagM=    0.0000000   0.0000000   0.0000000   0.0000000   0.0000000   0.0000000   0.0000000   0.0000000   0.0000000   0.0000000
 AtZNuc=   6.0000000   6.0000000   6.0000000   6.0000000   6.0000000   6.0000000   6.0000000   6.0000000   6.0000000   6.0000000

  Atom        81          82          83          84          85          86          87          88          89          90
 IAtWgt=          12          12          12          12          35          35          35          35          35          35
 AtmWgt=  12.0000000  12.0000000  12.0000000  12.0000000  34.9688527  34.9688527  34.9688527  34.9688527  34.9688527  34.9688527
 NucSpn=           0           0           0           0           3           3           3           3           3           3
 AtZEff=  -0.0000000  -0.0000000  -0.0000000  -0.0000000  -0.0000000  -0.0000000  -0.0000000  -0.0000000  -0.0000000  -0.0000000
 NQMom=    0.0000000   0.0000000   0.0000000   0.0000000  -8.1650000  -8.1650000  -8.1650000  -8.1650000  -8.1650000  -8.1650000
 NMagM=    0.0000000   0.0000000   0.0000000   0.0000000   0.8218740   0.8218740   0.8218740   0.8218740   0.8218740   0.8218740
 AtZNuc=   6.0000000   6.0000000   6.0000000   6.0000000  17.0000000  17.0000000  17.0000000  17.0000000  17.0000000  17.0000000

  Atom        91          92          93          94          95          96          97          98          99         100
 IAtWgt=          35          35          35          35          35          35          35          35          35          35
 AtmWgt=  34.9688527  34.9688527  34.9688527  34.9688527  34.9688527  34.9688527  34.9688527  34.9688527  34.9688527  34.9688527
 NucSpn=           3           3           3           3           3           3           3           3           3           3
 AtZEff=  -0.0000000  -0.0000000  -0.0000000  -0.0000000  -0.0000000  -0.0000000  -0.0000000  -0.0000000  -0.0000000  -0.0000000
 NQMom=   -8.1650000  -8.1650000  -8.1650000  -8.1650000  -8.1650000  -8.1650000  -8.1650000  -8.1650000  -8.1650000  -8.1650000
 NMagM=    0.8218740   0.8218740   0.8218740   0.8218740   0.8218740   0.8218740   0.8218740   0.8218740   0.8218740   0.8218740
 AtZNuc=  17.0000000  17.0000000  17.0000000  17.0000000  17.0000000  17.0000000  17.0000000  17.0000000  17.0000000  17.0000000
 Leave Link  101 at Tue Jun 28 10:05:37 2022, MaxMem=  1342177280 cpu:               6.7 elap:               0.3
 (Enter /home/mkliu/g16/l103.exe)

 GradGradGradGradGradGradGradGradGradGradGradGradGradGradGradGradGradGrad
 Berny optimization.
 Initialization pass.
                           ----------------------------
                           !    Initial Parameters    !
                           ! (Angstroms and Degrees)  !
 --------------------------                            --------------------------
 ! Name  Definition              Value          Derivative Info.                !
 --------------------------------------------------------------------------------
 ! R1    R(1,5)                  1.5146         estimate D2E/DX2                !
 ! R2    R(1,17)                 1.4931         estimate D2E/DX2                !
 ! R3    R(1,23)                 1.5074         estimate D2E/DX2                !
 ! R4    R(1,95)                 1.8152         estimate D2E/DX2                !
 ! R5    R(2,6)                  1.4983         estimate D2E/DX2                !
 ! R6    R(2,43)                 1.5193         estimate D2E/DX2                !
 ! R7    R(2,44)                 1.5089         estimate D2E/DX2                !
 ! R8    R(2,91)                 1.8043         estimate D2E/DX2                !
 ! R9    R(3,7)                  1.5063         estimate D2E/DX2                !
 ! R10   R(3,18)                 1.4107         estimate D2E/DX2                !
 ! R11   R(3,26)                 1.388          estimate D2E/DX2                !
 ! R12   R(4,8)                  1.5024         estimate D2E/DX2                !
 ! R13   R(4,45)                 1.5067         estimate D2E/DX2                !
 ! R14   R(4,46)                 1.5162         estimate D2E/DX2                !
 ! R15   R(4,88)                 1.7991         estimate D2E/DX2                !
 ! R16   R(5,9)                  1.4182         estimate D2E/DX2                !
 ! R17   R(5,29)                 1.3995         estimate D2E/DX2                !
 ! R18   R(6,10)                 1.3668         estimate D2E/DX2                !
 ! R19   R(6,15)                 1.4139         estimate D2E/DX2                !
 ! R20   R(7,12)                 1.5052         estimate D2E/DX2                !
 ! R21   R(7,30)                 1.4979         estimate D2E/DX2                !
 ! R22   R(7,100)                1.8138         estimate D2E/DX2                !
 ! R23   R(8,11)                 1.3787         estimate D2E/DX2                !
 ! R24   R(8,16)                 1.3979         estimate D2E/DX2                !
 ! R25   R(9,13)                 1.4297         estimate D2E/DX2                !
 ! R26   R(9,35)                 1.429          estimate D2E/DX2                !
 ! R27   R(10,49)                1.5079         estimate D2E/DX2                !
 ! R28   R(10,53)                1.4164         estimate D2E/DX2                !
 ! R29   R(11,50)                1.5085         estimate D2E/DX2                !
 ! R30   R(11,54)                1.4016         estimate D2E/DX2                !
 ! R31   R(12,14)                1.3881         estimate D2E/DX2                !
 ! R32   R(12,36)                1.4003         estimate D2E/DX2                !
 ! R33   R(13,15)                1.4433         estimate D2E/DX2                !
 ! R34   R(13,43)                1.3788         estimate D2E/DX2                !
 ! R35   R(14,16)                1.4471         estimate D2E/DX2                !
 ! R36   R(14,46)                1.3981         estimate D2E/DX2                !
 ! R37   R(15,17)                1.3782         estimate D2E/DX2                !
 ! R38   R(16,18)                1.4132         estimate D2E/DX2                !
 ! R39   R(17,19)                1.3953         estimate D2E/DX2                !
 ! R40   R(18,20)                1.4296         estimate D2E/DX2                !
 ! R41   R(19,21)                1.4956         estimate D2E/DX2                !
 ! R42   R(19,53)                1.3805         estimate D2E/DX2                !
 ! R43   R(20,22)                1.4099         estimate D2E/DX2                !
 ! R44   R(20,54)                1.4135         estimate D2E/DX2                !
 ! R45   R(21,23)                1.5069         estimate D2E/DX2                !
 ! R46   R(21,57)                1.5136         estimate D2E/DX2                !
 ! R47   R(21,97)                1.8164         estimate D2E/DX2                !
 ! R48   R(22,24)                1.3929         estimate D2E/DX2                !
 ! R49   R(22,58)                1.4468         estimate D2E/DX2                !
 ! R50   R(23,25)                1.3226         estimate D2E/DX2                !
 ! R51   R(24,26)                1.3831         estimate D2E/DX2                !
 ! R52   R(24,62)                1.5013         estimate D2E/DX2                !
 ! R53   R(25,27)                1.5002         estimate D2E/DX2                !
 ! R54   R(25,61)                1.5003         estimate D2E/DX2                !
 ! R55   R(26,28)                1.4995         estimate D2E/DX2                !
 ! R56   R(27,29)                1.5056         estimate D2E/DX2                !
 ! R57   R(27,65)                1.5065         estimate D2E/DX2                !
 ! R58   R(27,93)                1.801          estimate D2E/DX2                !
 ! R59   R(28,30)                1.5015         estimate D2E/DX2                !
 ! R60   R(28,66)                1.5159         estimate D2E/DX2                !
 ! R61   R(28,85)                1.8025         estimate D2E/DX2                !
 ! R62   R(29,31)                1.3848         estimate D2E/DX2                !
 ! R63   R(30,32)                1.3233         estimate D2E/DX2                !
 ! R64   R(31,33)                1.3985         estimate D2E/DX2                !
 ! R65   R(31,69)                1.5202         estimate D2E/DX2                !
 ! R66   R(32,34)                1.5057         estimate D2E/DX2                !
 ! R67   R(32,70)                1.5027         estimate D2E/DX2                !
 ! R68   R(33,35)                1.4077         estimate D2E/DX2                !
 ! R69   R(33,73)                1.4353         estimate D2E/DX2                !
 ! R70   R(34,36)                1.5183         estimate D2E/DX2                !
 ! R71   R(34,74)                1.4942         estimate D2E/DX2                !
 ! R72   R(34,99)                1.8049         estimate D2E/DX2                !
 ! R73   R(35,37)                1.4435         estimate D2E/DX2                !
 ! R74   R(36,38)                1.4051         estimate D2E/DX2                !
 ! R75   R(37,39)                1.4277         estimate D2E/DX2                !
 ! R76   R(37,77)                1.415          estimate D2E/DX2                !
 ! R77   R(38,42)                1.41           estimate D2E/DX2                !
 ! R78   R(38,78)                1.5187         estimate D2E/DX2                !
 ! R79   R(39,43)                1.4119         estimate D2E/DX2                !
 ! R80   R(39,79)                1.4049         estimate D2E/DX2                !
 ! R81   R(40,41)                1.3966         estimate D2E/DX2                !
 ! R82   R(40,44)                1.3886         estimate D2E/DX2                !
 ! R83   R(40,79)                1.4503         estimate D2E/DX2                !
 ! R84   R(41,45)                1.3801         estimate D2E/DX2                !
 ! R85   R(41,80)                1.5158         estimate D2E/DX2                !
 ! R86   R(42,46)                1.3785         estimate D2E/DX2                !
 ! R87   R(42,80)                1.5057         estimate D2E/DX2                !
 ! R88   R(44,47)                1.4015         estimate D2E/DX2                !
 ! R89   R(45,48)                1.4082         estimate D2E/DX2                !
 ! R90   R(47,48)                1.4092         estimate D2E/DX2                !
 ! R91   R(47,49)                1.523          estimate D2E/DX2                !
 ! R92   R(48,50)                1.5183         estimate D2E/DX2                !
 ! R93   R(49,51)                1.5057         estimate D2E/DX2                !
 ! R94   R(49,90)                1.7984         estimate D2E/DX2                !
 ! R95   R(50,52)                1.502          estimate D2E/DX2                !
 ! R96   R(50,89)                1.7997         estimate D2E/DX2                !
 ! R97   R(51,52)                1.3739         estimate D2E/DX2                !
 ! R98   R(51,55)                1.401          estimate D2E/DX2                !
 ! R99   R(52,56)                1.3973         estimate D2E/DX2                !
 ! R100  R(53,55)                1.438          estimate D2E/DX2                !
 ! R101  R(54,56)                1.4431         estimate D2E/DX2                !
 ! R102  R(55,83)                1.4206         estimate D2E/DX2                !
 ! R103  R(56,84)                1.4144         estimate D2E/DX2                !
 ! R104  R(57,59)                1.394          estimate D2E/DX2                !
 ! R105  R(57,83)                1.4287         estimate D2E/DX2                !
 ! R106  R(58,60)                1.3899         estimate D2E/DX2                !
 ! R107  R(58,84)                1.4053         estimate D2E/DX2                !
 ! R108  R(59,60)                1.3957         estimate D2E/DX2                !
 ! R109  R(59,61)                1.5067         estimate D2E/DX2                !
 ! R110  R(60,62)                1.517          estimate D2E/DX2                !
 ! R111  R(61,63)                1.5078         estimate D2E/DX2                !
 ! R112  R(61,96)                1.8029         estimate D2E/DX2                !
 ! R113  R(62,64)                1.5016         estimate D2E/DX2                !
 ! R114  R(62,94)                1.7994         estimate D2E/DX2                !
 ! R115  R(63,64)                1.3836         estimate D2E/DX2                !
 ! R116  R(63,65)                1.3866         estimate D2E/DX2                !
 ! R117  R(64,66)                1.4023         estimate D2E/DX2                !
 ! R118  R(65,67)                1.3841         estimate D2E/DX2                !
 ! R119  R(66,68)                1.4017         estimate D2E/DX2                !
 ! R120  R(67,68)                1.4016         estimate D2E/DX2                !
 ! R121  R(67,69)                1.5036         estimate D2E/DX2                !
 ! R122  R(68,70)                1.5178         estimate D2E/DX2                !
 ! R123  R(69,71)                1.5003         estimate D2E/DX2                !
 ! R124  R(69,92)                1.7983         estimate D2E/DX2                !
 ! R125  R(70,72)                1.4977         estimate D2E/DX2                !
 ! R126  R(70,86)                1.8049         estimate D2E/DX2                !
 ! R127  R(71,72)                1.3698         estimate D2E/DX2                !
 ! R128  R(71,73)                1.4093         estimate D2E/DX2                !
 ! R129  R(72,74)                1.4149         estimate D2E/DX2                !
 ! R130  R(73,75)                1.381          estimate D2E/DX2                !
 ! R131  R(74,76)                1.3687         estimate D2E/DX2                !
 ! R132  R(75,76)                1.4114         estimate D2E/DX2                !
 ! R133  R(75,77)                1.432          estimate D2E/DX2                !
 ! R134  R(76,78)                1.5031         estimate D2E/DX2                !
 ! R135  R(77,81)                1.4103         estimate D2E/DX2                !
 ! R136  R(78,81)                1.5116         estimate D2E/DX2                !
 ! R137  R(78,98)                1.8015         estimate D2E/DX2                !
 ! R138  R(79,82)                1.4008         estimate D2E/DX2                !
 ! R139  R(80,82)                1.4998         estimate D2E/DX2                !
 ! R140  R(80,87)                1.7985         estimate D2E/DX2                !
 ! R141  R(81,82)                1.3698         estimate D2E/DX2                !
 ! R142  R(83,84)                1.428          estimate D2E/DX2                !
 ! A1    A(5,1,17)             112.7856         estimate D2E/DX2                !
 ! A2    A(5,1,23)             111.6103         estimate D2E/DX2                !
 ! A3    A(5,1,95)             108.2586         estimate D2E/DX2                !
 ! A4    A(17,1,23)            100.7582         estimate D2E/DX2                !
 ! A5    A(17,1,95)            111.9537         estimate D2E/DX2                !
 ! A6    A(23,1,95)            111.4083         estimate D2E/DX2                !
 ! A7    A(6,2,43)             101.4831         estimate D2E/DX2                !
 ! A8    A(6,2,44)             110.4013         estimate D2E/DX2                !
 ! A9    A(6,2,91)             113.169          estimate D2E/DX2                !
 ! A10   A(43,2,44)            109.7483         estimate D2E/DX2                !
 ! A11   A(43,2,91)            112.477          estimate D2E/DX2                !
 ! A12   A(44,2,91)            109.3447         estimate D2E/DX2                !
 ! A13   A(7,3,18)             123.7436         estimate D2E/DX2                !
 ! A14   A(7,3,26)             110.6516         estimate D2E/DX2                !
 ! A15   A(18,3,26)            121.2084         estimate D2E/DX2                !
 ! A16   A(8,4,45)             110.9475         estimate D2E/DX2                !
 ! A17   A(8,4,46)             100.9124         estimate D2E/DX2                !
 ! A18   A(8,4,88)             113.1325         estimate D2E/DX2                !
 ! A19   A(45,4,46)            108.951          estimate D2E/DX2                !
 ! A20   A(45,4,88)            110.2393         estimate D2E/DX2                !
 ! A21   A(46,4,88)            112.2956         estimate D2E/DX2                !
 ! A22   A(1,5,9)              120.9372         estimate D2E/DX2                !
 ! A23   A(1,5,29)             117.7307         estimate D2E/DX2                !
 ! A24   A(9,5,29)             120.1088         estimate D2E/DX2                !
 ! A25   A(2,6,10)             122.2448         estimate D2E/DX2                !
 ! A26   A(2,6,15)             109.7089         estimate D2E/DX2                !
 ! A27   A(10,6,15)            119.4773         estimate D2E/DX2                !
 ! A28   A(3,7,12)             111.3005         estimate D2E/DX2                !
 ! A29   A(3,7,30)             101.3583         estimate D2E/DX2                !
 ! A30   A(3,7,100)            111.6428         estimate D2E/DX2                !
 ! A31   A(12,7,30)            110.5655         estimate D2E/DX2                !
 ! A32   A(12,7,100)           109.621          estimate D2E/DX2                !
 ! A33   A(30,7,100)           112.1572         estimate D2E/DX2                !
 ! A34   A(4,8,11)             121.2524         estimate D2E/DX2                !
 ! A35   A(4,8,16)             110.9939         estimate D2E/DX2                !
 ! A36   A(11,8,16)            120.2463         estimate D2E/DX2                !
 ! A37   A(5,9,13)             119.1796         estimate D2E/DX2                !
 ! A38   A(5,9,35)             120.7173         estimate D2E/DX2                !
 ! A39   A(13,9,35)            116.4266         estimate D2E/DX2                !
 ! A40   A(6,10,49)            123.4019         estimate D2E/DX2                !
 ! A41   A(6,10,53)            118.6179         estimate D2E/DX2                !
 ! A42   A(49,10,53)           110.1437         estimate D2E/DX2                !
 ! A43   A(8,11,50)            122.9608         estimate D2E/DX2                !
 ! A44   A(8,11,54)            118.7941         estimate D2E/DX2                !
 ! A45   A(50,11,54)           110.8228         estimate D2E/DX2                !
 ! A46   A(7,12,14)            116.5313         estimate D2E/DX2                !
 ! A47   A(7,12,36)            123.2058         estimate D2E/DX2                !
 ! A48   A(14,12,36)           118.8088         estimate D2E/DX2                !
 ! A49   A(9,13,15)            121.0096         estimate D2E/DX2                !
 ! A50   A(9,13,43)            122.2139         estimate D2E/DX2                !
 ! A51   A(15,13,43)           108.7269         estimate D2E/DX2                !
 ! A52   A(12,14,16)           124.0242         estimate D2E/DX2                !
 ! A53   A(12,14,46)           121.3512         estimate D2E/DX2                !
 ! A54   A(16,14,46)           108.7526         estimate D2E/DX2                !
 ! A55   A(6,15,13)            108.491          estimate D2E/DX2                !
 ! A56   A(6,15,17)            121.4861         estimate D2E/DX2                !
 ! A57   A(13,15,17)           119.9843         estimate D2E/DX2                !
 ! A58   A(8,16,14)            107.964          estimate D2E/DX2                !
 ! A59   A(8,16,18)            122.614          estimate D2E/DX2                !
 ! A60   A(14,16,18)           118.75           estimate D2E/DX2                !
 ! A61   A(1,17,15)            122.0197         estimate D2E/DX2                !
 ! A62   A(1,17,19)            112.0705         estimate D2E/DX2                !
 ! A63   A(15,17,19)           119.1162         estimate D2E/DX2                !
 ! A64   A(3,18,16)            117.2076         estimate D2E/DX2                !
 ! A65   A(3,18,20)            118.98           estimate D2E/DX2                !
 ! A66   A(16,18,20)           117.0676         estimate D2E/DX2                !
 ! A67   A(17,19,21)           111.6344         estimate D2E/DX2                !
 ! A68   A(17,19,53)           119.2739         estimate D2E/DX2                !
 ! A69   A(21,19,53)           122.1477         estimate D2E/DX2                !
 ! A70   A(18,20,22)           117.8742         estimate D2E/DX2                !
 ! A71   A(18,20,54)           118.9997         estimate D2E/DX2                !
 ! A72   A(22,20,54)           116.4127         estimate D2E/DX2                !
 ! A73   A(19,21,23)           100.9672         estimate D2E/DX2                !
 ! A74   A(19,21,57)           112.4391         estimate D2E/DX2                !
 ! A75   A(19,21,97)           112.0765         estimate D2E/DX2                !
 ! A76   A(23,21,57)           111.5832         estimate D2E/DX2                !
 ! A77   A(23,21,97)           111.1281         estimate D2E/DX2                !
 ! A78   A(57,21,97)           108.5528         estimate D2E/DX2                !
 ! A79   A(20,22,24)           121.9309         estimate D2E/DX2                !
 ! A80   A(20,22,58)           121.106          estimate D2E/DX2                !
 ! A81   A(24,22,58)           108.2178         estimate D2E/DX2                !
 ! A82   A(1,23,21)            112.6042         estimate D2E/DX2                !
 ! A83   A(1,23,25)            122.4559         estimate D2E/DX2                !
 ! A84   A(21,23,25)           122.5381         estimate D2E/DX2                !
 ! A85   A(22,24,26)           119.6482         estimate D2E/DX2                !
 ! A86   A(22,24,62)           110.5065         estimate D2E/DX2                !
 ! A87   A(26,24,62)           122.1915         estimate D2E/DX2                !
 ! A88   A(23,25,27)           122.0457         estimate D2E/DX2                !
 ! A89   A(23,25,61)           122.1605         estimate D2E/DX2                !
 ! A90   A(27,25,61)           111.9385         estimate D2E/DX2                !
 ! A91   A(3,26,24)            120.2908         estimate D2E/DX2                !
 ! A92   A(3,26,28)            112.3707         estimate D2E/DX2                !
 ! A93   A(24,26,28)           122.0035         estimate D2E/DX2                !
 ! A94   A(25,27,29)           112.2121         estimate D2E/DX2                !
 ! A95   A(25,27,65)           100.3244         estimate D2E/DX2                !
 ! A96   A(25,27,93)           112.2882         estimate D2E/DX2                !
 ! A97   A(29,27,65)           108.0081         estimate D2E/DX2                !
 ! A98   A(29,27,93)           110.9766         estimate D2E/DX2                !
 ! A99   A(65,27,93)           112.5502         estimate D2E/DX2                !
 ! A100  A(26,28,30)           100.9176         estimate D2E/DX2                !
 ! A101  A(26,28,66)           109.9193         estimate D2E/DX2                !
 ! A102  A(26,28,85)           113.1439         estimate D2E/DX2                !
 ! A103  A(30,28,66)           110.7416         estimate D2E/DX2                !
 ! A104  A(30,28,85)           112.7496         estimate D2E/DX2                !
 ! A105  A(66,28,85)           109.1622         estimate D2E/DX2                !
 ! A106  A(5,29,27)            122.6189         estimate D2E/DX2                !
 ! A107  A(5,29,31)            119.2853         estimate D2E/DX2                !
 ! A108  A(27,29,31)           116.1054         estimate D2E/DX2                !
 ! A109  A(7,30,28)            112.3691         estimate D2E/DX2                !
 ! A110  A(7,30,32)            121.9058         estimate D2E/DX2                !
 ! A111  A(28,30,32)           122.3024         estimate D2E/DX2                !
 ! A112  A(29,31,33)           120.6963         estimate D2E/DX2                !
 ! A113  A(29,31,69)           124.7695         estimate D2E/DX2                !
 ! A114  A(33,31,69)           110.09           estimate D2E/DX2                !
 ! A115  A(30,32,34)           122.8362         estimate D2E/DX2                !
 ! A116  A(30,32,70)           121.5637         estimate D2E/DX2                !
 ! A117  A(34,32,70)           112.9343         estimate D2E/DX2                !
 ! A118  A(31,33,35)           121.8741         estimate D2E/DX2                !
 ! A119  A(31,33,73)           108.4006         estimate D2E/DX2                !
 ! A120  A(35,33,73)           122.25           estimate D2E/DX2                !
 ! A121  A(32,34,36)           110.5133         estimate D2E/DX2                !
 ! A122  A(32,34,74)           101.1898         estimate D2E/DX2                !
 ! A123  A(32,34,99)           112.1292         estimate D2E/DX2                !
 ! A124  A(36,34,74)           110.8789         estimate D2E/DX2                !
 ! A125  A(36,34,99)           108.7746         estimate D2E/DX2                !
 ! A126  A(74,34,99)           113.2176         estimate D2E/DX2                !
 ! A127  A(9,35,33)            116.4544         estimate D2E/DX2                !
 ! A128  A(9,35,37)            121.0981         estimate D2E/DX2                !
 ! A129  A(33,35,37)           118.2846         estimate D2E/DX2                !
 ! A130  A(12,36,34)           117.5533         estimate D2E/DX2                !
 ! A131  A(12,36,38)           120.0965         estimate D2E/DX2                !
 ! A132  A(34,36,38)           121.5942         estimate D2E/DX2                !
 ! A133  A(35,37,39)           118.9626         estimate D2E/DX2                !
 ! A134  A(35,37,77)           118.8109         estimate D2E/DX2                !
 ! A135  A(39,37,77)           116.5255         estimate D2E/DX2                !
 ! A136  A(36,38,42)           120.0958         estimate D2E/DX2                !
 ! A137  A(36,38,78)           120.6042         estimate D2E/DX2                !
 ! A138  A(42,38,78)           118.7025         estimate D2E/DX2                !
 ! A139  A(37,39,43)           118.8696         estimate D2E/DX2                !
 ! A140  A(37,39,79)           118.7942         estimate D2E/DX2                !
 ! A141  A(43,39,79)           116.6979         estimate D2E/DX2                !
 ! A142  A(41,40,44)           121.6687         estimate D2E/DX2                !
 ! A143  A(41,40,79)           108.6187         estimate D2E/DX2                !
 ! A144  A(44,40,79)           123.92           estimate D2E/DX2                !
 ! A145  A(40,41,45)           120.0681         estimate D2E/DX2                !
 ! A146  A(40,41,80)           110.2221         estimate D2E/DX2                !
 ! A147  A(45,41,80)           126.0573         estimate D2E/DX2                !
 ! A148  A(38,42,46)           119.3438         estimate D2E/DX2                !
 ! A149  A(38,42,80)           123.575          estimate D2E/DX2                !
 ! A150  A(46,42,80)           115.5461         estimate D2E/DX2                !
 ! A151  A(2,43,13)            110.762          estimate D2E/DX2                !
 ! A152  A(2,43,39)            123.3372         estimate D2E/DX2                !
 ! A153  A(13,43,39)           121.136          estimate D2E/DX2                !
 ! A154  A(2,44,40)            115.4444         estimate D2E/DX2                !
 ! A155  A(2,44,47)            124.5994         estimate D2E/DX2                !
 ! A156  A(40,44,47)           118.7597         estimate D2E/DX2                !
 ! A157  A(4,45,41)            115.4878         estimate D2E/DX2                !
 ! A158  A(4,45,48)            123.9408         estimate D2E/DX2                !
 ! A159  A(41,45,48)           119.1811         estimate D2E/DX2                !
 ! A160  A(4,46,14)            110.0435         estimate D2E/DX2                !
 ! A161  A(4,46,42)            126.0854         estimate D2E/DX2                !
 ! A162  A(14,46,42)           120.2107         estimate D2E/DX2                !
 ! A163  A(44,47,48)           119.6838         estimate D2E/DX2                !
 ! A164  A(44,47,49)           118.7747         estimate D2E/DX2                !
 ! A165  A(48,47,49)           120.9509         estimate D2E/DX2                !
 ! A166  A(45,48,47)           120.4964         estimate D2E/DX2                !
 ! A167  A(45,48,50)           118.508          estimate D2E/DX2                !
 ! A168  A(47,48,50)           120.4308         estimate D2E/DX2                !
 ! A169  A(10,49,47)           110.5247         estimate D2E/DX2                !
 ! A170  A(10,49,51)           101.0236         estimate D2E/DX2                !
 ! A171  A(10,49,90)           113.3265         estimate D2E/DX2                !
 ! A172  A(47,49,51)           109.0965         estimate D2E/DX2                !
 ! A173  A(47,49,90)           108.7028         estimate D2E/DX2                !
 ! A174  A(51,49,90)           113.9559         estimate D2E/DX2                !
 ! A175  A(11,50,48)           110.459          estimate D2E/DX2                !
 ! A176  A(11,50,52)           101.0991         estimate D2E/DX2                !
 ! A177  A(11,50,89)           112.9293         estimate D2E/DX2                !
 ! A178  A(48,50,52)           109.2686         estimate D2E/DX2                !
 ! A179  A(48,50,89)           109.152          estimate D2E/DX2                !
 ! A180  A(52,50,89)           113.6971         estimate D2E/DX2                !
 ! A181  A(49,51,52)           121.0475         estimate D2E/DX2                !
 ! A182  A(49,51,55)           111.7326         estimate D2E/DX2                !
 ! A183  A(52,51,55)           120.4344         estimate D2E/DX2                !
 ! A184  A(50,52,51)           122.686          estimate D2E/DX2                !
 ! A185  A(50,52,56)           111.2149         estimate D2E/DX2                !
 ! A186  A(51,52,56)           119.0673         estimate D2E/DX2                !
 ! A187  A(10,53,19)           121.7013         estimate D2E/DX2                !
 ! A188  A(10,53,55)           108.7793         estimate D2E/DX2                !
 ! A189  A(19,53,55)           120.1434         estimate D2E/DX2                !
 ! A190  A(11,54,20)           122.1922         estimate D2E/DX2                !
 ! A191  A(11,54,56)           108.2897         estimate D2E/DX2                !
 ! A192  A(20,54,56)           121.6258         estimate D2E/DX2                !
 ! A193  A(51,55,53)           107.7801         estimate D2E/DX2                !
 ! A194  A(51,55,83)           122.3675         estimate D2E/DX2                !
 ! A195  A(53,55,83)           120.3533         estimate D2E/DX2                !
 ! A196  A(52,56,54)           108.3982         estimate D2E/DX2                !
 ! A197  A(52,56,84)           121.507          estimate D2E/DX2                !
 ! A198  A(54,56,84)           121.4605         estimate D2E/DX2                !
 ! A199  A(21,57,59)           118.5559         estimate D2E/DX2                !
 ! A200  A(21,57,83)           119.7955         estimate D2E/DX2                !
 ! A201  A(59,57,83)           120.3131         estimate D2E/DX2                !
 ! A202  A(22,58,60)           109.1433         estimate D2E/DX2                !
 ! A203  A(22,58,84)           122.1089         estimate D2E/DX2                !
 ! A204  A(60,58,84)           121.4525         estimate D2E/DX2                !
 ! A205  A(57,59,60)           119.8902         estimate D2E/DX2                !
 ! A206  A(57,59,61)           122.5644         estimate D2E/DX2                !
 ! A207  A(60,59,61)           115.5301         estimate D2E/DX2                !
 ! A208  A(58,60,59)           120.4793         estimate D2E/DX2                !
 ! A209  A(58,60,62)           109.4688         estimate D2E/DX2                !
 ! A210  A(59,60,62)           125.4316         estimate D2E/DX2                !
 ! A211  A(25,61,59)           112.2183         estimate D2E/DX2                !
 ! A212  A(25,61,63)            99.9748         estimate D2E/DX2                !
 ! A213  A(25,61,96)           112.7116         estimate D2E/DX2                !
 ! A214  A(59,61,63)           109.2968         estimate D2E/DX2                !
 ! A215  A(59,61,96)           110.4335         estimate D2E/DX2                !
 ! A216  A(63,61,96)           111.7867         estimate D2E/DX2                !
 ! A217  A(24,62,60)           101.5692         estimate D2E/DX2                !
 ! A218  A(24,62,64)           109.8827         estimate D2E/DX2                !
 ! A219  A(24,62,94)           113.1898         estimate D2E/DX2                !
 ! A220  A(60,62,64)           109.522          estimate D2E/DX2                !
 ! A221  A(60,62,94)           112.1931         estimate D2E/DX2                !
 ! A222  A(64,62,94)           110.1696         estimate D2E/DX2                !
 ! A223  A(61,63,64)           125.8293         estimate D2E/DX2                !
 ! A224  A(61,63,65)           111.5            estimate D2E/DX2                !
 ! A225  A(64,63,65)           120.5493         estimate D2E/DX2                !
 ! A226  A(62,64,63)           116.0812         estimate D2E/DX2                !
 ! A227  A(62,64,66)           123.6123         estimate D2E/DX2                !
 ! A228  A(63,64,66)           119.2531         estimate D2E/DX2                !
 ! A229  A(27,65,63)           111.2953         estimate D2E/DX2                !
 ! A230  A(27,65,67)           125.3454         estimate D2E/DX2                !
 ! A231  A(63,65,67)           120.9928         estimate D2E/DX2                !
 ! A232  A(28,66,64)           119.3424         estimate D2E/DX2                !
 ! A233  A(28,66,68)           119.8621         estimate D2E/DX2                !
 ! A234  A(64,66,68)           120.15           estimate D2E/DX2                !
 ! A235  A(65,67,68)           119.2186         estimate D2E/DX2                !
 ! A236  A(65,67,69)           115.9672         estimate D2E/DX2                !
 ! A237  A(68,67,69)           123.6315         estimate D2E/DX2                !
 ! A238  A(66,68,67)           119.8006         estimate D2E/DX2                !
 ! A239  A(66,68,70)           119.8662         estimate D2E/DX2                !
 ! A240  A(67,68,70)           119.7376         estimate D2E/DX2                !
 ! A241  A(31,69,67)           108.0675         estimate D2E/DX2                !
 ! A242  A(31,69,71)           101.7559         estimate D2E/DX2                !
 ! A243  A(31,69,92)           113.0196         estimate D2E/DX2                !
 ! A244  A(67,69,71)           110.0448         estimate D2E/DX2                !
 ! A245  A(67,69,92)           110.3549         estimate D2E/DX2                !
 ! A246  A(71,69,92)           113.2093         estimate D2E/DX2                !
 ! A247  A(32,70,68)           110.5241         estimate D2E/DX2                !
 ! A248  A(32,70,72)           101.2921         estimate D2E/DX2                !
 ! A249  A(32,70,86)           112.3695         estimate D2E/DX2                !
 ! A250  A(68,70,72)           110.7114         estimate D2E/DX2                !
 ! A251  A(68,70,86)           108.6479         estimate D2E/DX2                !
 ! A252  A(72,70,86)           113.1728         estimate D2E/DX2                !
 ! A253  A(69,71,72)           123.3626         estimate D2E/DX2                !
 ! A254  A(69,71,73)           109.4163         estimate D2E/DX2                !
 ! A255  A(72,71,73)           118.7291         estimate D2E/DX2                !
 ! A256  A(70,72,71)           122.0886         estimate D2E/DX2                !
 ! A257  A(70,72,74)           111.256          estimate D2E/DX2                !
 ! A258  A(71,72,74)           120.4827         estimate D2E/DX2                !
 ! A259  A(33,73,71)           109.2358         estimate D2E/DX2                !
 ! A260  A(33,73,75)           119.2587         estimate D2E/DX2                !
 ! A261  A(71,73,75)           120.6157         estimate D2E/DX2                !
 ! A262  A(34,74,72)           111.5916         estimate D2E/DX2                !
 ! A263  A(34,74,76)           121.3056         estimate D2E/DX2                !
 ! A264  A(72,74,76)           120.9424         estimate D2E/DX2                !
 ! A265  A(73,75,76)           120.4256         estimate D2E/DX2                !
 ! A266  A(73,75,77)           119.7118         estimate D2E/DX2                !
 ! A267  A(76,75,77)           109.8559         estimate D2E/DX2                !
 ! A268  A(74,76,75)           118.5868         estimate D2E/DX2                !
 ! A269  A(74,76,78)           123.4467         estimate D2E/DX2                !
 ! A270  A(75,76,78)           109.7786         estimate D2E/DX2                !
 ! A271  A(37,77,75)           121.6092         estimate D2E/DX2                !
 ! A272  A(37,77,81)           122.9758         estimate D2E/DX2                !
 ! A273  A(75,77,81)           107.223          estimate D2E/DX2                !
 ! A274  A(38,78,76)           110.1979         estimate D2E/DX2                !
 ! A275  A(38,78,81)           109.5597         estimate D2E/DX2                !
 ! A276  A(38,78,98)           108.8365         estimate D2E/DX2                !
 ! A277  A(76,78,81)           101.371          estimate D2E/DX2                !
 ! A278  A(76,78,98)           113.403          estimate D2E/DX2                !
 ! A279  A(81,78,98)           113.2753         estimate D2E/DX2                !
 ! A280  A(39,79,40)           118.4944         estimate D2E/DX2                !
 ! A281  A(39,79,82)           122.5313         estimate D2E/DX2                !
 ! A282  A(40,79,82)           107.7016         estimate D2E/DX2                !
 ! A283  A(41,80,42)           109.0013         estimate D2E/DX2                !
 ! A284  A(41,80,82)           100.7483         estimate D2E/DX2                !
 ! A285  A(41,80,87)           112.2363         estimate D2E/DX2                !
 ! A286  A(42,80,82)           110.323          estimate D2E/DX2                !
 ! A287  A(42,80,87)           110.5641         estimate D2E/DX2                !
 ! A288  A(82,80,87)           113.5383         estimate D2E/DX2                !
 ! A289  A(77,81,78)           111.3276         estimate D2E/DX2                !
 ! A290  A(77,81,82)           119.0857         estimate D2E/DX2                !
 ! A291  A(78,81,82)           122.4581         estimate D2E/DX2                !
 ! A292  A(79,82,80)           111.2582         estimate D2E/DX2                !
 ! A293  A(79,82,81)           119.3974         estimate D2E/DX2                !
 ! A294  A(80,82,81)           122.1364         estimate D2E/DX2                !
 ! A295  A(55,83,57)           120.1432         estimate D2E/DX2                !
 ! A296  A(55,83,84)           115.9838         estimate D2E/DX2                !
 ! A297  A(57,83,84)           119.2924         estimate D2E/DX2                !
 ! A298  A(56,84,58)           116.151          estimate D2E/DX2                !
 ! A299  A(56,84,83)           120.0872         estimate D2E/DX2                !
 ! A300  A(58,84,83)           118.4299         estimate D2E/DX2                !
 ! D1    D(17,1,5,9)            21.8676         estimate D2E/DX2                !
 ! D2    D(17,1,5,29)         -145.5084         estimate D2E/DX2                !
 ! D3    D(23,1,5,9)           134.4601         estimate D2E/DX2                !
 ! D4    D(23,1,5,29)          -32.9159         estimate D2E/DX2                !
 ! D5    D(95,1,5,9)          -102.5756         estimate D2E/DX2                !
 ! D6    D(95,1,5,29)           90.0484         estimate D2E/DX2                !
 ! D7    D(5,1,17,15)          -22.8646         estimate D2E/DX2                !
 ! D8    D(5,1,17,19)          127.9237         estimate D2E/DX2                !
 ! D9    D(23,1,17,15)        -141.9706         estimate D2E/DX2                !
 ! D10   D(23,1,17,19)           8.8177         estimate D2E/DX2                !
 ! D11   D(95,1,17,15)          99.5281         estimate D2E/DX2                !
 ! D12   D(95,1,17,19)        -109.6837         estimate D2E/DX2                !
 ! D13   D(5,1,23,21)         -133.9917         estimate D2E/DX2                !
 ! D14   D(5,1,23,25)           28.8037         estimate D2E/DX2                !
 ! D15   D(17,1,23,21)         -14.039          estimate D2E/DX2                !
 ! D16   D(17,1,23,25)         148.7563         estimate D2E/DX2                !
 ! D17   D(95,1,23,21)         104.8583         estimate D2E/DX2                !
 ! D18   D(95,1,23,25)         -92.3463         estimate D2E/DX2                !
 ! D19   D(43,2,6,10)         -138.4883         estimate D2E/DX2                !
 ! D20   D(43,2,6,15)            9.0757         estimate D2E/DX2                !
 ! D21   D(44,2,6,10)          -22.1661         estimate D2E/DX2                !
 ! D22   D(44,2,6,15)          125.3979         estimate D2E/DX2                !
 ! D23   D(91,2,6,10)          100.7624         estimate D2E/DX2                !
 ! D24   D(91,2,6,15)         -111.6737         estimate D2E/DX2                !
 ! D25   D(6,2,43,13)           -6.6649         estimate D2E/DX2                !
 ! D26   D(6,2,43,39)          149.017          estimate D2E/DX2                !
 ! D27   D(44,2,43,13)        -123.4645         estimate D2E/DX2                !
 ! D28   D(44,2,43,39)          32.2174         estimate D2E/DX2                !
 ! D29   D(91,2,43,13)         114.5693         estimate D2E/DX2                !
 ! D30   D(91,2,43,39)         -89.7488         estimate D2E/DX2                !
 ! D31   D(6,2,44,40)         -147.981          estimate D2E/DX2                !
 ! D32   D(6,2,44,47)           19.3134         estimate D2E/DX2                !
 ! D33   D(43,2,44,40)         -36.9302         estimate D2E/DX2                !
 ! D34   D(43,2,44,47)         130.3642         estimate D2E/DX2                !
 ! D35   D(91,2,44,40)          86.8868         estimate D2E/DX2                !
 ! D36   D(91,2,44,47)        -105.8187         estimate D2E/DX2                !
 ! D37   D(18,3,7,12)           27.3342         estimate D2E/DX2                !
 ! D38   D(18,3,7,30)          144.9077         estimate D2E/DX2                !
 ! D39   D(18,3,7,100)         -95.517          estimate D2E/DX2                !
 ! D40   D(26,3,7,12)         -129.2578         estimate D2E/DX2                !
 ! D41   D(26,3,7,30)          -11.6843         estimate D2E/DX2                !
 ! D42   D(26,3,7,100)         107.891          estimate D2E/DX2                !
 ! D43   D(7,3,18,16)           -5.189          estimate D2E/DX2                !
 ! D44   D(7,3,18,20)         -155.6038         estimate D2E/DX2                !
 ! D45   D(26,3,18,16)         149.0482         estimate D2E/DX2                !
 ! D46   D(26,3,18,20)          -1.3666         estimate D2E/DX2                !
 ! D47   D(7,3,26,24)          158.633          estimate D2E/DX2                !
 ! D48   D(7,3,26,28)            3.9266         estimate D2E/DX2                !
 ! D49   D(18,3,26,24)           1.3538         estimate D2E/DX2                !
 ! D50   D(18,3,26,28)        -153.3525         estimate D2E/DX2                !
 ! D51   D(45,4,8,11)           23.4735         estimate D2E/DX2                !
 ! D52   D(45,4,8,16)         -126.2949         estimate D2E/DX2                !
 ! D53   D(46,4,8,11)          138.8109         estimate D2E/DX2                !
 ! D54   D(46,4,8,16)          -10.9575         estimate D2E/DX2                !
 ! D55   D(88,4,8,11)         -101.0226         estimate D2E/DX2                !
 ! D56   D(88,4,8,16)          109.209          estimate D2E/DX2                !
 ! D57   D(8,4,45,41)          145.3579         estimate D2E/DX2                !
 ! D58   D(8,4,45,48)          -21.0281         estimate D2E/DX2                !
 ! D59   D(46,4,45,41)          35.1292         estimate D2E/DX2                !
 ! D60   D(46,4,45,48)        -131.2568         estimate D2E/DX2                !
 ! D61   D(88,4,45,41)         -88.5214         estimate D2E/DX2                !
 ! D62   D(88,4,45,48)         105.0926         estimate D2E/DX2                !
 ! D63   D(8,4,46,14)           11.1007         estimate D2E/DX2                !
 ! D64   D(8,4,46,42)         -147.1296         estimate D2E/DX2                !
 ! D65   D(45,4,46,14)         127.9189         estimate D2E/DX2                !
 ! D66   D(45,4,46,42)         -30.3114         estimate D2E/DX2                !
 ! D67   D(88,4,46,14)        -109.6613         estimate D2E/DX2                !
 ! D68   D(88,4,46,42)          92.1084         estimate D2E/DX2                !
 ! D69   D(1,5,9,13)           -10.8126         estimate D2E/DX2                !
 ! D70   D(1,5,9,35)          -168.4383         estimate D2E/DX2                !
 ! D71   D(29,5,9,13)          156.2655         estimate D2E/DX2                !
 ! D72   D(29,5,9,35)           -1.3602         estimate D2E/DX2                !
 ! D73   D(1,5,29,27)           11.075          estimate D2E/DX2                !
 ! D74   D(1,5,29,31)          174.3919         estimate D2E/DX2                !
 ! D75   D(9,5,29,27)         -156.4099         estimate D2E/DX2                !
 ! D76   D(9,5,29,31)            6.907          estimate D2E/DX2                !
 ! D77   D(2,6,10,49)           -0.8713         estimate D2E/DX2                !
 ! D78   D(2,6,10,53)          145.1982         estimate D2E/DX2                !
 ! D79   D(15,6,10,49)        -145.4194         estimate D2E/DX2                !
 ! D80   D(15,6,10,53)           0.6502         estimate D2E/DX2                !
 ! D81   D(2,6,15,13)           -8.5228         estimate D2E/DX2                !
 ! D82   D(2,6,15,17)         -153.8862         estimate D2E/DX2                !
 ! D83   D(10,6,15,13)         140.0716         estimate D2E/DX2                !
 ! D84   D(10,6,15,17)          -5.2918         estimate D2E/DX2                !
 ! D85   D(3,7,12,14)          -31.2245         estimate D2E/DX2                !
 ! D86   D(3,7,12,36)          134.8254         estimate D2E/DX2                !
 ! D87   D(30,7,12,14)        -143.0669         estimate D2E/DX2                !
 ! D88   D(30,7,12,36)          22.983          estimate D2E/DX2                !
 ! D89   D(100,7,12,14)         92.7801         estimate D2E/DX2                !
 ! D90   D(100,7,12,36)       -101.17           estimate D2E/DX2                !
 ! D91   D(3,7,30,28)           15.7554         estimate D2E/DX2                !
 ! D92   D(3,7,30,32)         -143.7878         estimate D2E/DX2                !
 ! D93   D(12,7,30,28)         133.8613         estimate D2E/DX2                !
 ! D94   D(12,7,30,32)         -25.6819         estimate D2E/DX2                !
 ! D95   D(100,7,30,28)       -103.4527         estimate D2E/DX2                !
 ! D96   D(100,7,30,32)         97.0041         estimate D2E/DX2                !
 ! D97   D(4,8,11,50)            1.9271         estimate D2E/DX2                !
 ! D98   D(4,8,11,54)         -145.1964         estimate D2E/DX2                !
 ! D99   D(16,8,11,50)         148.9605         estimate D2E/DX2                !
 ! D100  D(16,8,11,54)           1.837          estimate D2E/DX2                !
 ! D101  D(4,8,16,14)            7.1157         estimate D2E/DX2                !
 ! D102  D(4,8,16,18)          150.9929         estimate D2E/DX2                !
 ! D103  D(11,8,16,14)        -142.9991         estimate D2E/DX2                !
 ! D104  D(11,8,16,18)           0.8781         estimate D2E/DX2                !
 ! D105  D(5,9,13,15)           -1.3469         estimate D2E/DX2                !
 ! D106  D(5,9,13,43)         -146.58           estimate D2E/DX2                !
 ! D107  D(35,9,13,15)         157.2188         estimate D2E/DX2                !
 ! D108  D(35,9,13,43)          11.9857         estimate D2E/DX2                !
 ! D109  D(5,9,35,33)           -6.7953         estimate D2E/DX2                !
 ! D110  D(5,9,35,37)          149.8753         estimate D2E/DX2                !
 ! D111  D(13,9,35,33)        -165.01           estimate D2E/DX2                !
 ! D112  D(13,9,35,37)          -8.3394         estimate D2E/DX2                !
 ! D113  D(6,10,49,47)          26.7288         estimate D2E/DX2                !
 ! D114  D(6,10,49,51)         142.1224         estimate D2E/DX2                !
 ! D115  D(6,10,49,90)         -95.5682         estimate D2E/DX2                !
 ! D116  D(53,10,49,47)       -121.8101         estimate D2E/DX2                !
 ! D117  D(53,10,49,51)         -6.4165         estimate D2E/DX2                !
 ! D118  D(53,10,49,90)        115.8929         estimate D2E/DX2                !
 ! D119  D(6,10,53,19)           4.0095         estimate D2E/DX2                !
 ! D120  D(6,10,53,55)        -142.4431         estimate D2E/DX2                !
 ! D121  D(49,10,53,19)        154.2506         estimate D2E/DX2                !
 ! D122  D(49,10,53,55)          7.798          estimate D2E/DX2                !
 ! D123  D(8,11,50,48)         -29.6754         estimate D2E/DX2                !
 ! D124  D(8,11,50,52)        -145.2773         estimate D2E/DX2                !
 ! D125  D(8,11,50,89)          92.8735         estimate D2E/DX2                !
 ! D126  D(54,11,50,48)        119.7303         estimate D2E/DX2                !
 ! D127  D(54,11,50,52)          4.1285         estimate D2E/DX2                !
 ! D128  D(54,11,50,89)       -117.7208         estimate D2E/DX2                !
 ! D129  D(8,11,54,20)          -2.6992         estimate D2E/DX2                !
 ! D130  D(8,11,54,56)         146.6929         estimate D2E/DX2                !
 ! D131  D(50,11,54,20)       -153.5369         estimate D2E/DX2                !
 ! D132  D(50,11,54,56)         -4.1448         estimate D2E/DX2                !
 ! D133  D(7,12,14,16)          16.002          estimate D2E/DX2                !
 ! D134  D(7,12,14,46)         165.9435         estimate D2E/DX2                !
 ! D135  D(36,12,14,16)       -150.689          estimate D2E/DX2                !
 ! D136  D(36,12,14,46)         -0.7475         estimate D2E/DX2                !
 ! D137  D(7,12,36,34)           6.189          estimate D2E/DX2                !
 ! D138  D(7,12,36,38)        -164.0108         estimate D2E/DX2                !
 ! D139  D(14,12,36,34)        171.9389         estimate D2E/DX2                !
 ! D140  D(14,12,36,38)          1.7391         estimate D2E/DX2                !
 ! D141  D(9,13,15,6)         -145.3136         estimate D2E/DX2                !
 ! D142  D(9,13,15,17)           0.6597         estimate D2E/DX2                !
 ! D143  D(43,13,15,6)           4.0607         estimate D2E/DX2                !
 ! D144  D(43,13,15,17)        150.0339         estimate D2E/DX2                !
 ! D145  D(9,13,43,2)          150.88           estimate D2E/DX2                !
 ! D146  D(9,13,43,39)          -5.4202         estimate D2E/DX2                !
 ! D147  D(15,13,43,2)           1.9485         estimate D2E/DX2                !
 ! D148  D(15,13,43,39)       -154.3518         estimate D2E/DX2                !
 ! D149  D(12,14,16,8)         153.534          estimate D2E/DX2                !
 ! D150  D(12,14,16,18)          8.0324         estimate D2E/DX2                !
 ! D151  D(46,14,16,8)           0.3889         estimate D2E/DX2                !
 ! D152  D(46,14,16,18)       -145.1127         estimate D2E/DX2                !
 ! D153  D(12,14,46,4)        -161.6298         estimate D2E/DX2                !
 ! D154  D(12,14,46,42)         -1.9231         estimate D2E/DX2                !
 ! D155  D(16,14,46,4)          -7.632          estimate D2E/DX2                !
 ! D156  D(16,14,46,42)        152.0747         estimate D2E/DX2                !
 ! D157  D(6,15,17,1)          154.0427         estimate D2E/DX2                !
 ! D158  D(6,15,17,19)           5.2205         estimate D2E/DX2                !
 ! D159  D(13,15,17,1)          12.5282         estimate D2E/DX2                !
 ! D160  D(13,15,17,19)       -136.2941         estimate D2E/DX2                !
 ! D161  D(8,16,18,3)         -153.6797         estimate D2E/DX2                !
 ! D162  D(8,16,18,20)          -2.6937         estimate D2E/DX2                !
 ! D163  D(14,16,18,3)         -13.4438         estimate D2E/DX2                !
 ! D164  D(14,16,18,20)        137.5422         estimate D2E/DX2                !
 ! D165  D(1,17,19,21)          -0.7986         estimate D2E/DX2                !
 ! D166  D(1,17,19,53)        -152.2692         estimate D2E/DX2                !
 ! D167  D(15,17,19,21)        150.9303         estimate D2E/DX2                !
 ! D168  D(15,17,19,53)         -0.5402         estimate D2E/DX2                !
 ! D169  D(3,18,20,22)           1.9727         estimate D2E/DX2                !
 ! D170  D(3,18,20,54)         152.2602         estimate D2E/DX2                !
 ! D171  D(16,18,20,22)       -148.4828         estimate D2E/DX2                !
 ! D172  D(16,18,20,54)          1.8048         estimate D2E/DX2                !
 ! D173  D(17,19,21,23)         -7.6293         estimate D2E/DX2                !
 ! D174  D(17,19,21,57)       -126.6691         estimate D2E/DX2                !
 ! D175  D(17,19,21,97)        110.7174         estimate D2E/DX2                !
 ! D176  D(53,19,21,23)        142.8948         estimate D2E/DX2                !
 ! D177  D(53,19,21,57)         23.855          estimate D2E/DX2                !
 ! D178  D(53,19,21,97)        -98.7586         estimate D2E/DX2                !
 ! D179  D(17,19,53,10)         -4.0878         estimate D2E/DX2                !
 ! D180  D(17,19,53,55)        138.6817         estimate D2E/DX2                !
 ! D181  D(21,19,53,10)       -152.4626         estimate D2E/DX2                !
 ! D182  D(21,19,53,55)         -9.6931         estimate D2E/DX2                !
 ! D183  D(18,20,22,24)         -2.6798         estimate D2E/DX2                !
 ! D184  D(18,20,22,58)        141.0519         estimate D2E/DX2                !
 ! D185  D(54,20,22,24)       -153.7308         estimate D2E/DX2                !
 ! D186  D(54,20,22,58)         -9.9991         estimate D2E/DX2                !
 ! D187  D(18,20,54,11)          0.8287         estimate D2E/DX2                !
 ! D188  D(18,20,54,56)       -144.5774         estimate D2E/DX2                !
 ! D189  D(22,20,54,11)        151.5402         estimate D2E/DX2                !
 ! D190  D(22,20,54,56)          6.1341         estimate D2E/DX2                !
 ! D191  D(19,21,23,1)          13.6442         estimate D2E/DX2                !
 ! D192  D(19,21,23,25)       -149.135          estimate D2E/DX2                !
 ! D193  D(57,21,23,1)         133.2993         estimate D2E/DX2                !
 ! D194  D(57,21,23,25)        -29.4799         estimate D2E/DX2                !
 ! D195  D(97,21,23,1)        -105.3888         estimate D2E/DX2                !
 ! D196  D(97,21,23,25)         91.8321         estimate D2E/DX2                !
 ! D197  D(19,21,57,59)        142.5092         estimate D2E/DX2                !
 ! D198  D(19,21,57,83)        -24.3426         estimate D2E/DX2                !
 ! D199  D(23,21,57,59)         29.883          estimate D2E/DX2                !
 ! D200  D(23,21,57,83)       -136.9688         estimate D2E/DX2                !
 ! D201  D(97,21,57,59)        -92.9131         estimate D2E/DX2                !
 ! D202  D(97,21,57,83)        100.2351         estimate D2E/DX2                !
 ! D203  D(20,22,24,26)          2.6957         estimate D2E/DX2                !
 ! D204  D(20,22,24,62)        152.8496         estimate D2E/DX2                !
 ! D205  D(58,22,24,26)       -145.0799         estimate D2E/DX2                !
 ! D206  D(58,22,24,62)          5.074          estimate D2E/DX2                !
 ! D207  D(20,22,58,60)       -146.1662         estimate D2E/DX2                !
 ! D208  D(20,22,58,84)          4.2814         estimate D2E/DX2                !
 ! D209  D(24,22,58,60)          1.9264         estimate D2E/DX2                !
 ! D210  D(24,22,58,84)        152.3739         estimate D2E/DX2                !
 ! D211  D(1,23,25,27)          -0.8409         estimate D2E/DX2                !
 ! D212  D(1,23,25,61)        -156.9419         estimate D2E/DX2                !
 ! D213  D(21,23,25,27)        160.2598         estimate D2E/DX2                !
 ! D214  D(21,23,25,61)          4.1588         estimate D2E/DX2                !
 ! D215  D(22,24,26,3)          -1.9704         estimate D2E/DX2                !
 ! D216  D(22,24,26,28)        150.2602         estimate D2E/DX2                !
 ! D217  D(62,24,26,3)        -148.5477         estimate D2E/DX2                !
 ! D218  D(62,24,26,28)          3.6829         estimate D2E/DX2                !
 ! D219  D(22,24,62,60)         -9.2964         estimate D2E/DX2                !
 ! D220  D(22,24,62,64)       -125.1934         estimate D2E/DX2                !
 ! D221  D(22,24,62,94)        111.1776         estimate D2E/DX2                !
 ! D222  D(26,24,62,60)        139.9675         estimate D2E/DX2                !
 ! D223  D(26,24,62,64)         24.0705         estimate D2E/DX2                !
 ! D224  D(26,24,62,94)        -99.5584         estimate D2E/DX2                !
 ! D225  D(23,25,27,29)        -22.3074         estimate D2E/DX2                !
 ! D226  D(23,25,27,65)       -136.7522         estimate D2E/DX2                !
 ! D227  D(23,25,27,93)        103.5154         estimate D2E/DX2                !
 ! D228  D(61,25,27,29)        135.9932         estimate D2E/DX2                !
 ! D229  D(61,25,27,65)         21.5484         estimate D2E/DX2                !
 ! D230  D(61,25,27,93)        -98.1841         estimate D2E/DX2                !
 ! D231  D(23,25,61,59)         20.2316         estimate D2E/DX2                !
 ! D232  D(23,25,61,63)        135.9713         estimate D2E/DX2                !
 ! D233  D(23,25,61,96)       -105.2037         estimate D2E/DX2                !
 ! D234  D(27,25,61,59)       -138.0403         estimate D2E/DX2                !
 ! D235  D(27,25,61,63)        -22.3006         estimate D2E/DX2                !
 ! D236  D(27,25,61,96)         96.5244         estimate D2E/DX2                !
 ! D237  D(3,26,28,30)           5.7049         estimate D2E/DX2                !
 ! D238  D(3,26,28,66)         122.6754         estimate D2E/DX2                !
 ! D239  D(3,26,28,85)        -115.009          estimate D2E/DX2                !
 ! D240  D(24,26,28,30)       -148.5068         estimate D2E/DX2                !
 ! D241  D(24,26,28,66)        -31.5363         estimate D2E/DX2                !
 ! D242  D(24,26,28,85)         90.7794         estimate D2E/DX2                !
 ! D243  D(25,27,29,5)          16.6863         estimate D2E/DX2                !
 ! D244  D(25,27,29,31)       -147.1231         estimate D2E/DX2                !
 ! D245  D(65,27,29,5)         126.338          estimate D2E/DX2                !
 ! D246  D(65,27,29,31)        -37.4714         estimate D2E/DX2                !
 ! D247  D(93,27,29,5)        -109.8478         estimate D2E/DX2                !
 ! D248  D(93,27,29,31)         86.3428         estimate D2E/DX2                !
 ! D249  D(25,27,65,63)        -11.8144         estimate D2E/DX2                !
 ! D250  D(25,27,65,67)        150.7398         estimate D2E/DX2                !
 ! D251  D(29,27,65,63)       -129.4129         estimate D2E/DX2                !
 ! D252  D(29,27,65,67)         33.1414         estimate D2E/DX2                !
 ! D253  D(93,27,65,63)        107.728          estimate D2E/DX2                !
 ! D254  D(93,27,65,67)        -89.7177         estimate D2E/DX2                !
 ! D255  D(26,28,30,7)         -13.5984         estimate D2E/DX2                !
 ! D256  D(26,28,30,32)        145.8517         estimate D2E/DX2                !
 ! D257  D(66,28,30,7)        -129.9623         estimate D2E/DX2                !
 ! D258  D(66,28,30,32)         29.4878         estimate D2E/DX2                !
 ! D259  D(85,28,30,7)         107.3948         estimate D2E/DX2                !
 ! D260  D(85,28,30,32)        -93.1551         estimate D2E/DX2                !
 ! D261  D(26,28,66,64)         31.2963         estimate D2E/DX2                !
 ! D262  D(26,28,66,68)       -139.5102         estimate D2E/DX2                !
 ! D263  D(30,28,66,64)        141.9453         estimate D2E/DX2                !
 ! D264  D(30,28,66,68)        -28.8613         estimate D2E/DX2                !
 ! D265  D(85,28,66,64)        -93.3493         estimate D2E/DX2                !
[...]
 Alpha virt. eigenvalues --    1.54550   1.54729   1.55549   1.55688   1.56253
 Alpha virt. eigenvalues --    1.56425   1.57222   1.58016   1.58482   1.58741
 Alpha virt. eigenvalues --    1.58897   1.59738   1.60307   1.60677   1.60926
 Alpha virt. eigenvalues --    1.61464   1.61822   1.62123   1.62395   1.62547
 Alpha virt. eigenvalues --    1.62704   1.63131   1.63346   1.63686   1.63996
 Alpha virt. eigenvalues --    1.64302   1.64486   1.64740   1.64826   1.65041
 Alpha virt. eigenvalues --    1.65375   1.65747   1.66073   1.66163   1.66260
 Alpha virt. eigenvalues --    1.66356   1.66853   1.67115   1.67353   1.67476
 Alpha virt. eigenvalues --    1.67555   1.67772   1.68131   1.68360   1.68453
 Alpha virt. eigenvalues --    1.68623   1.68723   1.68988   1.69406   1.69730
 Alpha virt. eigenvalues --    1.70012   1.70291   1.70363   1.70489   1.70629
 Alpha virt. eigenvalues --    1.70955   1.71277   1.71401   1.71673   1.71995
 Alpha virt. eigenvalues --    1.72191   1.72548   1.72757   1.73023   1.73064
 Alpha virt. eigenvalues --    1.73230   1.73521   1.74044   1.74185   1.74337
 Alpha virt. eigenvalues --    1.74555   1.74864   1.75131   1.75323   1.75461
 Alpha virt. eigenvalues --    1.75594   1.75755   1.76024   1.76429   1.76434
 Alpha virt. eigenvalues --    1.76630   1.76790   1.76946   1.77106   1.77330
 Alpha virt. eigenvalues --    1.77644   1.77897   1.78095   1.78292   1.78448
 Alpha virt. eigenvalues --    1.79016   1.79236   1.79393   1.79686   1.80030
 Alpha virt. eigenvalues --    1.80333   1.80625   1.80649   1.80935   1.81078
 Alpha virt. eigenvalues --    1.81115   1.81596   1.81727   1.82042   1.82096
 Alpha virt. eigenvalues --    1.82372   1.82760   1.83203   1.83376   1.83829
 Alpha virt. eigenvalues --    1.83887   1.84581   1.84768   1.84869   1.84987
 Alpha virt. eigenvalues --    1.85448   1.85710   1.85850   1.86197   1.86578
 Alpha virt. eigenvalues --    1.87088   1.87376   1.87572   1.87884   1.87954
 Alpha virt. eigenvalues --    1.88235   1.88779   1.88836   1.89384   1.89761
 Alpha virt. eigenvalues --    1.90011   1.90507   1.90639   1.90747   1.91131
 Alpha virt. eigenvalues --    1.91658   1.92095   1.92337   1.92804   1.93143
 Alpha virt. eigenvalues --    1.93595   1.93695   1.94073   1.94859   1.95415
 Alpha virt. eigenvalues --    1.95563   1.95928   1.96444   1.96609   1.96799
 Alpha virt. eigenvalues --    1.97029   1.97624   1.98023   1.98444   1.98753
 Alpha virt. eigenvalues --    1.99268   1.99642   1.99918   2.00122   2.00288
 Alpha virt. eigenvalues --    2.00623   2.01188   2.01768   2.01911   2.02161
 Alpha virt. eigenvalues --    2.02396   2.02692   2.02862   2.03468   2.03683
 Alpha virt. eigenvalues --    2.03836   2.04193   2.04447   2.05077   2.05498
 Alpha virt. eigenvalues --    2.05651   2.05893   2.06503   2.06933   2.07235
 Alpha virt. eigenvalues --    2.07439   2.07969   2.08301   2.08498   2.08779
 Alpha virt. eigenvalues --    2.09008   2.09440   2.09806   2.10606   2.10703
 Alpha virt. eigenvalues --    2.11337   2.11700   2.11873   2.12093   2.12583
 Alpha virt. eigenvalues --    2.13051   2.13460   2.13730   2.13990   2.14486
 Alpha virt. eigenvalues --    2.14599   2.15010   2.15334   2.15666   2.16025
 Alpha virt. eigenvalues --    2.16399   2.16820   2.17202   2.17635   2.18429
 Alpha virt. eigenvalues --    2.18491   2.18804   2.19118   2.19844   2.20129
 Alpha virt. eigenvalues --    2.20317   2.20742   2.21394   2.21893   2.22291
 Alpha virt. eigenvalues --    2.22629   2.22732   2.23516   2.23880   2.24272
 Alpha virt. eigenvalues --    2.24381   2.24631   2.25255   2.25758   2.26087
 Alpha virt. eigenvalues --    2.26580   2.27192   2.27402   2.27558   2.28251
 Alpha virt. eigenvalues --    2.28527   2.29056   2.29561   2.29603   2.29652
 Alpha virt. eigenvalues --    2.30130   2.30672   2.31310   2.31683   2.32097
 Alpha virt. eigenvalues --    2.33004   2.33099   2.33853   2.34180   2.34884
 Alpha virt. eigenvalues --    2.36212   2.36502   2.36707   2.37063   2.37298
 Alpha virt. eigenvalues --    2.38159   2.38652   2.39176   2.39320   2.39439
 Alpha virt. eigenvalues --    2.40411   2.40970   2.41351   2.41589   2.42054
 Alpha virt. eigenvalues --    2.42610   2.43245   2.43587   2.44389   2.44803
 Alpha virt. eigenvalues --    2.45173   2.45223   2.46074   2.46619   2.47340
 Alpha virt. eigenvalues --    2.47641   2.47842   2.48182   2.48805   2.49091
 Alpha virt. eigenvalues --    2.49345   2.50056   2.50316   2.50864   2.51316
 Alpha virt. eigenvalues --    2.51834   2.52007   2.52888   2.53118   2.53530
 Alpha virt. eigenvalues --    2.53793   2.54173   2.54759   2.55086   2.55650
 Alpha virt. eigenvalues --    2.55719   2.56150   2.56478   2.56828   2.57290
 Alpha virt. eigenvalues --    2.57611   2.57793   2.58221   2.58658   2.58887
 Alpha virt. eigenvalues --    2.59151   2.59307   2.59597   2.59895   2.60355
 Alpha virt. eigenvalues --    2.60380   2.60775   2.61171   2.61562   2.62263
 Alpha virt. eigenvalues --    2.62553   2.62902   2.63121   2.63800   2.64229
 Alpha virt. eigenvalues --    2.64504   2.65033   2.65115   2.65810   2.66364
 Alpha virt. eigenvalues --    2.66622   2.66884   2.67094   2.67571   2.67630
 Alpha virt. eigenvalues --    2.67918   2.68613   2.68883   2.69008   2.69348
 Alpha virt. eigenvalues --    2.69877   2.70062   2.70743   2.70832   2.71315
 Alpha virt. eigenvalues --    2.71792   2.72269   2.72550   2.72749   2.72997
 Alpha virt. eigenvalues --    2.73325   2.73618   2.73983   2.74272   2.74751
 Alpha virt. eigenvalues --    2.74933   2.75173   2.75518   2.76173   2.76672
 Alpha virt. eigenvalues --    2.77016   2.77571   2.77782   2.78170   2.78410
 Alpha virt. eigenvalues --    2.79120   2.79419   2.79713   2.79965   2.80169
 Alpha virt. eigenvalues --    2.80916   2.81472   2.82024   2.82756   2.83187
 Alpha virt. eigenvalues --    2.83954   2.84263   2.84517   2.84720   2.85316
 Alpha virt. eigenvalues --    2.85641   2.86041   2.86353   2.87292   2.87819
 Alpha virt. eigenvalues --    2.88362   2.89042   2.89316   2.90340   2.90698
 Alpha virt. eigenvalues --    2.91319   2.91730   2.91996   2.92482   2.93359
 Alpha virt. eigenvalues --    2.93795   2.94214   2.95719   2.96441   2.96783
 Alpha virt. eigenvalues --    2.97291   2.98984   2.99568   3.00421   3.01152
 Alpha virt. eigenvalues --    3.02649   3.04437   3.05396   3.06614   3.08172
 Alpha virt. eigenvalues --    3.08984   3.09644   3.10688   3.11711   3.13157
 Alpha virt. eigenvalues --    3.14156   3.14474   3.16133   3.17473   3.18392
 Alpha virt. eigenvalues --    3.19035   3.21316   3.22353   3.23068   3.24039
 Alpha virt. eigenvalues --    3.25086   3.27238   3.28898   3.32500   3.32720
 Alpha virt. eigenvalues --    3.35120   3.35859   3.39801   3.41422   3.42144
 Alpha virt. eigenvalues --    3.43484   3.46769   3.48753   3.51054   3.52676
 Alpha virt. eigenvalues --    3.54272   4.00555   4.01280   4.02512   4.03109
 Alpha virt. eigenvalues --    4.03243   4.04539   4.04953   4.05578   4.05967
 Alpha virt. eigenvalues --    4.07230   4.07770   4.08397   4.09001   4.09709
 Alpha virt. eigenvalues --    4.10594   4.11172   4.12477   4.12585   4.13149
 Alpha virt. eigenvalues --    4.13410   4.14535   4.15350   4.15901   4.16795
 Alpha virt. eigenvalues --    4.17810   4.18383   4.19078   4.19796   4.20077
 Alpha virt. eigenvalues --    4.20272   4.20825   4.22372   4.23231   4.23559
 Alpha virt. eigenvalues --    4.25009   4.25358   4.25827   4.25880   4.26325
 Alpha virt. eigenvalues --    4.26833   4.27297   4.27583   4.28300   4.28447
 Alpha virt. eigenvalues --    4.28932   4.29250   4.29841   4.30542   4.31110
 Alpha virt. eigenvalues --    4.32322   4.32766   4.34163   4.36041   4.36272
 Alpha virt. eigenvalues --    4.36573   4.37705   4.39079   4.40072   4.40475
 Alpha virt. eigenvalues --    4.41244   4.41893   4.42463   4.43022   4.43484
 Alpha virt. eigenvalues --    4.44590   4.44990   4.46471   4.47641   4.48437
 Alpha virt. eigenvalues --    4.51340   4.52105   4.52843   4.54158   4.54685
 Alpha virt. eigenvalues --    4.56402   4.58775   4.59271   4.60916   4.62063
 Alpha virt. eigenvalues --    4.64781   4.65425   4.66206   4.68407   4.69924
 Alpha virt. eigenvalues --    4.73647   4.77864   4.79484   4.80615   4.82445
 Alpha virt. eigenvalues --    4.83366   4.85222   4.90081   4.92339   4.96008
 Alpha virt. eigenvalues --    4.96944   5.02130   5.05643   5.11826   5.14773
 Alpha virt. eigenvalues --    5.18659
          Condensed to atoms (all electrons):
 Mulliken charges:
               1
     1  C   -0.353185
     2  C   -0.369377
     3  C    0.078736
     4  C   -0.387269
     5  C    0.086931
     6  C    0.093194
     7  C   -0.356737
     8  C    0.095126
     9  C    0.061992
    10  C    0.096204
    11  C    0.088615
    12  C    0.125266
    13  C   -0.003997
    14  C    0.042579
    15  C    0.027246
    16  C   -0.009844
    17  C    0.103023
    18  C    0.062725
    19  C    0.104626
    20  C    0.047352
    21  C   -0.353129
    22  C    0.014166
    23  C    0.177927
    24  C    0.080380
    25  C    0.187612
    26  C    0.132263
    27  C   -0.377115
    28  C   -0.378878
    29  C    0.152718
    30  C    0.191069
    31  C    0.083483
    32  C    0.175542
    33  C    0.005848
    34  C   -0.370426
    35  C    0.034076
    36  C    0.123684
    37  C    0.045599
    38  C    0.117580
    39  C    0.059571
    40  C    0.043138
    41  C    0.082183
    42  C    0.150367
    43  C    0.051774
    44  C    0.120113
    45  C    0.149923
    46  C    0.080980
    47  C    0.122983
    48  C    0.118696
    49  C   -0.379982
    50  C   -0.380927
    51  C    0.096517
    52  C    0.087616
    53  C    0.033009
    54  C    0.008823
    55  C   -0.013650
    56  C    0.013908
    57  C    0.092083
    58  C    0.005665
    59  C    0.152209
    60  C    0.081128
    61  C   -0.378609
    62  C   -0.394742
    63  C    0.111256
    64  C    0.150131
    65  C    0.118303
    66  C    0.124626
    67  C    0.148341
    68  C    0.121491
    69  C   -0.390061
    70  C   -0.373458
    71  C    0.086069
    72  C    0.126196
    73  C    0.014159
    74  C    0.124018
    75  C    0.018886
    76  C    0.087862
    77  C    0.005937
    78  C   -0.379563
    79  C   -0.006423
    80  C   -0.387355
    81  C    0.091018
    82  C    0.094062
    83  C    0.070878
    84  C    0.041524
    85  Cl   0.029714
    86  Cl   0.024454
    87  Cl   0.026426
    88  Cl   0.027605
    89  Cl   0.022251
    90  Cl   0.023187
    91  Cl   0.006531
    92  Cl   0.028198
    93  Cl   0.031100
    94  Cl   0.030883
    95  Cl   0.003868
    96  Cl   0.030778
    97  Cl  -0.000740
    98  Cl   0.016315
    99  Cl   0.023024
   100  Cl   0.000130
 Sum of Mulliken charges =  -0.00000
 Mulliken charges with hydrogens summed into heavy atoms:
               1
     1  C   -0.353185
     2  C   -0.369377
     3  C    0.078736
     4  C   -0.387269
     5  C    0.086931
     6  C    0.093194
     7  C   -0.356737
     8  C    0.095126
     9  C    0.061992
    10  C    0.096204
    11  C    0.088615
    12  C    0.125266
    13  C   -0.003997
    14  C    0.042579
    15  C    0.027246
    16  C   -0.009844
    17  C    0.103023
    18  C    0.062725
    19  C    0.104626
    20  C    0.047352
    21  C   -0.353129
    22  C    0.014166
    23  C    0.177927
    24  C    0.080380
    25  C    0.187612
    26  C    0.132263
    27  C   -0.377115
    28  C   -0.378878
    29  C    0.152718
    30  C    0.191069
    31  C    0.083483
    32  C    0.175542
    33  C    0.005848
    34  C   -0.370426
    35  C    0.034076
    36  C    0.123684
    37  C    0.045599
    38  C    0.117580
    39  C    0.059571
    40  C    0.043138
    41  C    0.082183
    42  C    0.150367
    43  C    0.051774
    44  C    0.120113
    45  C    0.149923
    46  C    0.080980
    47  C    0.122983
    48  C    0.118696
    49  C   -0.379982
    50  C   -0.380927
    51  C    0.096517
    52  C    0.087616
    53  C    0.033009
    54  C    0.008823
    55  C   -0.013650
    56  C    0.013908
    57  C    0.092083
    58  C    0.005665
    59  C    0.152209
    60  C    0.081128
    61  C   -0.378609
    62  C   -0.394742
    63  C    0.111256
    64  C    0.150131
    65  C    0.118303
    66  C    0.124626
    67  C    0.148341
    68  C    0.121491
    69  C   -0.390061
    70  C   -0.373458
    71  C    0.086069
    72  C    0.126196
    73  C    0.014159
    74  C    0.124018
    75  C    0.018886
    76  C    0.087862
    77  C    0.005937
    78  C   -0.379563
    79  C   -0.006423
    80  C   -0.387355
    81  C    0.091018
    82  C    0.094062
    83  C    0.070878
    84  C    0.041524
    85  Cl   0.029714
    86  Cl   0.024454
    87  Cl   0.026426
    88  Cl   0.027605
    89  Cl   0.022251
    90  Cl   0.023187
    91  Cl   0.006531
    92  Cl   0.028198
    93  Cl   0.031100
    94  Cl   0.030883
    95  Cl   0.003868
    96  Cl   0.030778
    97  Cl  -0.000740
    98  Cl   0.016315
    99  Cl   0.023024
   100  Cl   0.000130
 Electronic spatial extent (au):  <R**2>=          72140.1924
 Charge=             -0.0000 electrons
 Dipole moment (field-independent basis, Debye):
    X=             -2.0175    Y=              0.7157    Z=             -0.2220  Tot=              2.1521
 Quadrupole moment (field-independent basis, Debye-Ang):
   XX=           -711.0649   YY=           -713.0570   ZZ=           -660.8203
   XY=             -3.9719   XZ=             -3.7878   YZ=              3.3952
 Traceless Quadrupole moment (field-independent basis, Debye-Ang):
   XX=            -16.0842   YY=            -18.0762   ZZ=             34.1604
   XY=             -3.9719   XZ=             -3.7878   YZ=              3.3952
 Octapole moment (field-independent basis, Debye-Ang**2):
  XXX=             79.7502  YYY=            -25.0380  ZZZ=              2.5463  XYY=            -35.6752
  XXY=              3.5588  XXZ=            -10.5849  XZZ=              0.2132  YZZ=              1.5521
  YYZ=             24.5389  XYZ=              9.2359
 Hexadecapole moment (field-independent basis, Debye-Ang**3):
 XXXX=         -38619.3282 YYYY=         -38380.9249 ZZZZ=         -24363.4308 XXXY=            236.0877
 XXXZ=             99.9847 YYYX=             41.8457 YYYZ=            -12.3005 ZZZX=            -43.1568
 ZZZY=             22.9548 XXYY=         -12803.7426 XXZZ=         -10632.3221 YYZZ=         -10475.5278
 XXYZ=             55.5394 YYXZ=            -49.6889 ZZXY=             16.9276
 N-N= 2.801166676880D+04 E-N=-8.091231228124D+04  KE= 1.051181845341D+04
 No NMR shielding tensors so no spin-rotation constants.
 Leave Link  601 at Tue Jun 28 11:39:40 2022, MaxMem=  1342177280 cpu:              27.8 elap:               1.4
 (Enter /home/mkliu/g16/l9999.exe)
 1\1\GINC-NODE03\FOpt\RB3LYP\6-31G(d,p)\C84Cl16\MKLIU\28-Jun-2022\0\\#P
  opt b3lyp/6-31G(d, p) empiricaldispersion=GD3\\force\\0,1\C,8.4359092
 878,18.6225666439,10.8134168876\C,12.5917062435,19.9747102111,8.902073
 1902\C,8.2613273016,26.8674630156,10.5041595717\C,12.4944722939,25.755
 7562941,8.9189375311\C,8.0271191868,19.1331085076,9.4322562994\C,12.08
 60792897,19.460130384,10.2294773009\C,7.8948430805,27.1149160838,9.056
 1566332\C,11.8772456308,26.2110899359,10.2246310068\C,8.9871238029,19.
 2324725574,8.3756702249\C,12.3515867128,20.1038218073,11.4118747136\C,
 12.1396140755,25.5470483266,11.4139078308\C,8.9779521518,26.6161925981
 ,8.1166519521\C,10.3857257498,19.0684612791,8.6826769408\C,10.28851223
 4,26.6506721668,8.5920664438\C,10.8321975843,18.8260406504,10.04532628
 33\C,10.6341503148,26.8122940029,10.0041494413\C,9.9095372443,18.75443
 31513,11.071454471\C,9.5997095675,26.7777653404,10.9756086965\C,10.175
 9669906,19.4071714866,12.2834754739\C,9.8553388163,26.0526177872,12.19
 31407932\C,8.9101704379,19.8193700289,12.9834696035\C,8.7566622138,25.
 4293388101,12.8426012756\C,7.8703140624,19.4852537299,11.9284385287\C,
 7.4576906054,25.5509565895,12.3646265882\C,6.751341514,20.1814592211,1
 1.7866732753\C,7.2195794525,26.2493751937,11.1837209279\C,5.9460901232
 ,20.1609090808,10.51196241\C,6.0639392951,25.914107783,10.2749617773\C
 ,6.7705760747,19.7556121301,9.301728309\C,6.6354626347,26.2961300433,8
 .9279708439\C,6.4222418301,20.3417156207,8.0881987086\C,6.3382755319,2
 5.6324703627,7.8185412043\C,7.3358640313,20.3971654664,7.0254286991\C,
 7.219993308,25.6637107089,6.5823809267\C,8.6695828864,19.9418846095,7.
 1652138249\C,8.6925654172,25.8574595969,6.9623469173\C,9.7158202796,20
 .6149092594,6.398149563\C,9.7204208967,25.1177395904,6.3291762639\C,11
 .0679882289,20.5796143886,6.885927947\C,12.7222887953,22.1815453266,7.
 8023899372\C,12.7479232921,23.5795127227,7.7886474604\C,11.0415872737,
 25.1450665128,6.8552482024\C,11.3723946883,19.7492902824,7.9985402382\
 C,12.9211327092,21.4565508251,8.9772581089\C,12.8919389694,24.29028443
 7,8.9716200395\C,11.3153076297,25.9402891825,7.9556283424\C,13.1336501
 644,22.1596775705,10.1829264136\C,13.1001934297,23.5812054815,10.18362
 38061\C,13.1871637124,21.3731595964,11.501482732\C,13.0801885626,24.35
 3030668,11.5037573315\C,12.448137179,22.1396175763,12.5866834146\C,12.
 406523207,23.52232129,12.5804157559\C,11.3617558112,20.1065570954,12.4
 306814013\C,11.1275223792,25.4459674974,12.3765202221\C,11.375808332,2
 1.3928487541,13.0956290918\C,11.2775746048,24.1738732657,13.0771402344
 \C,8.9009651192,21.3028473536,13.3434775909\C,8.8977190053,24.11462404
 14,13.4757486636\C,7.6991288615,22.016569264,13.2332182949\C,7.7023915
 338,23.4171526699,13.3463037152\C,6.451621582,21.401717639,12.62029219
 57\C,6.631227575,24.3487167374,12.7635436801\C,5.88597796,22.325331664
 1,11.5525947449\C,5.9924247775,23.7147773476,11.5468838032\C,5.5820620
 448,21.6313219531,10.3881078484\C,5.749585736,24.4178587853,10.3474876
 659\C,5.3636814103,22.3032702036,9.1865551121\C,5.4296481098,23.711805
 3829,9.1648156371\C,5.374909342,21.4566034731,7.9294882551\C,5.3835897
 962,24.4572763048,7.825454003\C,5.9311083946,22.237059476,6.76194204\C
 ,5.9470949755,23.6115372907,6.7137788339\C,6.9937080484,21.5181097936,
 6.1751336148\C,6.9781367104,24.2934267279,6.0141591525\C,7.9940731636,
 22.1834710428,5.4841202104\C,7.973104728,23.5941431564,5.3741478866\C,
 9.3577627477,21.7225574038,5.5786497952\C,9.3880121723,24.1174952274,5
 .2200564245\C,11.8878780506,21.7136911474,6.6919671157\C,12.0898350288
 ,24.1032257451,6.5073831033\C,10.2037345045,22.8409757336,5.4004544365
 \C,11.4518631057,22.8387738652,5.9772453618\C,10.1484589396,22.0090280
 589,13.5036437895\C,10.1408978752,23.4460464492,13.5405017845\Cl,4.556
 8478008,26.8861535986,10.6991866789\Cl,3.6451444742,24.9765164398,7.47
 97965282\Cl,13.3278274989,24.7889859158,5.3335180431\Cl,13.9368113915,
 26.7972750243,8.4546205719\Cl,14.7855924492,24.8659305452,11.965308391
 \Cl,14.9367394676,21.0172863017,11.9360142078\Cl,14.0665586232,19.0339
 163013,8.3073973678\Cl,3.6936186723,20.8118328562,7.5574154342\Cl,4.46
 09012006,19.0846865849,10.6869742545\Cl,5.3511490162,24.7863870714,14.
 0098097778\Cl,7.8896297175,16.8534079412,10.9887152907\Cl,5.2087299663
 ,21.0424430314,13.9341129219\Cl,8.6423457872,18.8147069573,14.52874464
 57\Cl,9.6657319162,24.896686,3.5727697272\Cl,6.7067318097,26.996943780
 5,5.4121774984\Cl,7.5779137635,28.9233174816,8.7489336541\\Version=ES6
 4L-G16RevA.03\State=1-A\HF=-10564.2378299\RMSD=8.567e-09\RMSF=1.942e-0
 5\Dipole=0.7718382,-0.3347577,0.0956007\Quadrupole=-11.7514135,-0.4057
 775,12.157191,0.738891,5.9402635,18.1240784\PG=C01 [X(C84Cl16)]\\@


 Luck is a matter of preparation meeting opportunity.
                                    -- Oprah Winfrey
 Job cpu time:       1 days 13 hours 24 minutes 28.0 seconds.
 Elapsed time:       0 days  1 hours 33 minutes 39.0 seconds.
 File lengths (MBytes):  RWF=   1500 Int=      0 D2E=      0 Chk=    187 Scr=      1
 Normal termination of Gaussian 16 at Tue Jun 28 11:39:42 2022.
