 Entering Gaussian System, Link 0=g16
 Input=18_addons_C84_11_Cl22_rank_5.gjf
 Output=18_addons_C84_11_Cl22_rank_5.log
 Initial command:
 /home/mkliu/g16/l1.exe "/data/scratch/Gau-91890.inp" -scrdir="/data/scratch/"
 Entering Link 1 = /home/mkliu/g16/l1.exe PID=     91891.
  
 Copyright (c) 1988,1990,1992,1993,1995,1998,2003,2009,2016,
            Gaussian, Inc.  All Rights Reserved.
  
 This is part of the Gaussian(R) 16 program.  It is based on
 the Gaussian(R) 09 system (copyright 2009, Gaussian, Inc.),
 the Gaussian(R) 03 system (copyright 2003, Gaussian, Inc.),
 the Gaussian(R) 98 system (copyright 1998, Gaussian, Inc.),
 the Gaussian(R) 94 system (copyright 1995, Gaussian, Inc.),
 the Gaussian 92(TM) system (copyright 1992, Gaussian, Inc.),
 the Gaussian 90(TM) system (copyright 1990, Gaussian, Inc.),
 the Gaussian 88(TM) system (copyright 1988, Gaussian, Inc.),
 the Gaussian 86(TM) system (copyright 1986, Carnegie Mellon
 University), and the Gaussian 82(TM) system (copyright 1983,
 Carnegie Mellon University). Gaussian is a federally registered
 trademark of Gaussian, Inc.
  
 This software contains proprietary and confidential information,
 including trade secrets, belonging to Gaussian, Inc.
  
 This software is provided under written license and may be
 used, copied, transmitted, or stored only in accord with that
 written license.
  
 The following legend is applicable only to US Government
 contracts under FAR:
  
                    RESTRICTED RIGHTS LEGEND
  
 Use, reproduction and disclosure by the US Government is
 subject to restrictions as set forth in subparagraphs (a)
 and (c) of the Commercial Computer Software - Restricted
 Rights clause in FAR 52.227-19.
  
 Gaussian, Inc.
 340 Quinnipiac St., Bldg. 40, Wallingford CT 06492
  
  
 ---------------------------------------------------------------
 Warning -- This program may not be used in any manner that
 competes with the business of Gaussian, Inc. or will provide
 assistance to any competitor of Gaussian, Inc.  The licensee
 of this program is prohibited from giving any competitor of
 Gaussian, Inc. access to this program.  By using this program,
 the user acknowledges that Gaussian, Inc. is engaged in the
 business of creating and licensing software in the field of
 computational chemistry and represents and warrants to the
 licensee that it is not a competitor of Gaussian, Inc. and that
 it will not use this program in any manner prohibited above.
 ---------------------------------------------------------------
  

 Cite this work as:
 Gaussian 16, Revision A.03,
 M. J. Frisch, G. W. Trucks, H. B. Schlegel, G. E. Scuseria, 
 M. A. Robb, J. R. Cheeseman, G. Scalmani, V. Barone, 
 G. A. Petersson, H. Nakatsuji, X. Li, M. Caricato, A. V. Marenich, 
 J. Bloino, B. G. Janesko, R. Gomperts, B. Mennucci, H. P. Hratchian, 
 J. V. Ortiz, A. F. Izmaylov, J. L. Sonnenberg, D. Williams-Young, 
 F. Ding, F. Lipparini, F. Egidi, J. Goings, B. Peng, A. Petrone, 
 T. Henderson, D. Ranasinghe, V. G. Zakrzewski, J. Gao, N. Rega, 
 G. Zheng, W. Liang, M. Hada, M. Ehara, K. Toyota, R. Fukuda, 
 J. Hasegawa, M. Ishida, T. Nakajima, Y. Honda, O. Kitao, H. Nakai, 
 T. Vreven, K. Throssell, J. A. Montgomery, Jr., J. E. Peralta, 
 F. Ogliaro, M. J. Bearpark, J. J. Heyd, E. N. Brothers, K. N. Kudin, 
 V. N. Staroverov, T. A. Keith, R. Kobayashi, J. Normand, 
 K. Raghavachari, A. P. Rendell, J. C. Burant, S. S. Iyengar, 
 J. Tomasi, M. Cossi, J. M. Millam, M. Klene, C. Adamo, R. Cammi, 
 J. W. Ochterski, R. L. Martin, K. Morokuma, O. Farkas, 
 J. B. Foresman, and D. J. Fox, Gaussian, Inc., Wallingford CT, 2016.
 
 ******************************************
 Gaussian 16:  ES64L-G16RevA.03 25-Dec-2016
                26-Jun-2022 
 ******************************************
 %mem=10GB
 %chk=18_addons_C84_11_Cl22_rank_5.chk
 %nprocshared=24
 Will use up to   24 processors via shared memory.
 ------------------------------------------------
 #P opt b3lyp/6-31G(d, p) empiricaldispersion=GD3
 ------------------------------------------------
 1/18=20,19=15,26=3,38=1/1,3;
 2/9=110,12=2,17=6,18=5,40=1/2;
 3/5=1,6=6,7=101,11=2,25=1,30=1,71=1,74=-5,124=31/1,2,3;
 4//1;
 5/5=2,38=5/2;
 6/7=2,8=2,9=2,10=2,28=1/1;
 7//1,2,3,16;
 1/18=20,19=15,26=3/3(2);
 2/9=110/2;
 99//99;
 2/9=110/2;
 3/5=1,6=6,7=101,11=2,25=1,30=1,71=1,74=-5,124=31/1,2,3;
 4/5=5,16=3,69=1/1;
 5/5=2,38=5/2;
 7//1,2,3,16;
 1/18=20,19=15,26=3/3(-5);
 2/9=110/2;
 6/7=2,8=2,9=2,10=2,19=2,28=1/1;
 99/9=1/99;
 Leave Link    1 at Sun Jun 26 13:45:06 2022, MaxMem=  1342177280 cpu:               0.6 elap:               0.0
 (Enter /home/mkliu/g16/l101.exe)
 -----
 force
 -----
 Symbolic Z-matrix:
 Charge =  0 Multiplicity = 1
 C                     8.42769   18.64978   10.80671 
 C                     12.57041   19.98943   8.89352 
 C                     8.22032   27.12227   10.59028 
 C                     12.46541   25.74287   8.92179 
 C                     8.02836   19.16994   9.44228 
 C                     12.06351   19.48983   10.21457 
 C                     7.95557   26.81529   9.13947 
 C                     11.86363   26.17348   10.22622 
 C                     8.99452   19.28202   8.3978 
 C                     12.32803   20.13394   11.39228 
 C                     12.12028   25.51731   11.39503 
 C                     8.9586    26.6044   8.17161 
 C                     10.36372   19.10158   8.69409 
 C                     10.2909   26.65774   8.6193 
 C                     10.81467   18.8534   10.04163 
 C                     10.60366   26.76701   10.02921 
 C                     9.89409   18.77283   11.0656 
 C                     9.6123    26.75277   11.01019 
 C                     10.15888   19.43142   12.26628 
 C                     9.86229   26.05741   12.19709 
 C                     8.89894   19.85348   12.95481 
 C                     8.74049   25.59672   13.08428 
 C                     7.87104   19.52043   11.90401 
 C                     7.42389   25.57112   12.36221 
 C                     6.75011   20.20887   11.763 
 C                     7.18458   26.25462   11.25268 
 C                     5.95298   20.18609   10.49182 
 C                     6.06998   25.9023   10.29987 
 C                     6.79463   19.79158   9.30872 
 C                     6.70509   26.24466   8.99122 
 C                     6.45497   20.37853   8.08875 
 C                     6.38382   25.57788   7.82626 
 C                     7.35997   20.42051   7.0372 
 C                     7.33226   25.44043   6.81576 
 C                     8.69765   19.99621   7.19647 
 C                     8.67745   25.85004   6.99015 
 C                     9.73148   20.63528   6.44844 
 C                     9.72817   25.13208   6.34055 
 C                     11.04008   20.59513   6.90887 
 C                     12.65408   22.18255   7.80167 
 C                     12.63145   23.56921   7.80415 
 C                     11.01771   25.16097   6.85969 
 C                     11.35218   19.79357   8.00803 
 C                     12.85388   21.46806   8.97084 
 C                     12.79901   24.27579   8.98144 
 C                     11.29888   25.95527   7.97665 
 C                     13.06552   22.16661   10.16959 
 C                     13.03156   23.57217   10.17337 
 C                     13.15657   21.38971   11.47634 
 C                     13.05662   24.34223   11.48441 
 C                     12.42237   22.15058   12.54952 
 C                     12.38176   23.52679   12.54914 
 C                     11.33916   20.13313   12.40418 
 C                     11.10055   25.43689   12.36541 
 C                     11.34599   21.41795   13.05618 
 C                     11.26227   24.17854   13.06281 
 C                     8.89464   21.33352   13.27621 
 C                     8.89353   24.1385   13.43006 
 C                     7.71141   22.04252   13.14513 
 C                     7.72239   23.44299   13.23968 
 C                     6.45634   21.42965   12.58443 
 C                     6.63015   24.35044   12.72926 
 C                     5.90359   22.34128   11.52219 
 C                     6.00282   23.72137   11.51807 
 C                     5.61559   21.64816   10.35601 
 C                     5.77158   24.41653   10.32616 
 C                     5.41064   22.31542   9.15983 
 C                     5.46895   23.71701   9.1445 
 C                     5.39939   21.45711   7.92031 
 C                     5.38754   24.45009   7.81492 
 C                     5.94137   22.2248   6.75001 
 C                     5.93711   23.59205   6.70459 
 C                     7.01859   21.52022   6.16818 
 C                     7.01037   24.25432   6.06245 
 C                     8.012     22.16612   5.46226 
 C                     8.01174   23.56059   5.41547 
 C                     9.39056   21.6043   5.33693 
 C                     9.39633   24.11057   5.27238 
 C                     12.06456   21.62979   6.53052 
 C                     12.04986   24.11586   6.52527 
 C                     10.22013   22.85925   5.43478 
 C                     11.43184   22.86831   5.96563 
 C                     10.12767   22.03423   13.44259 
 C                     10.1229   23.46146   13.49399 
 Cl                    4.55986   26.82203   10.64339 
 Cl                    3.68953   24.97316   7.54242 
 Cl                    13.3215   24.80509   5.44938 
 Cl                    13.91921   26.68796   8.44638 
 Cl                    14.75138   24.79675   11.86812 
 Cl                    14.88846   21.08377   11.84601 
 Cl                    14.02456   19.10889   8.31036 
 Cl                    3.75047   20.80065   7.63635 
 Cl                    4.48778   19.14731   10.62049 
 Cl                    5.37918   24.68671   13.98247 
 Cl                    7.85411   16.93571   10.95682 
 Cl                    5.26725   21.11609   13.90198 
 Cl                    8.60723   18.92649   14.4844 
 Cl                    8.66818   26.62584   14.57356 
 Cl                    7.93958   28.88227   10.94095 
 Cl                    13.31277   20.93733   5.4328 
 Cl                    9.63814   20.76357   3.74855 
 Cl                    9.66431   24.86937   3.64629 
 
 ITRead=  0  0  0  0  0  0  0  0  0  0  0  0  0  0  0  0  0  0  0  0
 ITRead=  0  0  0  0  0  0  0  0  0  0  0  0  0  0  0  0  0  0  0  0
 ITRead=  0  0  0  0  0  0  0  0  0  0  0  0  0  0  0  0  0  0  0  0
 ITRead=  0  0  0  0  0  0  0  0  0  0  0  0  0  0  0  0  0  0  0  0
 ITRead=  0  0  0  0  0  0  0  0  0  0  0  0  0  0  0  0  0  0  0  0
 ITRead=  0  0
 MicOpt= -1 -1 -1 -1 -1 -1 -1 -1 -1 -1 -1 -1 -1 -1 -1 -1 -1 -1 -1 -1
 MicOpt= -1 -1 -1 -1 -1 -1 -1 -1 -1 -1 -1 -1 -1 -1 -1 -1 -1 -1 -1 -1
 MicOpt= -1 -1 -1 -1 -1 -1 -1 -1 -1 -1 -1 -1 -1 -1 -1 -1 -1 -1 -1 -1
 MicOpt= -1 -1 -1 -1 -1 -1 -1 -1 -1 -1 -1 -1 -1 -1 -1 -1 -1 -1 -1 -1
 MicOpt= -1 -1 -1 -1 -1 -1 -1 -1 -1 -1 -1 -1 -1 -1 -1 -1 -1 -1 -1 -1
 MicOpt= -1 -1
 NAtoms=    102 NQM=      102 NQMF=       0 NMMI=      0 NMMIF=      0
                NMic=       0 NMicF=      0.
                    Isotopes and Nuclear Properties:
 (Nuclear quadrupole moments (NQMom) in fm**2, nuclear magnetic moments (NMagM)
  in nuclear magnetons)

  Atom         1           2           3           4           5           6           7           8           9          10
 IAtWgt=          12          12          12          12          12          12          12          12          12          12
 AtmWgt=  12.0000000  12.0000000  12.0000000  12.0000000  12.0000000  12.0000000  12.0000000  12.0000000  12.0000000  12.0000000
 NucSpn=           0           0           0           0           0           0           0           0           0           0
 AtZEff=  -0.0000000  -0.0000000  -0.0000000  -0.0000000  -0.0000000  -0.0000000  -0.0000000  -0.0000000  -0.0000000  -0.0000000
 NQMom=    0.0000000   0.0000000   0.0000000   0.0000000   0.0000000   0.0000000   0.0000000   0.0000000   0.0000000   0.0000000
 NMagM=    0.0000000   0.0000000   0.0000000   0.0000000   0.0000000   0.0000000   0.0000000   0.0000000   0.0000000   0.0000000
 AtZNuc=   6.0000000   6.0000000   6.0000000   6.0000000   6.0000000   6.0000000   6.0000000   6.0000000   6.0000000   6.0000000

  Atom        11          12          13          14          15          16          17          18          19          20
 IAtWgt=          12          12          12          12          12          12          12          12          12          12
 AtmWgt=  12.0000000  12.0000000  12.0000000  12.0000000  12.0000000  12.0000000  12.0000000  12.0000000  12.0000000  12.0000000
 NucSpn=           0           0           0           0           0           0           0           0           0           0
 AtZEff=  -0.0000000  -0.0000000  -0.0000000  -0.0000000  -0.0000000  -0.0000000  -0.0000000  -0.0000000  -0.0000000  -0.0000000
 NQMom=    0.0000000   0.0000000   0.0000000   0.0000000   0.0000000   0.0000000   0.0000000   0.0000000   0.0000000   0.0000000
 NMagM=    0.0000000   0.0000000   0.0000000   0.0000000   0.0000000   0.0000000   0.0000000   0.0000000   0.0000000   0.0000000
 AtZNuc=   6.0000000   6.0000000   6.0000000   6.0000000   6.0000000   6.0000000   6.0000000   6.0000000   6.0000000   6.0000000

  Atom        21          22          23          24          25          26          27          28          29          30
 IAtWgt=          12          12          12          12          12          12          12          12          12          12
 AtmWgt=  12.0000000  12.0000000  12.0000000  12.0000000  12.0000000  12.0000000  12.0000000  12.0000000  12.0000000  12.0000000
 NucSpn=           0           0           0           0           0           0           0           0           0           0
 AtZEff=  -0.0000000  -0.0000000  -0.0000000  -0.0000000  -0.0000000  -0.0000000  -0.0000000  -0.0000000  -0.0000000  -0.0000000
 NQMom=    0.0000000   0.0000000   0.0000000   0.0000000   0.0000000   0.0000000   0.0000000   0.0000000   0.0000000   0.0000000
 NMagM=    0.0000000   0.0000000   0.0000000   0.0000000   0.0000000   0.0000000   0.0000000   0.0000000   0.0000000   0.0000000
 AtZNuc=   6.0000000   6.0000000   6.0000000   6.0000000   6.0000000   6.0000000   6.0000000   6.0000000   6.0000000   6.0000000

  Atom        31          32          33          34          35          36          37          38          39          40
 IAtWgt=          12          12          12          12          12          12          12          12          12          12
 AtmWgt=  12.0000000  12.0000000  12.0000000  12.0000000  12.0000000  12.0000000  12.0000000  12.0000000  12.0000000  12.0000000
 NucSpn=           0           0           0           0           0           0           0           0           0           0
 AtZEff=  -0.0000000  -0.0000000  -0.0000000  -0.0000000  -0.0000000  -0.0000000  -0.0000000  -0.0000000  -0.0000000  -0.0000000
 NQMom=    0.0000000   0.0000000   0.0000000   0.0000000   0.0000000   0.0000000   0.0000000   0.0000000   0.0000000   0.0000000
 NMagM=    0.0000000   0.0000000   0.0000000   0.0000000   0.0000000   0.0000000   0.0000000   0.0000000   0.0000000   0.0000000
 AtZNuc=   6.0000000   6.0000000   6.0000000   6.0000000   6.0000000   6.0000000   6.0000000   6.0000000   6.0000000   6.0000000

  Atom        41          42          43          44          45          46          47          48          49          50
 IAtWgt=          12          12          12          12          12          12          12          12          12          12
 AtmWgt=  12.0000000  12.0000000  12.0000000  12.0000000  12.0000000  12.0000000  12.0000000  12.0000000  12.0000000  12.0000000
 NucSpn=           0           0           0           0           0           0           0           0           0           0
 AtZEff=  -0.0000000  -0.0000000  -0.0000000  -0.0000000  -0.0000000  -0.0000000  -0.0000000  -0.0000000  -0.0000000  -0.0000000
 NQMom=    0.0000000   0.0000000   0.0000000   0.0000000   0.0000000   0.0000000   0.0000000   0.0000000   0.0000000   0.0000000
 NMagM=    0.0000000   0.0000000   0.0000000   0.0000000   0.0000000   0.0000000   0.0000000   0.0000000   0.0000000   0.0000000
 AtZNuc=   6.0000000   6.0000000   6.0000000   6.0000000   6.0000000   6.0000000   6.0000000   6.0000000   6.0000000   6.0000000

  Atom        51          52          53          54          55          56          57          58          59          60
 IAtWgt=          12          12          12          12          12          12          12          12          12          12
 AtmWgt=  12.0000000  12.0000000  12.0000000  12.0000000  12.0000000  12.0000000  12.0000000  12.0000000  12.0000000  12.0000000
 NucSpn=           0           0           0           0           0           0           0           0           0           0
 AtZEff=  -0.0000000  -0.0000000  -0.0000000  -0.0000000  -0.0000000  -0.0000000  -0.0000000  -0.0000000  -0.0000000  -0.0000000
 NQMom=    0.0000000   0.0000000   0.0000000   0.0000000   0.0000000   0.0000000   0.0000000   0.0000000   0.0000000   0.0000000
 NMagM=    0.0000000   0.0000000   0.0000000   0.0000000   0.0000000   0.0000000   0.0000000   0.0000000   0.0000000   0.0000000
 AtZNuc=   6.0000000   6.0000000   6.0000000   6.0000000   6.0000000   6.0000000   6.0000000   6.0000000   6.0000000   6.0000000

  Atom        61          62          63          64          65          66          67          68          69          70
 IAtWgt=          12          12          12          12          12          12          12          12          12          12
 AtmWgt=  12.0000000  12.0000000  12.0000000  12.0000000  12.0000000  12.0000000  12.0000000  12.0000000  12.0000000  12.0000000
 NucSpn=           0           0           0           0           0           0           0           0           0           0
 AtZEff=  -0.0000000  -0.0000000  -0.0000000  -0.0000000  -0.0000000  -0.0000000  -0.0000000  -0.0000000  -0.0000000  -0.0000000
 NQMom=    0.0000000   0.0000000   0.0000000   0.0000000   0.0000000   0.0000000   0.0000000   0.0000000   0.0000000   0.0000000
 NMagM=    0.0000000   0.0000000   0.0000000   0.0000000   0.0000000   0.0000000   0.0000000   0.0000000   0.0000000   0.0000000
 AtZNuc=   6.0000000   6.0000000   6.0000000   6.0000000   6.0000000   6.0000000   6.0000000   6.0000000   6.0000000   6.0000000

  Atom        71          72          73          74          75          76          77          78          79          80
 IAtWgt=          12          12          12          12          12          12          12          12          12          12
 AtmWgt=  12.0000000  12.0000000  12.0000000  12.0000000  12.0000000  12.0000000  12.0000000  12.0000000  12.0000000  12.0000000
 NucSpn=           0           0           0           0           0           0           0           0           0           0
 AtZEff=  -0.0000000  -0.0000000  -0.0000000  -0.0000000  -0.0000000  -0.0000000  -0.0000000  -0.0000000  -0.0000000  -0.0000000
 NQMom=    0.0000000   0.0000000   0.0000000   0.0000000   0.0000000   0.0000000   0.0000000   0.0000000   0.0000000   0.0000000
 NMagM=    0.0000000   0.0000000   0.0000000   0.0000000   0.0000000   0.0000000   0.0000000   0.0000000   0.0000000   0.0000000
 AtZNuc=   6.0000000   6.0000000   6.0000000   6.0000000   6.0000000   6.0000000   6.0000000   6.0000000   6.0000000   6.0000000

  Atom        81          82          83          84          85          86          87          88          89          90
 IAtWgt=          12          12          12          12          35          35          35          35          35          35
 AtmWgt=  12.0000000  12.0000000  12.0000000  12.0000000  34.9688527  34.9688527  34.9688527  34.9688527  34.9688527  34.9688527
 NucSpn=           0           0           0           0           3           3           3           3           3           3
 AtZEff=  -0.0000000  -0.0000000  -0.0000000  -0.0000000  -0.0000000  -0.0000000  -0.0000000  -0.0000000  -0.0000000  -0.0000000
 NQMom=    0.0000000   0.0000000   0.0000000   0.0000000  -8.1650000  -8.1650000  -8.1650000  -8.1650000  -8.1650000  -8.1650000
 NMagM=    0.0000000   0.0000000   0.0000000   0.0000000   0.8218740   0.8218740   0.8218740   0.8218740   0.8218740   0.8218740
 AtZNuc=   6.0000000   6.0000000   6.0000000   6.0000000  17.0000000  17.0000000  17.0000000  17.0000000  17.0000000  17.0000000

  Atom        91          92          93          94          95          96          97          98          99         100
 IAtWgt=          35          35          35          35          35          35          35          35          35          35
 AtmWgt=  34.9688527  34.9688527  34.9688527  34.9688527  34.9688527  34.9688527  34.9688527  34.9688527  34.9688527  34.9688527
 NucSpn=           3           3           3           3           3           3           3           3           3           3
 AtZEff=  -0.0000000  -0.0000000  -0.0000000  -0.0000000  -0.0000000  -0.0000000  -0.0000000  -0.0000000  -0.0000000  -0.0000000
 NQMom=   -8.1650000  -8.1650000  -8.1650000  -8.1650000  -8.1650000  -8.1650000  -8.1650000  -8.1650000  -8.1650000  -8.1650000
 NMagM=    0.8218740   0.8218740   0.8218740   0.8218740   0.8218740   0.8218740   0.8218740   0.8218740   0.8218740   0.8218740
 AtZNuc=  17.0000000  17.0000000  17.0000000  17.0000000  17.0000000  17.0000000  17.0000000  17.0000000  17.0000000  17.0000000

  Atom       101         102
 IAtWgt=          35          35
 AtmWgt=  34.9688527  34.9688527
 NucSpn=           3           3
 AtZEff=  -0.0000000  -0.0000000
 NQMom=   -8.1650000  -8.1650000
 NMagM=    0.8218740   0.8218740
 AtZNuc=  17.0000000  17.0000000
 Leave Link  101 at Sun Jun 26 13:45:06 2022, MaxMem=  1342177280 cpu:               6.7 elap:               0.3
 (Enter /home/mkliu/g16/l103.exe)

 GradGradGradGradGradGradGradGradGradGradGradGradGradGradGradGradGradGrad
 Berny optimization.
 Initialization pass.
                           ----------------------------
                           !    Initial Parameters    !
                           ! (Angstroms and Degrees)  !
 --------------------------                            --------------------------
 ! Name  Definition              Value          Derivative Info.                !
 --------------------------------------------------------------------------------
 ! R1    R(1,5)                  1.5138         estimate D2E/DX2                !
 ! R2    R(1,17)                 1.4942         estimate D2E/DX2                !
 ! R3    R(1,23)                 1.5073         estimate D2E/DX2                !
 ! R4    R(1,95)                 1.8137         estimate D2E/DX2                !
 ! R5    R(2,6)                  1.5006         estimate D2E/DX2                !
 ! R6    R(2,43)                 1.5187         estimate D2E/DX2                !
 ! R7    R(2,44)                 1.5075         estimate D2E/DX2                !
 ! R8    R(2,91)                 1.7972         estimate D2E/DX2                !
 ! R9    R(3,7)                  1.5064         estimate D2E/DX2                !
 ! R10   R(3,18)                 1.5002         estimate D2E/DX2                !
 ! R11   R(3,26)                 1.5048         estimate D2E/DX2                !
 ! R12   R(3,99)                 1.8164         estimate D2E/DX2                !
 ! R13   R(4,8)                  1.4997         estimate D2E/DX2                !
 ! R14   R(4,45)                 1.5057         estimate D2E/DX2                !
 ! R15   R(4,46)                 1.5163         estimate D2E/DX2                !
 ! R16   R(4,88)                 1.798          estimate D2E/DX2                !
 ! R17   R(5,9)                  1.4272         estimate D2E/DX2                !
 ! R18   R(5,29)                 1.3879         estimate D2E/DX2                !
 ! R19   R(6,10)                 1.3682         estimate D2E/DX2                !
 ! R20   R(6,15)                 1.4123         estimate D2E/DX2                !
 ! R21   R(7,12)                 1.4097         estimate D2E/DX2                !
 ! R22   R(7,30)                 1.3825         estimate D2E/DX2                !
 ! R23   R(8,11)                 1.3648         estimate D2E/DX2                !
 ! R24   R(8,16)                 1.4066         estimate D2E/DX2                !
 ! R25   R(9,13)                 1.4125         estimate D2E/DX2                !
 ! R26   R(9,35)                 1.4288         estimate D2E/DX2                !
 ! R27   R(10,49)                1.5068         estimate D2E/DX2                !
 ! R28   R(10,53)                1.4149         estimate D2E/DX2                !
 ! R29   R(11,50)                1.5052         estimate D2E/DX2                !
 ! R30   R(11,54)                1.4099         estimate D2E/DX2                !
 ! R31   R(12,14)                1.4065         estimate D2E/DX2                !
 ! R32   R(12,36)                1.4297         estimate D2E/DX2                !
 ! R33   R(13,15)                1.4425         estimate D2E/DX2                !
 ! R34   R(13,43)                1.388          estimate D2E/DX2                !
 ! R35   R(14,16)                1.4483         estimate D2E/DX2                !
 ! R36   R(14,46)                1.3865         estimate D2E/DX2                !
 ! R37   R(15,17)                1.3793         estimate D2E/DX2                !
 ! R38   R(16,18)                1.3947         estimate D2E/DX2                !
 ! R39   R(17,19)                1.3948         estimate D2E/DX2                !
 ! R40   R(18,20)                1.3981         estimate D2E/DX2                !
 ! R41   R(19,21)                1.4965         estimate D2E/DX2                !
 ! R42   R(19,53)                1.38           estimate D2E/DX2                !
 ! R43   R(20,22)                1.5026         estimate D2E/DX2                !
 ! R44   R(20,54)                1.3952         estimate D2E/DX2                !
 ! R45   R(21,23)                1.5072         estimate D2E/DX2                !
 ! R46   R(21,57)                1.5145         estimate D2E/DX2                !
 ! R47   R(21,97)                1.8122         estimate D2E/DX2                !
 ! R48   R(22,24)                1.5018         estimate D2E/DX2                !
 ! R49   R(22,58)                1.5065         estimate D2E/DX2                !
 ! R50   R(22,98)                1.8117         estimate D2E/DX2                !
 ! R51   R(23,25)                1.323          estimate D2E/DX2                !
 ! R52   R(24,26)                1.3249         estimate D2E/DX2                !
 ! R53   R(24,62)                1.5016         estimate D2E/DX2                !
 ! R54   R(25,27)                1.5006         estimate D2E/DX2                !
 ! R55   R(25,61)                1.5005         estimate D2E/DX2                !
 ! R56   R(26,28)                1.5081         estimate D2E/DX2                !
 ! R57   R(27,29)                1.5046         estimate D2E/DX2                !
 ! R58   R(27,65)                1.5066         estimate D2E/DX2                !
 ! R59   R(27,93)                1.8007         estimate D2E/DX2                !
 ! R60   R(28,30)                1.4944         estimate D2E/DX2                !
 ! R61   R(28,66)                1.5157         estimate D2E/DX2                !
 ! R62   R(28,85)                1.8012         estimate D2E/DX2                !
 ! R63   R(29,31)                1.3958         estimate D2E/DX2                !
 ! R64   R(30,32)                1.3802         estimate D2E/DX2                !
 ! R65   R(31,33)                1.388          estimate D2E/DX2                !
 ! R66   R(31,69)                1.5185         estimate D2E/DX2                !
 ! R67   R(32,34)                1.3927         estimate D2E/DX2                !
 ! R68   R(32,70)                1.5049         estimate D2E/DX2                !
 ! R69   R(33,35)                1.4124         estimate D2E/DX2                !
 ! R70   R(33,73)                1.4426         estimate D2E/DX2                !
 ! R71   R(34,36)                1.4169         estimate D2E/DX2                !
 ! R72   R(34,74)                1.4415         estimate D2E/DX2                !
 ! R73   R(35,37)                1.4271         estimate D2E/DX2                !
 ! R74   R(36,38)                1.4288         estimate D2E/DX2                !
 ! R75   R(37,39)                1.3878         estimate D2E/DX2                !
 ! R76   R(37,77)                1.5135         estimate D2E/DX2                !
 ! R77   R(38,42)                1.3904         estimate D2E/DX2                !
 ! R78   R(38,78)                1.5148         estimate D2E/DX2                !
 ! R79   R(39,43)                1.3957         estimate D2E/DX2                !
 ! R80   R(39,79)                1.5044         estimate D2E/DX2                !
 ! R81   R(40,41)                1.3868         estimate D2E/DX2                !
 ! R82   R(40,44)                1.3847         estimate D2E/DX2                !
 ! R83   R(40,79)                1.5063         estimate D2E/DX2                !
 ! R84   R(41,45)                1.3832         estimate D2E/DX2                !
 ! R85   R(41,80)                1.5075         estimate D2E/DX2                !
 ! R86   R(42,46)                1.3991         estimate D2E/DX2                !
 ! R87   R(42,80)                1.5065         estimate D2E/DX2                !
 ! R88   R(44,47)                1.4035         estimate D2E/DX2                !
 ! R89   R(45,48)                1.4035         estimate D2E/DX2                !
 ! R90   R(47,48)                1.406          estimate D2E/DX2                !
 ! R91   R(47,49)                1.523          estimate D2E/DX2                !
 ! R92   R(48,50)                1.5207         estimate D2E/DX2                !
 ! R93   R(49,51)                1.5065         estimate D2E/DX2                !
 ! R94   R(49,90)                1.7971         estimate D2E/DX2                !
 ! R95   R(50,52)                1.5013         estimate D2E/DX2                !
 ! R96   R(50,89)                1.7961         estimate D2E/DX2                !
 ! R97   R(51,52)                1.3768         estimate D2E/DX2                !
 ! R98   R(51,55)                1.3972         estimate D2E/DX2                !
 ! R99   R(52,56)                1.3935         estimate D2E/DX2                !
 ! R100  R(53,55)                1.4408         estimate D2E/DX2                !
 ! R101  R(54,56)                1.4477         estimate D2E/DX2                !
 ! R102  R(55,83)                1.419          estimate D2E/DX2                !
 ! R103  R(56,84)                1.4136         estimate D2E/DX2                !
 ! R104  R(57,59)                1.3856         estimate D2E/DX2                !
 ! R105  R(57,83)                1.428          estimate D2E/DX2                !
 ! R106  R(58,60)                1.3753         estimate D2E/DX2                !
 ! R107  R(58,84)                1.4049         estimate D2E/DX2                !
 ! R108  R(59,60)                1.4037         estimate D2E/DX2                !
 ! R109  R(59,61)                1.5051         estimate D2E/DX2                !
 ! R110  R(60,62)                1.509          estimate D2E/DX2                !
 ! R111  R(61,63)                1.505          estimate D2E/DX2                !
 ! R112  R(61,96)                1.8023         estimate D2E/DX2                !
 ! R113  R(62,64)                1.5021         estimate D2E/DX2                !
 ! R114  R(62,94)                1.8024         estimate D2E/DX2                !
 ! R115  R(63,64)                1.3837         estimate D2E/DX2                !
 ! R116  R(63,65)                1.3868         estimate D2E/DX2                !
 ! R117  R(64,66)                1.3991         estimate D2E/DX2                !
 ! R118  R(65,67)                1.3849         estimate D2E/DX2                !
 ! R119  R(66,68)                1.4061         estimate D2E/DX2                !
 ! R120  R(67,68)                1.4029         estimate D2E/DX2                !
 ! R121  R(67,69)                1.5077         estimate D2E/DX2                !
 ! R122  R(68,70)                1.5205         estimate D2E/DX2                !
 ! R123  R(69,71)                1.5009         estimate D2E/DX2                !
 ! R124  R(69,92)                1.7974         estimate D2E/DX2                !
 ! R125  R(70,72)                1.507          estimate D2E/DX2                !
 ! R126  R(70,86)                1.7975         estimate D2E/DX2                !
 ! R127  R(71,72)                1.368          estimate D2E/DX2                !
 ! R128  R(71,73)                1.4126         estimate D2E/DX2                !
 ! R129  R(72,74)                1.4152         estimate D2E/DX2                !
 ! R130  R(73,75)                1.3793         estimate D2E/DX2                !
 ! R131  R(74,76)                1.3793         estimate D2E/DX2                !
 ! R132  R(75,76)                1.3953         estimate D2E/DX2                !
 ! R133  R(75,77)                1.4939         estimate D2E/DX2                !
 ! R134  R(76,78)                1.4967         estimate D2E/DX2                !
 ! R135  R(77,81)                1.5075         estimate D2E/DX2                !
 ! R136  R(77,101)               1.8141         estimate D2E/DX2                !
 ! R137  R(78,81)                1.5069         estimate D2E/DX2                !
 ! R138  R(78,102)               1.8143         estimate D2E/DX2                !
 ! R139  R(79,82)                1.5011         estimate D2E/DX2                !
 ! R140  R(79,100)               1.8007         estimate D2E/DX2                !
 ! R141  R(80,82)                1.5005         estimate D2E/DX2                !
 ! R142  R(80,87)                1.8027         estimate D2E/DX2                !
 ! R143  R(81,82)                1.3229         estimate D2E/DX2                !
 ! R144  R(83,84)                1.4282         estimate D2E/DX2                !
 ! A1    A(5,1,17)             112.7529         estimate D2E/DX2                !
 ! A2    A(5,1,23)             111.1157         estimate D2E/DX2                !
 ! A3    A(5,1,95)             108.4151         estimate D2E/DX2                !
 ! A4    A(17,1,23)            100.8789         estimate D2E/DX2                !
 ! A5    A(17,1,95)            111.9541         estimate D2E/DX2                !
 ! A6    A(23,1,95)            111.6444         estimate D2E/DX2                !
 ! A7    A(6,2,43)             101.501          estimate D2E/DX2                !
 ! A8    A(6,2,44)             110.1771         estimate D2E/DX2                !
 ! A9    A(6,2,91)             113.3195         estimate D2E/DX2                !
 ! A10   A(43,2,44)            107.8917         estimate D2E/DX2                !
 ! A11   A(43,2,91)            113.369          estimate D2E/DX2                !
 ! A12   A(44,2,91)            110.1853         estimate D2E/DX2                !
 ! A13   A(7,3,18)             112.4869         estimate D2E/DX2                !
 ! A14   A(7,3,26)             100.6891         estimate D2E/DX2                !
 ! A15   A(7,3,99)             110.8685         estimate D2E/DX2                !
 ! A16   A(18,3,26)            111.9277         estimate D2E/DX2                !
 ! A17   A(18,3,99)            109.1496         estimate D2E/DX2                !
 ! A18   A(26,3,99)            111.5505         estimate D2E/DX2                !
 ! A19   A(8,4,45)             109.5245         estimate D2E/DX2                !
 ! A20   A(8,4,46)             101.1416         estimate D2E/DX2                !
 ! A21   A(8,4,88)             113.7979         estimate D2E/DX2                !
 ! A22   A(45,4,46)            109.3672         estimate D2E/DX2                !
 ! A23   A(45,4,88)            110.0891         estimate D2E/DX2                !
 ! A24   A(46,4,88)            112.5577         estimate D2E/DX2                !
 ! A25   A(1,5,9)              120.5315         estimate D2E/DX2                !
 ! A26   A(1,5,29)             118.3663         estimate D2E/DX2                !
 ! A27   A(9,5,29)             119.7452         estimate D2E/DX2                !
 ! A28   A(2,6,10)             122.3956         estimate D2E/DX2                !
 ! A29   A(2,6,15)             109.9344         estimate D2E/DX2                !
 ! A30   A(10,6,15)            119.2441         estimate D2E/DX2                !
 ! A31   A(3,7,12)             124.5181         estimate D2E/DX2                !
 ! A32   A(3,7,30)             110.2654         estimate D2E/DX2                !
 ! A33   A(12,7,30)            120.5441         estimate D2E/DX2                !
 ! A34   A(4,8,11)             122.1004         estimate D2E/DX2                !
 ! A35   A(4,8,16)             111.0243         estimate D2E/DX2                !
 ! A36   A(11,8,16)            119.424          estimate D2E/DX2                !
 ! A37   A(5,9,13)             119.5162         estimate D2E/DX2                !
 ! A38   A(5,9,35)             120.9258         estimate D2E/DX2                !
 ! A39   A(13,9,35)            116.2089         estimate D2E/DX2                !
 ! A40   A(6,10,49)            123.1397         estimate D2E/DX2                !
 ! A41   A(6,10,53)            118.7014         estimate D2E/DX2                !
 ! A42   A(49,10,53)           110.1748         estimate D2E/DX2                !
 ! A43   A(8,11,50)            122.9017         estimate D2E/DX2                !
 ! A44   A(8,11,54)            118.7405         estimate D2E/DX2                !
 ! A45   A(50,11,54)           111.3777         estimate D2E/DX2                !
 ! A46   A(7,12,14)            116.7286         estimate D2E/DX2                !
 ! A47   A(7,12,36)            120.4226         estimate D2E/DX2                !
 ! A48   A(14,12,36)           117.9908         estimate D2E/DX2                !
 ! A49   A(9,13,15)            121.3983         estimate D2E/DX2                !
 ! A50   A(9,13,43)            121.5308         estimate D2E/DX2                !
 ! A51   A(15,13,43)           108.9583         estimate D2E/DX2                !
 ! A52   A(12,14,16)           121.1497         estimate D2E/DX2                !
 ! A53   A(12,14,46)           121.458          estimate D2E/DX2                !
 ! A54   A(16,14,46)           109.4167         estimate D2E/DX2                !
 ! A55   A(6,15,13)            108.2583         estimate D2E/DX2                !
 ! A56   A(6,15,17)            121.7081         estimate D2E/DX2                !
 ! A57   A(13,15,17)           119.6637         estimate D2E/DX2                !
 ! A58   A(8,16,14)            107.3341         estimate D2E/DX2                !
 ! A59   A(8,16,18)            122.2663         estimate D2E/DX2                !
 ! A60   A(14,16,18)           122.0342         estimate D2E/DX2                !
 ! A61   A(1,17,15)            122.0869         estimate D2E/DX2                !
 ! A62   A(1,17,19)            111.9841         estimate D2E/DX2                !
 ! A63   A(15,17,19)           118.9981         estimate D2E/DX2                !
 ! A64   A(3,18,16)            117.3963         estimate D2E/DX2                !
 ! A65   A(3,18,20)            121.7375         estimate D2E/DX2                !
 ! A66   A(16,18,20)           118.364          estimate D2E/DX2                !
 ! A67   A(17,19,21)           111.6776         estimate D2E/DX2                !
 ! A68   A(17,19,53)           119.2397         estimate D2E/DX2                !
 ! A69   A(21,19,53)           122.0507         estimate D2E/DX2                !
 ! A70   A(18,20,22)           121.3484         estimate D2E/DX2                !
 ! A71   A(18,20,54)           118.8351         estimate D2E/DX2                !
 ! A72   A(22,20,54)           117.0648         estimate D2E/DX2                !
 ! A73   A(19,21,23)           101.0162         estimate D2E/DX2                !
 ! A74   A(19,21,57)           112.0628         estimate D2E/DX2                !
 ! A75   A(19,21,97)           112.308          estimate D2E/DX2                !
 ! A76   A(23,21,57)           111.2202         estimate D2E/DX2                !
 ! A77   A(23,21,97)           111.4473         estimate D2E/DX2                !
 ! A78   A(57,21,97)           108.6813         estimate D2E/DX2                !
 ! A79   A(20,22,24)           112.0765         estimate D2E/DX2                !
 ! A80   A(20,22,58)           110.8832         estimate D2E/DX2                !
 ! A81   A(20,22,98)           109.9383         estimate D2E/DX2                !
 ! A82   A(24,22,58)           100.5397         estimate D2E/DX2                !
 ! A83   A(24,22,98)           111.7107         estimate D2E/DX2                !
 ! A84   A(58,22,98)           111.4211         estimate D2E/DX2                !
 ! A85   A(1,23,21)            112.5397         estimate D2E/DX2                !
 ! A86   A(1,23,25)            122.4032         estimate D2E/DX2                !
 ! A87   A(21,23,25)           122.4899         estimate D2E/DX2                !
 ! A88   A(22,24,26)           123.5161         estimate D2E/DX2                !
 ! A89   A(22,24,62)           111.0841         estimate D2E/DX2                !
 ! A90   A(26,24,62)           121.9095         estimate D2E/DX2                !
 ! A91   A(23,25,27)           122.1723         estimate D2E/DX2                !
 ! A92   A(23,25,61)           122.0666         estimate D2E/DX2                !
 ! A93   A(27,25,61)           111.8451         estimate D2E/DX2                !
 ! A94   A(3,26,24)            122.8031         estimate D2E/DX2                !
 ! A95   A(3,26,28)            111.4261         estimate D2E/DX2                !
 ! A96   A(24,26,28)           122.8235         estimate D2E/DX2                !
 ! A97   A(25,27,29)           111.8967         estimate D2E/DX2                !
 ! A98   A(25,27,65)           100.4039         estimate D2E/DX2                !
 ! A99   A(25,27,93)           112.3623         estimate D2E/DX2                !
 ! A100  A(29,27,65)           107.9895         estimate D2E/DX2                !
 ! A101  A(29,27,93)           111.1068         estimate D2E/DX2                !
 ! A102  A(65,27,93)           112.5846         estimate D2E/DX2                !
 ! A103  A(26,28,30)           100.6989         estimate D2E/DX2                !
 ! A104  A(26,28,66)           111.3194         estimate D2E/DX2                !
 ! A105  A(26,28,85)           112.3248         estimate D2E/DX2                !
 ! A106  A(30,28,66)           108.8714         estimate D2E/DX2                !
 ! A107  A(30,28,85)           113.9755         estimate D2E/DX2                !
 ! A108  A(66,28,85)           109.4009         estimate D2E/DX2                !
 ! A109  A(5,29,27)            122.6169         estimate D2E/DX2                !
 ! A110  A(5,29,31)            119.2594         estimate D2E/DX2                !
 ! A111  A(27,29,31)           116.161          estimate D2E/DX2                !
 ! A112  A(7,30,28)            112.6481         estimate D2E/DX2                !
 ! A113  A(7,30,32)            120.0305         estimate D2E/DX2                !
 ! A114  A(28,30,32)           121.9746         estimate D2E/DX2                !
 ! A115  A(29,31,33)           121.0794         estimate D2E/DX2                !
 ! A116  A(29,31,69)           124.3882         estimate D2E/DX2                !
 ! A117  A(33,31,69)           110.3479         estimate D2E/DX2                !
 ! A118  A(30,32,34)           120.1052         estimate D2E/DX2                !
 ! A119  A(30,32,70)           121.5018         estimate D2E/DX2                !
 ! A120  A(34,32,70)           111.8037         estimate D2E/DX2                !
 ! A121  A(31,33,35)           121.535          estimate D2E/DX2                !
 ! A122  A(31,33,73)           108.9739         estimate D2E/DX2                !
 ! A123  A(35,33,73)           121.404          estimate D2E/DX2                !
 ! A124  A(32,34,36)           121.9176         estimate D2E/DX2                !
 ! A125  A(32,34,74)           107.9575         estimate D2E/DX2                !
 ! A126  A(36,34,74)           120.9429         estimate D2E/DX2                !
 ! A127  A(9,35,33)            116.217          estimate D2E/DX2                !
 ! A128  A(9,35,37)            120.9325         estimate D2E/DX2                !
 ! A129  A(33,35,37)           119.5025         estimate D2E/DX2                !
 ! A130  A(12,36,34)           116.1641         estimate D2E/DX2                !
 ! A131  A(12,36,38)           119.7511         estimate D2E/DX2                !
 ! A132  A(34,36,38)           119.7969         estimate D2E/DX2                !
 ! A133  A(35,37,39)           119.7491         estimate D2E/DX2                !
 ! A134  A(35,37,77)           120.5613         estimate D2E/DX2                !
 ! A135  A(39,37,77)           118.3309         estimate D2E/DX2                !
 ! A136  A(36,38,42)           120.1223         estimate D2E/DX2                !
 ! A137  A(36,38,78)           119.8915         estimate D2E/DX2                !
 ! A138  A(42,38,78)           118.716          estimate D2E/DX2                !
 ! A139  A(37,39,43)           119.2573         estimate D2E/DX2                !
 ! A140  A(37,39,79)           122.6006         estimate D2E/DX2                !
 ! A141  A(43,39,79)           116.1521         estimate D2E/DX2                !
 ! A142  A(41,40,44)           121.1156         estimate D2E/DX2                !
 ! A143  A(41,40,79)           111.226          estimate D2E/DX2                !
 ! A144  A(44,40,79)           125.4267         estimate D2E/DX2                !
 ! A145  A(40,41,45)           120.6836         estimate D2E/DX2                !
 ! A146  A(40,41,80)           111.5519         estimate D2E/DX2                !
 ! A147  A(45,41,80)           125.6992         estimate D2E/DX2                !
 ! A148  A(38,42,46)           119.7517         estimate D2E/DX2                !
 ! A149  A(38,42,80)           122.5577         estimate D2E/DX2                !
 ! A150  A(46,42,80)           115.6822         estimate D2E/DX2                !
 ! A151  A(2,43,13)            110.325          estimate D2E/DX2                !
 ! A152  A(2,43,39)            124.365          estimate D2E/DX2                !
 ! A153  A(13,43,39)           121.0858         estimate D2E/DX2                !
 ! A154  A(2,44,40)            115.8276         estimate D2E/DX2                !
 ! A155  A(2,44,47)            124.0793         estimate D2E/DX2                !
 ! A156  A(40,44,47)           119.0857         estimate D2E/DX2                !
 ! A157  A(4,45,41)            115.9225         estimate D2E/DX2                !
 ! A158  A(4,45,48)            123.9738         estimate D2E/DX2                !
 ! A159  A(41,45,48)           119.1299         estimate D2E/DX2                !
 ! A160  A(4,46,14)            109.9587         estimate D2E/DX2                !
 ! A161  A(4,46,42)            124.9381         estimate D2E/DX2                !
 ! A162  A(14,46,42)           120.7669         estimate D2E/DX2                !
 ! A163  A(44,47,48)           119.7506         estimate D2E/DX2                !
 ! A164  A(44,47,49)           119.2077         estimate D2E/DX2                !
 ! A165  A(48,47,49)           120.6045         estimate D2E/DX2                !
 ! A166  A(45,48,47)           120.1921         estimate D2E/DX2                !
 ! A167  A(45,48,50)           118.7532         estimate D2E/DX2                !
 ! A168  A(47,48,50)           120.5413         estimate D2E/DX2                !
 ! A169  A(10,49,47)           110.1445         estimate D2E/DX2                !
 ! A170  A(10,49,51)           101.1088         estimate D2E/DX2                !
 ! A171  A(10,49,90)           113.5466         estimate D2E/DX2                !
 ! A172  A(47,49,51)           108.9318         estimate D2E/DX2                !
 ! A173  A(47,49,90)           108.7203         estimate D2E/DX2                !
 ! A174  A(51,49,90)           114.148          estimate D2E/DX2                !
 ! A175  A(11,50,48)           109.5052         estimate D2E/DX2                !
 ! A176  A(11,50,52)           100.7492         estimate D2E/DX2                !
 ! A177  A(11,50,89)           113.7098         estimate D2E/DX2                !
 ! A178  A(48,50,52)           109.2064         estimate D2E/DX2                !
 ! A179  A(48,50,89)           109.14           estimate D2E/DX2                !
 ! A180  A(52,50,89)           114.2097         estimate D2E/DX2                !
 ! A181  A(49,51,52)           121.2653         estimate D2E/DX2                !
 ! A182  A(49,51,55)           111.65           estimate D2E/DX2                !
 ! A183  A(52,51,55)           120.1007         estimate D2E/DX2                !
 ! A184  A(50,52,51)           121.9947         estimate D2E/DX2                !
 ! A185  A(50,52,56)           111.6235         estimate D2E/DX2                !
 ! A186  A(51,52,56)           119.4123         estimate D2E/DX2                !
 ! A187  A(10,53,19)           121.775          estimate D2E/DX2                !
 ! A188  A(10,53,55)           108.652          estimate D2E/DX2                !
 ! A189  A(19,53,55)           120.1786         estimate D2E/DX2                !
 ! A190  A(11,54,20)           122.2406         estimate D2E/DX2                !
 ! A191  A(11,54,56)           107.477          estimate D2E/DX2                !
 ! A192  A(20,54,56)           122.9437         estimate D2E/DX2                !
 ! A193  A(51,55,53)           107.8881         estimate D2E/DX2                !
 ! A194  A(51,55,83)           122.1734         estimate D2E/DX2                !
 ! A195  A(53,55,83)           120.4285         estimate D2E/DX2                !
 ! A196  A(52,56,54)           108.5833         estimate D2E/DX2                !
 ! A197  A(52,56,84)           121.5133         estimate D2E/DX2                !
 ! A198  A(54,56,84)           119.8547         estimate D2E/DX2                !
 ! A199  A(21,57,59)           118.8414         estimate D2E/DX2                !
 ! A200  A(21,57,83)           120.1197         estimate D2E/DX2                !
 ! A201  A(59,57,83)           119.8219         estimate D2E/DX2                !
 ! A202  A(22,58,60)           111.7917         estimate D2E/DX2                !
 ! A203  A(22,58,84)           124.4588         estimate D2E/DX2                !
 ! A204  A(60,58,84)           120.5123         estimate D2E/DX2                !
 ! A205  A(57,59,60)           119.8322         estimate D2E/DX2                !
 ! A206  A(57,59,61)           122.6147         estimate D2E/DX2                !
 ! A207  A(60,59,61)           115.9689         estimate D2E/DX2                !
 ! A208  A(58,60,59)           121.3674         estimate D2E/DX2                !
 ! A209  A(58,60,62)           111.0436         estimate D2E/DX2                !
 ! A210  A(59,60,62)           124.8574         estimate D2E/DX2                !
 ! A211  A(25,61,59)           111.8382         estimate D2E/DX2                !
 ! A212  A(25,61,63)           100.2732         estimate D2E/DX2                !
 ! A213  A(25,61,96)           112.8202         estimate D2E/DX2                !
 ! A214  A(59,61,63)           108.8181         estimate D2E/DX2                !
 ! A215  A(59,61,96)           110.4066         estimate D2E/DX2                !
 ! A216  A(63,61,96)           112.2754         estimate D2E/DX2                !
 ! A217  A(24,62,60)           100.8904         estimate D2E/DX2                !
 ! A218  A(24,62,64)           111.3528         estimate D2E/DX2                !
 ! A219  A(24,62,94)           112.6543         estimate D2E/DX2                !
 ! A220  A(60,62,64)           108.8568         estimate D2E/DX2                !
 ! A221  A(60,62,94)           112.2961         estimate D2E/DX2                !
 ! A222  A(64,62,94)           110.4217         estimate D2E/DX2                !
 ! A223  A(61,63,64)           125.4464         estimate D2E/DX2                !
 ! A224  A(61,63,65)           111.5333         estimate D2E/DX2                !
 ! A225  A(64,63,65)           120.7231         estimate D2E/DX2                !
 ! A226  A(62,64,63)           116.4406         estimate D2E/DX2                !
 ! A227  A(62,64,66)           123.2223         estimate D2E/DX2                !
 ! A228  A(63,64,66)           119.0962         estimate D2E/DX2                !
 ! A229  A(27,65,63)           111.2663         estimate D2E/DX2                !
 ! A230  A(27,65,67)           125.348          estimate D2E/DX2                !
 ! A231  A(63,65,67)           121.078          estimate D2E/DX2                !
 ! A232  A(28,66,64)           117.9896         estimate D2E/DX2                !
 ! A233  A(28,66,68)           121.028          estimate D2E/DX2                !
 ! A234  A(64,66,68)           120.2861         estimate D2E/DX2                !
 ! A235  A(65,67,68)           118.9892         estimate D2E/DX2                !
 ! A236  A(65,67,69)           115.9055         estimate D2E/DX2                !
 ! A237  A(68,67,69)           124.0606         estimate D2E/DX2                !
 ! A238  A(66,68,67)           119.7867         estimate D2E/DX2                !
 ! A239  A(66,68,70)           120.4329         estimate D2E/DX2                !
 ! A240  A(67,68,70)           119.2767         estimate D2E/DX2                !
 ! A241  A(31,69,67)           107.936          estimate D2E/DX2                !
 ! A242  A(31,69,71)           101.4651         estimate D2E/DX2                !
 ! A243  A(31,69,92)           113.3177         estimate D2E/DX2                !
 ! A244  A(67,69,71)           110.3135         estimate D2E/DX2                !
 ! A245  A(67,69,92)           110.1603         estimate D2E/DX2                !
 ! A246  A(71,69,92)           113.2606         estimate D2E/DX2                !
 ! A247  A(32,70,68)           108.6197         estimate D2E/DX2                !
 ! A248  A(32,70,72)           101.0008         estimate D2E/DX2                !
 ! A249  A(32,70,86)           114.1076         estimate D2E/DX2                !
 ! A250  A(68,70,72)           110.5017         estimate D2E/DX2                !
 ! A251  A(68,70,86)           108.8715         estimate D2E/DX2                !
 ! A252  A(72,70,86)           113.4831         estimate D2E/DX2                !
 ! A253  A(69,71,72)           122.4096         estimate D2E/DX2                !
 ! A254  A(69,71,73)           109.9634         estimate D2E/DX2                !
 ! A255  A(72,71,73)           119.1576         estimate D2E/DX2                !
 ! A256  A(70,72,71)           123.074          estimate D2E/DX2                !
 ! A257  A(70,72,74)           110.1465         estimate D2E/DX2                !
 ! A258  A(71,72,74)           118.712          estimate D2E/DX2                !
 ! A259  A(33,73,71)           108.2142         estimate D2E/DX2                !
 ! A260  A(33,73,75)           119.6602         estimate D2E/DX2                !
 ! A261  A(71,73,75)           121.7685         estimate D2E/DX2                !
 ! A262  A(34,74,72)           108.4989         estimate D2E/DX2                !
 ! A263  A(34,74,76)           119.7906         estimate D2E/DX2                !
 ! A264  A(72,74,76)           121.8728         estimate D2E/DX2                !
 ! A265  A(73,75,76)           119.016          estimate D2E/DX2                !
 ! A266  A(73,75,77)           122.1041         estimate D2E/DX2                !
 ! A267  A(76,75,77)           111.9144         estimate D2E/DX2                !
 ! A268  A(74,76,75)           119.1475         estimate D2E/DX2                !
 ! A269  A(74,76,78)           122.1165         estimate D2E/DX2                !
 ! A270  A(75,76,78)           111.7335         estimate D2E/DX2                !
 ! A271  A(37,77,75)           112.7695         estimate D2E/DX2                !
 ! A272  A(37,77,81)           111.1836         estimate D2E/DX2                !
 ! A273  A(37,77,101)          108.3941         estimate D2E/DX2                !
 ! A274  A(75,77,81)           100.9113         estimate D2E/DX2                !
 ! A275  A(75,77,101)          111.9425         estimate D2E/DX2                !
 ! A276  A(81,77,101)          111.5627         estimate D2E/DX2                !
 ! A277  A(38,78,76)           112.5226         estimate D2E/DX2                !
 ! A278  A(38,78,81)           111.3594         estimate D2E/DX2                !
 ! A279  A(38,78,102)          108.5185         estimate D2E/DX2                !
 ! A280  A(76,78,81)           100.9702         estimate D2E/DX2                !
 ! A281  A(76,78,102)          112.0872         estimate D2E/DX2                !
 ! A282  A(81,78,102)          111.2922         estimate D2E/DX2                !
 ! A283  A(39,79,40)           107.8584         estimate D2E/DX2                !
 ! A284  A(39,79,82)           112.0272         estimate D2E/DX2                !
 ! A285  A(39,79,100)          111.1546         estimate D2E/DX2                !
 ! A286  A(40,79,82)           100.3554         estimate D2E/DX2                !
 ! A287  A(40,79,100)          112.5985         estimate D2E/DX2                !
 ! A288  A(82,79,100)          112.3372         estimate D2E/DX2                !
 ! A289  A(41,80,42)           109.1215         estimate D2E/DX2                !
 ! A290  A(41,80,82)           100.0092         estimate D2E/DX2                !
 ! A291  A(41,80,87)           111.8888         estimate D2E/DX2                !
 ! A292  A(42,80,82)           112.1727         estimate D2E/DX2                !
 ! A293  A(42,80,87)           110.5218         estimate D2E/DX2                !
 ! A294  A(82,80,87)           112.695          estimate D2E/DX2                !
 ! A295  A(77,81,78)           112.546          estimate D2E/DX2                !
 ! A296  A(77,81,82)           122.3961         estimate D2E/DX2                !
 ! A297  A(78,81,82)           122.5667         estimate D2E/DX2                !
 ! A298  A(79,82,80)           111.8404         estimate D2E/DX2                !
 ! A299  A(79,82,81)           122.1013         estimate D2E/DX2                !
 ! A300  A(80,82,81)           122.1812         estimate D2E/DX2                !
 ! A301  A(55,83,57)           119.7718         estimate D2E/DX2                !
 ! A302  A(55,83,84)           116.5326         estimate D2E/DX2                !
 ! A303  A(57,83,84)           119.4524         estimate D2E/DX2                !
 ! A304  A(56,84,58)           116.5485         estimate D2E/DX2                !
 ! A305  A(56,84,83)           119.5553         estimate D2E/DX2                !
 ! A306  A(58,84,83)           118.8733         estimate D2E/DX2                !
 ! D1    D(17,1,5,9)            21.209          estimate D2E/DX2                !
 ! D2    D(17,1,5,29)         -145.4601         estimate D2E/DX2                !
 ! D3    D(23,1,5,9)           133.6265         estimate D2E/DX2                !
 ! D4    D(23,1,5,29)          -33.0426         estimate D2E/DX2                !
 ! D5    D(95,1,5,9)          -103.3274         estimate D2E/DX2                !
 ! D6    D(95,1,5,29)           90.0035         estimate D2E/DX2                !
 ! D7    D(5,1,17,15)          -23.1173         estimate D2E/DX2                !
 ! D8    D(5,1,17,19)          127.3607         estimate D2E/DX2                !
 ! D9    D(23,1,17,15)        -141.6985         estimate D2E/DX2                !
 ! D10   D(23,1,17,19)           8.7795         estimate D2E/DX2                !
 ! D11   D(95,1,17,15)          99.4572         estimate D2E/DX2                !
 ! D12   D(95,1,17,19)        -110.0648         estimate D2E/DX2                !
 ! D13   D(5,1,23,21)         -133.6072         estimate D2E/DX2                !
 ! D14   D(5,1,23,25)           28.6138         estimate D2E/DX2                !
 ! D15   D(17,1,23,21)         -13.845          estimate D2E/DX2                !
 ! D16   D(17,1,23,25)         148.376          estimate D2E/DX2                !
 ! D17   D(95,1,23,21)         105.2232         estimate D2E/DX2                !
 ! D18   D(95,1,23,25)         -92.5558         estimate D2E/DX2                !
 ! D19   D(43,2,6,10)         -137.5852         estimate D2E/DX2                !
 ! D20   D(43,2,6,15)           10.148          estimate D2E/DX2                !
 ! D21   D(44,2,6,10)          -23.4568         estimate D2E/DX2                !
 ! D22   D(44,2,6,15)          124.2764         estimate D2E/DX2                !
 ! D23   D(91,2,6,10)          100.511          estimate D2E/DX2                !
 ! D24   D(91,2,6,15)         -111.7558         estimate D2E/DX2                !
 ! D25   D(6,2,43,13)           -7.5471         estimate D2E/DX2                !
 ! D26   D(6,2,43,39)          149.4253         estimate D2E/DX2                !
 ! D27   D(44,2,43,13)        -123.3683         estimate D2E/DX2                !
 ! D28   D(44,2,43,39)          33.6041         estimate D2E/DX2                !
 ! D29   D(91,2,43,13)         114.3225         estimate D2E/DX2                !
 ! D30   D(91,2,43,39)         -88.7051         estimate D2E/DX2                !
 ! D31   D(6,2,44,40)         -147.9523         estimate D2E/DX2                !
 ! D32   D(6,2,44,47)           20.4243         estimate D2E/DX2                !
 ! D33   D(43,2,44,40)         -37.9627         estimate D2E/DX2                !
 ! D34   D(43,2,44,47)         130.4139         estimate D2E/DX2                !
 ! D35   D(91,2,44,40)          86.2847         estimate D2E/DX2                !
 ! D36   D(91,2,44,47)        -105.3387         estimate D2E/DX2                !
 ! D37   D(18,3,7,12)          -18.5816         estimate D2E/DX2                !
 ! D38   D(18,3,7,30)          137.1209         estimate D2E/DX2                !
 ! D39   D(26,3,7,12)         -137.8852         estimate D2E/DX2                !
 ! D40   D(26,3,7,30)           17.8173         estimate D2E/DX2                !
 ! D41   D(99,3,7,12)          103.95           estimate D2E/DX2                !
 ! D42   D(99,3,7,30)         -100.3476         estimate D2E/DX2                !
 ! D43   D(7,3,18,16)           27.6917         estimate D2E/DX2                !
 ! D44   D(7,3,18,20)         -134.0627         estimate D2E/DX2                !
 ! D45   D(26,3,18,16)         140.2136         estimate D2E/DX2                !
 ! D46   D(26,3,18,20)         -21.5408         estimate D2E/DX2                !
 ! D47   D(99,3,18,16)         -95.8033         estimate D2E/DX2                !
 ! D48   D(99,3,18,20)         102.4423         estimate D2E/DX2                !
 ! D49   D(7,3,26,24)          139.9929         estimate D2E/DX2                !
 ! D50   D(7,3,26,28)          -21.0383         estimate D2E/DX2                !
 ! D51   D(18,3,26,24)          20.2858         estimate D2E/DX2                !
 ! D52   D(18,3,26,28)        -140.7453         estimate D2E/DX2                !
 ! D53   D(99,3,26,24)        -102.3418         estimate D2E/DX2                !
 ! D54   D(99,3,26,28)          96.6271         estimate D2E/DX2                !
 ! D55   D(45,4,8,11)           25.3289         estimate D2E/DX2                !
 ! D56   D(45,4,8,16)         -124.2577         estimate D2E/DX2                !
 ! D57   D(46,4,8,11)          140.6981         estimate D2E/DX2                !
 ! D58   D(46,4,8,16)           -8.8886         estimate D2E/DX2                !
 ! D59   D(88,4,8,11)          -98.36           estimate D2E/DX2                !
 ! D60   D(88,4,8,16)          112.0534         estimate D2E/DX2                !
 ! D61   D(8,4,45,41)          144.7512         estimate D2E/DX2                !
 ! D62   D(8,4,45,48)          -23.8251         estimate D2E/DX2                !
 ! D63   D(46,4,45,41)          34.7545         estimate D2E/DX2                !
 ! D64   D(46,4,45,48)        -133.8218         estimate D2E/DX2                !
 ! D65   D(88,4,45,41)         -89.4068         estimate D2E/DX2                !
 ! D66   D(88,4,45,48)         102.017          estimate D2E/DX2                !
 ! D67   D(8,4,46,14)           10.6681         estimate D2E/DX2                !
 ! D68   D(8,4,46,42)         -145.9071         estimate D2E/DX2                !
 ! D69   D(45,4,46,14)         126.1541         estimate D2E/DX2                !
 ! D70   D(45,4,46,42)         -30.4211         estimate D2E/DX2                !
 ! D71   D(88,4,46,14)        -111.1445         estimate D2E/DX2                !
 ! D72   D(88,4,46,42)          92.2803         estimate D2E/DX2                !
 ! D73   D(1,5,9,13)            -9.6524         estimate D2E/DX2                !
 ! D74   D(1,5,9,35)          -168.2118         estimate D2E/DX2                !
 ! D75   D(29,5,9,13)          156.8339         estimate D2E/DX2                !
 ! D76   D(29,5,9,35)           -1.7255         estimate D2E/DX2                !
 ! D77   D(1,5,29,27)           11.1524         estimate D2E/DX2                !
 ! D78   D(1,5,29,31)          174.5917         estimate D2E/DX2                !
 ! D79   D(9,5,29,27)         -155.6244         estimate D2E/DX2                !
 ! D80   D(9,5,29,31)            7.8149         estimate D2E/DX2                !
 ! D81   D(2,6,10,49)           -0.5326         estimate D2E/DX2                !
 ! D82   D(2,6,10,53)          145.2631         estimate D2E/DX2                !
 ! D83   D(15,6,10,49)        -145.4201         estimate D2E/DX2                !
 ! D84   D(15,6,10,53)           0.3757         estimate D2E/DX2                !
 ! D85   D(2,6,15,13)           -9.3479         estimate D2E/DX2                !
 ! D86   D(2,6,15,17)         -154.0743         estimate D2E/DX2                !
 ! D87   D(10,6,15,13)         139.5462         estimate D2E/DX2                !
 ! D88   D(10,6,15,17)          -5.1803         estimate D2E/DX2                !
 ! D89   D(3,7,12,14)            1.5586         estimate D2E/DX2                !
 ! D90   D(3,7,12,36)          156.3943         estimate D2E/DX2                !
 ! D91   D(30,7,12,14)        -151.8134         estimate D2E/DX2                !
 ! D92   D(30,7,12,36)           3.0224         estimate D2E/DX2                !
 ! D93   D(3,7,30,28)           -8.8699         estimate D2E/DX2                !
 ! D94   D(3,7,30,32)         -163.5525         estimate D2E/DX2                !
 ! D95   D(12,7,30,28)         147.9477         estimate D2E/DX2                !
 ! D96   D(12,7,30,32)          -6.7348         estimate D2E/DX2                !
 ! D97   D(4,8,11,50)            2.0455         estimate D2E/DX2                !
 ! D98   D(4,8,11,54)         -146.1606         estimate D2E/DX2                !
 ! D99   D(16,8,11,50)         149.1906         estimate D2E/DX2                !
 ! D100  D(16,8,11,54)           0.9845         estimate D2E/DX2                !
 ! D101  D(4,8,16,14)            4.2102         estimate D2E/DX2                !
 ! D102  D(4,8,16,18)          152.8814         estimate D2E/DX2                !
 ! D103  D(11,8,16,14)        -146.2946         estimate D2E/DX2                !
 ! D104  D(11,8,16,18)           2.3765         estimate D2E/DX2                !
 ! D105  D(5,9,13,15)           -2.2751         estimate D2E/DX2                !
 ! D106  D(5,9,13,43)         -147.4623         estimate D2E/DX2                !
 ! D107  D(35,9,13,15)         157.268          estimate D2E/DX2                !
 ! D108  D(35,9,13,43)          12.0808         estimate D2E/DX2                !
 ! D109  D(5,9,35,33)           -8.0114         estimate D2E/DX2                !
 ! D110  D(5,9,35,37)          151.2235         estimate D2E/DX2                !
 ! D111  D(13,9,35,33)        -167.2457         estimate D2E/DX2                !
 ! D112  D(13,9,35,37)          -8.0108         estimate D2E/DX2                !
 ! D113  D(6,10,49,47)          27.3468         estimate D2E/DX2                !
 ! D114  D(6,10,49,51)         142.4473         estimate D2E/DX2                !
 ! D115  D(6,10,49,90)         -94.8459         estimate D2E/DX2                !
 ! D116  D(53,10,49,47)       -120.9643         estimate D2E/DX2                !
 ! D117  D(53,10,49,51)         -5.8637         estimate D2E/DX2                !
 ! D118  D(53,10,49,90)        116.843          estimate D2E/DX2                !
 ! D119  D(6,10,53,19)           4.227          estimate D2E/DX2                !
 ! D120  D(6,10,53,55)        -142.2005         estimate D2E/DX2                !
 ! D121  D(49,10,53,19)        154.1294         estimate D2E/DX2                !
 ! D122  D(49,10,53,55)          7.7019         estimate D2E/DX2                !
 ! D123  D(8,11,50,48)         -30.8617         estimate D2E/DX2                !
 ! D124  D(8,11,50,52)        -145.853          estimate D2E/DX2                !
 ! D125  D(8,11,50,89)          91.5141         estimate D2E/DX2                !
 ! D126  D(54,11,50,48)        119.3965         estimate D2E/DX2                !
 ! D127  D(54,11,50,52)          4.4053         estimate D2E/DX2                !
 ! D128  D(54,11,50,89)       -118.2277         estimate D2E/DX2                !
 ! D129  D(8,11,54,20)          -3.0511         estimate D2E/DX2                !
 ! D130  D(8,11,54,56)         147.7173         estimate D2E/DX2                !
 ! D131  D(50,11,54,20)       -154.689          estimate D2E/DX2                !
 ! D132  D(50,11,54,56)         -3.9206         estimate D2E/DX2                !
 ! D133  D(7,12,14,16)           7.0185         estimate D2E/DX2                !
 ! D134  D(7,12,14,46)         152.6223         estimate D2E/DX2                !
 ! D135  D(36,12,14,16)       -148.447          estimate D2E/DX2                !
 ! D136  D(36,12,14,46)         -2.8431         estimate D2E/DX2                !
 ! D137  D(7,12,36,34)           4.9935         estimate D2E/DX2                !
 ! D138  D(7,12,36,38)        -151.7168         estimate D2E/DX2                !
 ! D139  D(14,12,36,34)        159.5203         estimate D2E/DX2                !
 ! D140  D(14,12,36,38)          2.81           estimate D2E/DX2                !
 ! D141  D(9,13,15,6)         -144.7637         estimate D2E/DX2                !
 ! D142  D(9,13,15,17)           0.8076         estimate D2E/DX2                !
 ! D143  D(43,13,15,6)           4.271          estimate D2E/DX2                !
 ! D144  D(43,13,15,17)        149.8424         estimate D2E/DX2                !
 ! D145  D(9,13,43,2)          151.3986         estimate D2E/DX2                !
 ! D146  D(9,13,43,39)          -6.4507         estimate D2E/DX2                !
 ! D147  D(15,13,43,2)           2.4126         estimate D2E/DX2                !
 ! D148  D(15,13,43,39)       -155.4367         estimate D2E/DX2                !
 ! D149  D(12,14,16,8)         152.2404         estimate D2E/DX2                !
 ! D150  D(12,14,16,18)          3.4806         estimate D2E/DX2                !
 ! D151  D(46,14,16,8)           2.967          estimate D2E/DX2                !
 ! D152  D(46,14,16,18)       -145.7928         estimate D2E/DX2                !
 ! D153  D(12,14,46,4)        -158.0517         estimate D2E/DX2                !
 ! D154  D(12,14,46,42)         -0.3406         estimate D2E/DX2                !
 ! D155  D(16,14,46,4)          -8.8899         estimate D2E/DX2                !
 ! D156  D(16,14,46,42)        148.8212         estimate D2E/DX2                !
 ! D157  D(6,15,17,1)          153.8446         estimate D2E/DX2                !
 ! D158  D(6,15,17,19)           5.3394         estimate D2E/DX2                !
 ! D159  D(13,15,17,1)          12.9773         estimate D2E/DX2                !
 ! D160  D(13,15,17,19)       -135.528          estimate D2E/DX2                !
 ! D161  D(8,16,18,3)         -166.0596         estimate D2E/DX2                !
 ! D162  D(8,16,18,20)          -3.6735         estimate D2E/DX2                !
 ! D163  D(14,16,18,3)         -21.897          estimate D2E/DX2                !
 ! D164  D(14,16,18,20)        140.4891         estimate D2E/DX2                !
 ! D165  D(1,17,19,21)          -0.9167         estimate D2E/DX2                !
 ! D166  D(1,17,19,53)        -152.1941         estimate D2E/DX2                !
 ! D167  D(15,17,19,21)        150.5725         estimate D2E/DX2                !
 ! D168  D(15,17,19,53)         -0.7049         estimate D2E/DX2                !
 ! D169  D(3,18,20,22)           2.5135         estimate D2E/DX2                !
 ! D170  D(3,18,20,54)         163.1714         estimate D2E/DX2                !
 ! D171  D(16,18,20,22)       -159.0713         estimate D2E/DX2                !
 ! D172  D(16,18,20,54)          1.5866         estimate D2E/DX2                !
 ! D173  D(17,19,21,23)         -7.4082         estimate D2E/DX2                !
 ! D174  D(17,19,21,57)       -125.8839         estimate D2E/DX2                !
 ! D175  D(17,19,21,97)        111.4418         estimate D2E/DX2                !
 ! D176  D(53,19,21,23)        142.9388         estimate D2E/DX2                !
 ! D177  D(53,19,21,57)         24.4631         estimate D2E/DX2                !
 ! D178  D(53,19,21,97)        -98.2112         estimate D2E/DX2                !
 ! D179  D(17,19,53,10)         -4.0776         estimate D2E/DX2                !
 ! D180  D(17,19,53,55)        138.6146         estimate D2E/DX2                !
 ! D181  D(21,19,53,10)       -152.282          estimate D2E/DX2                !
 ! D182  D(21,19,53,55)         -9.5899         estimate D2E/DX2                !
 ! D183  D(18,20,22,24)         18.1673         estimate D2E/DX2                !
 ! D184  D(18,20,22,58)        129.6367         estimate D2E/DX2                !
 ! D185  D(18,20,22,98)       -106.7062         estimate D2E/DX2                !
 ! D186  D(54,20,22,24)       -142.8174         estimate D2E/DX2                !
 ! D187  D(54,20,22,58)        -31.3479         estimate D2E/DX2                !
 ! D188  D(54,20,22,98)         92.3092         estimate D2E/DX2                !
 ! D189  D(18,20,54,11)          1.7287         estimate D2E/DX2                !
 ! D190  D(18,20,54,56)       -144.5574         estimate D2E/DX2                !
 ! D191  D(22,20,54,11)        163.2083         estimate D2E/DX2                !
 ! D192  D(22,20,54,56)         16.9222         estimate D2E/DX2                !
 ! D193  D(19,21,23,1)          13.3776         estimate D2E/DX2                !
 ! D194  D(19,21,23,25)       -148.8257         estimate D2E/DX2                !
 ! D195  D(57,21,23,1)         132.4619         estimate D2E/DX2                !
 ! D196  D(57,21,23,25)        -29.7414         estimate D2E/DX2                !
 ! D197  D(97,21,23,1)        -106.0918         estimate D2E/DX2                !
 ! D198  D(97,21,23,25)         91.7049         estimate D2E/DX2                !
 ! D199  D(19,21,57,59)        141.8635         estimate D2E/DX2                !
 ! D200  D(19,21,57,83)        -25.5134         estimate D2E/DX2                !
 ! D201  D(23,21,57,59)         29.6194         estimate D2E/DX2                !
 ! D202  D(23,21,57,83)       -137.7575         estimate D2E/DX2                !
 ! D203  D(97,21,57,59)        -93.4285         estimate D2E/DX2                !
 ! D204  D(97,21,57,83)         99.1946         estimate D2E/DX2                !
 ! D205  D(20,22,24,26)        -20.1556         estimate D2E/DX2                !
 ! D206  D(20,22,24,62)        139.0443         estimate D2E/DX2                !
 ! D207  D(58,22,24,26)       -137.9776         estimate D2E/DX2                !
 ! D208  D(58,22,24,62)         21.2222         estimate D2E/DX2                !
 ! D209  D(98,22,24,26)        103.7325         estimate D2E/DX2                !
 ! D210  D(98,22,24,62)        -97.0676         estimate D2E/DX2                !
 ! D211  D(20,22,58,60)       -131.6645         estimate D2E/DX2                !
 ! D212  D(20,22,58,84)         27.9738         estimate D2E/DX2                !
 ! D213  D(24,22,58,60)        -12.9688         estimate D2E/DX2                !
 ! D214  D(24,22,58,84)        146.6695         estimate D2E/DX2                !
 ! D215  D(98,22,58,60)        105.5328         estimate D2E/DX2                !
 ! D216  D(98,22,58,84)        -94.8289         estimate D2E/DX2                !
 ! D217  D(1,23,25,27)          -0.6326         estimate D2E/DX2                !
 ! D218  D(1,23,25,61)        -156.5331         estimate D2E/DX2                !
 ! D219  D(21,23,25,27)        159.8342         estimate D2E/DX2                !
 ! D220  D(21,23,25,61)          3.9337         estimate D2E/DX2                !
 ! D221  D(22,24,26,3)           0.6337         estimate D2E/DX2                !
 ! D222  D(22,24,26,28)        159.5288         estimate D2E/DX2                !
 ! D223  D(62,24,26,3)        -156.3919         estimate D2E/DX2                !
 ! D224  D(62,24,26,28)          2.5031         estimate D2E/DX2                !
 ! D225  D(22,24,62,60)        -21.0841         estimate D2E/DX2                !
 ! D226  D(22,24,62,64)       -136.4632         estimate D2E/DX2                !
 ! D227  D(22,24,62,94)         98.8467         estimate D2E/DX2                !
 ! D228  D(26,24,62,60)        138.5038         estimate D2E/DX2                !
 ! D229  D(26,24,62,64)         23.1247         estimate D2E/DX2                !
 ! D230  D(26,24,62,94)       -101.5654         estimate D2E/DX2                !
 ! D231  D(23,25,27,29)        -22.5836         estimate D2E/DX2                !
 ! D232  D(23,25,27,65)       -136.9277         estimate D2E/DX2                !
 ! D233  D(23,25,27,93)        103.2208         estimate D2E/DX2                !
 ! D234  D(61,25,27,29)        135.5284         estimate D2E/DX2                !
 ! D235  D(61,25,27,65)         21.1843         estimate D2E/DX2                !
 ! D236  D(61,25,27,93)        -98.6672         estimate D2E/DX2                !
 ! D237  D(23,25,61,59)         21.5076         estimate D2E/DX2                !
 ! D238  D(23,25,61,63)        136.7088         estimate D2E/DX2                !
 ! D239  D(23,25,61,96)       -103.6733         estimate D2E/DX2                !
 ! D240  D(27,25,61,59)       -136.631          estimate D2E/DX2                !
 ! D241  D(27,25,61,63)        -21.4298         estimate D2E/DX2                !
 ! D242  D(27,25,61,96)         98.1881         estimate D2E/DX2                !
 ! D243  D(3,26,28,30)          16.3008         estimate D2E/DX2                !
 ! D244  D(3,26,28,66)         131.5833         estimate D2E/DX2                !
 ! D245  D(3,26,28,85)        -105.3421         estimate D2E/DX2                !
 ! D246  D(24,26,28,30)       -144.7259         estimate D2E/DX2                !
 ! D247  D(24,26,28,66)        -29.4433         estimate D2E/DX2                !
 ! D248  D(24,26,28,85)         93.6312         estimate D2E/DX2                !
 ! D249  D(25,27,29,5)          16.8637         estimate D2E/DX2                !
 ! D250  D(25,27,29,31)       -147.0523         estimate D2E/DX2                !
 ! D251  D(65,27,29,5)         126.445          estimate D2E/DX2                !
 ! D252  D(65,27,29,31)        -37.471          estimate D2E/DX2                !
[...]
 Alpha virt. eigenvalues --    1.60241   1.60676   1.60785   1.61308   1.61889
 Alpha virt. eigenvalues --    1.62367   1.62512   1.62742   1.62935   1.63337
 Alpha virt. eigenvalues --    1.63464   1.63675   1.63968   1.64113   1.64288
 Alpha virt. eigenvalues --    1.64476   1.64866   1.65039   1.65142   1.65375
 Alpha virt. eigenvalues --    1.65634   1.66164   1.66276   1.66480   1.66704
 Alpha virt. eigenvalues --    1.67007   1.67106   1.67527   1.67785   1.67854
 Alpha virt. eigenvalues --    1.68012   1.68233   1.68373   1.68683   1.68824
 Alpha virt. eigenvalues --    1.68974   1.69231   1.69518   1.69676   1.69954
 Alpha virt. eigenvalues --    1.70123   1.70307   1.70635   1.70907   1.71279
 Alpha virt. eigenvalues --    1.71481   1.71852   1.71890   1.72114   1.72222
 Alpha virt. eigenvalues --    1.72517   1.72658   1.72801   1.73147   1.73501
 Alpha virt. eigenvalues --    1.73613   1.74036   1.74118   1.74213   1.74607
 Alpha virt. eigenvalues --    1.74873   1.75115   1.75457   1.75510   1.75852
 Alpha virt. eigenvalues --    1.76143   1.76263   1.76394   1.76630   1.76715
 Alpha virt. eigenvalues --    1.76954   1.77259   1.77546   1.77802   1.77927
 Alpha virt. eigenvalues --    1.78150   1.78576   1.78901   1.79046   1.79302
 Alpha virt. eigenvalues --    1.79557   1.79997   1.80268   1.80314   1.80631
 Alpha virt. eigenvalues --    1.80953   1.81176   1.81375   1.81421   1.81709
 Alpha virt. eigenvalues --    1.81828   1.82044   1.82138   1.82309   1.82592
 Alpha virt. eigenvalues --    1.82689   1.82971   1.83023   1.83440   1.83773
 Alpha virt. eigenvalues --    1.84060   1.84263   1.84553   1.85092   1.85443
 Alpha virt. eigenvalues --    1.85787   1.86004   1.86185   1.86336   1.86546
 Alpha virt. eigenvalues --    1.86864   1.87137   1.87722   1.87932   1.88060
 Alpha virt. eigenvalues --    1.88248   1.88654   1.88917   1.89273   1.89493
 Alpha virt. eigenvalues --    1.89754   1.90588   1.90976   1.91314   1.91540
 Alpha virt. eigenvalues --    1.91571   1.92073   1.92581   1.92736   1.93605
 Alpha virt. eigenvalues --    1.93660   1.94317   1.94755   1.94984   1.95096
 Alpha virt. eigenvalues --    1.95694   1.96044   1.96388   1.96669   1.97259
 Alpha virt. eigenvalues --    1.97633   1.97912   1.98234   1.98331   1.98710
 Alpha virt. eigenvalues --    1.99118   1.99206   1.99680   1.99908   2.00137
 Alpha virt. eigenvalues --    2.00405   2.00899   2.01264   2.01577   2.01755
 Alpha virt. eigenvalues --    2.02289   2.02579   2.02943   2.03153   2.03492
 Alpha virt. eigenvalues --    2.03657   2.04091   2.04848   2.05270   2.05657
 Alpha virt. eigenvalues --    2.06144   2.06256   2.06687   2.06802   2.07642
 Alpha virt. eigenvalues --    2.07910   2.08295   2.08497   2.08851   2.09196
 Alpha virt. eigenvalues --    2.09557   2.09772   2.10238   2.10470   2.10810
 Alpha virt. eigenvalues --    2.11099   2.11923   2.11989   2.12206   2.12929
 Alpha virt. eigenvalues --    2.13274   2.13341   2.13555   2.14053   2.14370
 Alpha virt. eigenvalues --    2.14981   2.15378   2.15507   2.16265   2.16721
 Alpha virt. eigenvalues --    2.16857   2.17279   2.17695   2.18139   2.18423
 Alpha virt. eigenvalues --    2.19021   2.19234   2.19525   2.19832   2.20173
 Alpha virt. eigenvalues --    2.20772   2.20985   2.21236   2.21639   2.21957
 Alpha virt. eigenvalues --    2.22787   2.23000   2.23215   2.23578   2.24271
 Alpha virt. eigenvalues --    2.24431   2.24991   2.25558   2.26311   2.26561
 Alpha virt. eigenvalues --    2.26967   2.27012   2.27679   2.27976   2.28263
 Alpha virt. eigenvalues --    2.28962   2.29077   2.29674   2.29891   2.30487
 Alpha virt. eigenvalues --    2.30627   2.30974   2.31702   2.31771   2.32306
 Alpha virt. eigenvalues --    2.33302   2.33560   2.34085   2.34671   2.35348
 Alpha virt. eigenvalues --    2.35671   2.36527   2.36969   2.37523   2.37607
 Alpha virt. eigenvalues --    2.38035   2.38317   2.38764   2.39072   2.39826
 Alpha virt. eigenvalues --    2.40323   2.41101   2.41397   2.41601   2.42210
 Alpha virt. eigenvalues --    2.42551   2.43290   2.43531   2.44060   2.44420
 Alpha virt. eigenvalues --    2.45036   2.45453   2.45660   2.46013   2.46516
 Alpha virt. eigenvalues --    2.47053   2.47833   2.48212   2.48364   2.48827
 Alpha virt. eigenvalues --    2.49112   2.49995   2.50585   2.50773   2.51219
 Alpha virt. eigenvalues --    2.51476   2.52116   2.52188   2.52823   2.53300
 Alpha virt. eigenvalues --    2.53385   2.54088   2.54293   2.54730   2.55160
 Alpha virt. eigenvalues --    2.55399   2.56319   2.56466   2.56752   2.57435
 Alpha virt. eigenvalues --    2.57569   2.57956   2.58096   2.58375   2.58936
 Alpha virt. eigenvalues --    2.59044   2.59256   2.59593   2.60083   2.60538
 Alpha virt. eigenvalues --    2.60869   2.61205   2.61355   2.61762   2.62408
 Alpha virt. eigenvalues --    2.63203   2.63425   2.63654   2.63959   2.64191
 Alpha virt. eigenvalues --    2.64455   2.65107   2.65282   2.65455   2.65982
 Alpha virt. eigenvalues --    2.66104   2.66432   2.66918   2.67429   2.68321
 Alpha virt. eigenvalues --    2.68382   2.68859   2.69099   2.69352   2.69605
 Alpha virt. eigenvalues --    2.69961   2.70287   2.70525   2.70874   2.71350
 Alpha virt. eigenvalues --    2.71632   2.71971   2.72304   2.72438   2.72504
 Alpha virt. eigenvalues --    2.73281   2.73722   2.73802   2.74131   2.74493
 Alpha virt. eigenvalues --    2.74626   2.75207   2.75375   2.75703   2.75980
 Alpha virt. eigenvalues --    2.76685   2.76956   2.77585   2.77640   2.78070
 Alpha virt. eigenvalues --    2.78366   2.78943   2.79590   2.79761   2.80050
 Alpha virt. eigenvalues --    2.80257   2.80583   2.81410   2.82021   2.82922
 Alpha virt. eigenvalues --    2.83305   2.83622   2.84153   2.84384   2.84564
 Alpha virt. eigenvalues --    2.85055   2.85450   2.86559   2.87372   2.87709
 Alpha virt. eigenvalues --    2.87913   2.88499   2.89370   2.90323   2.90700
 Alpha virt. eigenvalues --    2.90872   2.91634   2.92836   2.93208   2.93378
 Alpha virt. eigenvalues --    2.94132   2.94866   2.95738   2.96158   2.97155
 Alpha virt. eigenvalues --    2.97768   2.99179   2.99592   3.00613   3.01295
 Alpha virt. eigenvalues --    3.02921   3.03937   3.05723   3.07022   3.08049
 Alpha virt. eigenvalues --    3.09017   3.09846   3.11939   3.12626   3.13497
 Alpha virt. eigenvalues --    3.14274   3.15736   3.16178   3.17433   3.17914
 Alpha virt. eigenvalues --    3.19599   3.20392   3.21570   3.22501   3.23806
 Alpha virt. eigenvalues --    3.26402   3.26909   3.28604   3.31452   3.33693
 Alpha virt. eigenvalues --    3.35431   3.39063   3.39612   3.40098   3.41239
 Alpha virt. eigenvalues --    3.43677   3.45029   3.46884   3.49960   3.52049
 Alpha virt. eigenvalues --    4.01171   4.02403   4.02818   4.02980   4.03469
 Alpha virt. eigenvalues --    4.05205   4.05856   4.06720   4.07056   4.07660
 Alpha virt. eigenvalues --    4.08212   4.08651   4.08852   4.09932   4.10731
 Alpha virt. eigenvalues --    4.11762   4.12107   4.13226   4.13762   4.14569
 Alpha virt. eigenvalues --    4.15253   4.15637   4.16345   4.16576   4.17967
 Alpha virt. eigenvalues --    4.18358   4.18970   4.19684   4.20750   4.21239
 Alpha virt. eigenvalues --    4.21685   4.22745   4.23642   4.24152   4.25009
 Alpha virt. eigenvalues --    4.25507   4.25521   4.25769   4.26173   4.26927
 Alpha virt. eigenvalues --    4.27066   4.27240   4.27936   4.28424   4.29105
 Alpha virt. eigenvalues --    4.29339   4.29563   4.30389   4.30749   4.30975
 Alpha virt. eigenvalues --    4.32212   4.33248   4.34081   4.35650   4.36818
 Alpha virt. eigenvalues --    4.37312   4.38258   4.38845   4.39714   4.40444
 Alpha virt. eigenvalues --    4.41467   4.41818   4.42231   4.42450   4.42590
 Alpha virt. eigenvalues --    4.43665   4.44395   4.45350   4.47253   4.48229
 Alpha virt. eigenvalues --    4.48752   4.50284   4.51211   4.52795   4.55390
 Alpha virt. eigenvalues --    4.55740   4.56335   4.56957   4.59566   4.61084
 Alpha virt. eigenvalues --    4.62774   4.63526   4.64621   4.66949   4.67859
 Alpha virt. eigenvalues --    4.68541   4.75298   4.76587   4.79590   4.79871
 Alpha virt. eigenvalues --    4.81669   4.83965   4.84628   4.86309   4.94270
 Alpha virt. eigenvalues --    4.95807   4.96794   5.00310   5.01479   5.05671
 Alpha virt. eigenvalues --    5.11858   5.16348
          Condensed to atoms (all electrons):
 Mulliken charges:
               1
     1  C   -0.355408
     2  C   -0.388550
     3  C   -0.357545
     4  C   -0.391481
     5  C    0.091658
     6  C    0.093174
     7  C    0.079396
     8  C    0.091247
     9  C    0.062414
    10  C    0.096085
    11  C    0.092354
    12  C    0.059147
    13  C   -0.013816
    14  C   -0.013983
    15  C    0.032894
    16  C    0.042323
    17  C    0.103514
    18  C    0.120493
    19  C    0.102821
    20  C    0.123936
    21  C   -0.356474
    22  C   -0.359542
    23  C    0.178587
    24  C    0.183155
    25  C    0.189444
    26  C    0.180442
    27  C   -0.377633
    28  C   -0.373812
    29  C    0.153545
    30  C    0.134721
    31  C    0.085614
    32  C    0.087522
    33  C   -0.013599
    34  C   -0.008853
    35  C    0.062403
    36  C    0.068287
    37  C    0.091802
    38  C    0.092039
    39  C    0.153362
    40  C    0.118596
    41  C    0.113286
    42  C    0.151553
    43  C    0.085719
    44  C    0.143826
    45  C    0.145626
    46  C    0.084441
    47  C    0.118913
    48  C    0.124247
    49  C   -0.381523
    50  C   -0.384449
    51  C    0.095000
    52  C    0.093309
    53  C    0.034760
    54  C    0.041688
    55  C   -0.011928
    56  C   -0.006700
    57  C    0.095972
    58  C    0.082486
    59  C    0.146097
    60  C    0.121083
    61  C   -0.383430
    62  C   -0.383602
    63  C    0.115900
    64  C    0.145031
    65  C    0.116995
    66  C    0.123963
    67  C    0.141385
    68  C    0.124037
    69  C   -0.388007
    70  C   -0.384436
    71  C    0.093019
    72  C    0.097582
    73  C    0.033501
    74  C    0.031029
    75  C    0.103867
    76  C    0.104969
    77  C   -0.355298
    78  C   -0.353123
    79  C   -0.377851
    80  C   -0.379120
    81  C    0.177854
    82  C    0.188772
    83  C    0.070306
    84  C    0.056661
    85  Cl   0.029960
    86  Cl   0.030069
    87  Cl   0.033151
    88  Cl   0.032191
    89  Cl   0.030679
    90  Cl   0.029375
    91  Cl   0.031614
    92  Cl   0.031309
    93  Cl   0.033918
    94  Cl   0.033036
    95  Cl   0.007646
    96  Cl   0.035099
    97  Cl   0.011240
    98  Cl   0.007054
    99  Cl   0.001922
   100  Cl   0.034238
   101  Cl   0.006955
   102  Cl   0.006855
 Sum of Mulliken charges =  -0.00000
 Mulliken charges with hydrogens summed into heavy atoms:
               1
     1  C   -0.355408
     2  C   -0.388550
     3  C   -0.357545
     4  C   -0.391481
     5  C    0.091658
     6  C    0.093174
     7  C    0.079396
     8  C    0.091247
     9  C    0.062414
    10  C    0.096085
    11  C    0.092354
    12  C    0.059147
    13  C   -0.013816
    14  C   -0.013983
    15  C    0.032894
    16  C    0.042323
    17  C    0.103514
    18  C    0.120493
    19  C    0.102821
    20  C    0.123936
    21  C   -0.356474
    22  C   -0.359542
    23  C    0.178587
    24  C    0.183155
    25  C    0.189444
    26  C    0.180442
    27  C   -0.377633
    28  C   -0.373812
    29  C    0.153545
    30  C    0.134721
    31  C    0.085614
    32  C    0.087522
    33  C   -0.013599
    34  C   -0.008853
    35  C    0.062403
    36  C    0.068287
    37  C    0.091802
    38  C    0.092039
    39  C    0.153362
    40  C    0.118596
    41  C    0.113286
    42  C    0.151553
    43  C    0.085719
    44  C    0.143826
    45  C    0.145626
    46  C    0.084441
    47  C    0.118913
    48  C    0.124247
    49  C   -0.381523
    50  C   -0.384449
    51  C    0.095000
    52  C    0.093309
    53  C    0.034760
    54  C    0.041688
    55  C   -0.011928
    56  C   -0.006700
    57  C    0.095972
    58  C    0.082486
    59  C    0.146097
    60  C    0.121083
    61  C   -0.383430
    62  C   -0.383602
    63  C    0.115900
    64  C    0.145031
    65  C    0.116995
    66  C    0.123963
    67  C    0.141385
    68  C    0.124037
    69  C   -0.388007
    70  C   -0.384436
    71  C    0.093019
    72  C    0.097582
    73  C    0.033501
    74  C    0.031029
    75  C    0.103867
    76  C    0.104969
    77  C   -0.355298
    78  C   -0.353123
    79  C   -0.377851
    80  C   -0.379120
    81  C    0.177854
    82  C    0.188772
    83  C    0.070306
    84  C    0.056661
    85  Cl   0.029960
    86  Cl   0.030069
    87  Cl   0.033151
    88  Cl   0.032191
    89  Cl   0.030679
    90  Cl   0.029375
    91  Cl   0.031614
    92  Cl   0.031309
    93  Cl   0.033918
    94  Cl   0.033036
    95  Cl   0.007646
    96  Cl   0.035099
    97  Cl   0.011240
    98  Cl   0.007054
    99  Cl   0.001922
   100  Cl   0.034238
   101  Cl   0.006955
   102  Cl   0.006855
 Electronic spatial extent (au):  <R**2>=          77000.9705
 Charge=             -0.0000 electrons
 Dipole moment (field-independent basis, Debye):
    X=             -0.9750    Y=              0.3281    Z=              0.0710  Tot=              1.0312
 Quadrupole moment (field-independent basis, Debye-Ang):
   XX=           -744.1443   YY=           -711.8632   ZZ=           -715.3788
   XY=             -4.4988   XZ=             -4.3496   YZ=              4.8110
 Traceless Quadrupole moment (field-independent basis, Debye-Ang):
   XX=            -20.3488   YY=             11.9322   ZZ=              8.4166
   XY=             -4.4988   XZ=             -4.3496   YZ=              4.8110
 Octapole moment (field-independent basis, Debye-Ang**2):
  XXX=             28.5408  YYY=            -29.3911  ZZZ=            -30.1912  XYY=            -20.1927
  XXY=             13.0624  XXZ=              4.8975  XZZ=            -12.9153  YZZ=             28.9479
  YYZ=             23.0554  XYZ=             50.0064
 Hexadecapole moment (field-independent basis, Debye-Ang**3):
 XXXX=         -41011.5131 YYYY=         -33726.2608 ZZZZ=         -32441.4989 XXXY=            -53.7016
 XXXZ=           -142.9135 YYYX=            -69.3391 YYYZ=             43.6852 ZZZX=           -117.1805
 ZZZY=             14.9450 XXYY=         -12656.8613 XXZZ=         -12438.2534 YYZZ=         -11066.1809
 XXYZ=            -26.6508 YYXZ=            -12.4053 ZZXY=              8.1460
 N-N= 3.008681600101D+04 E-N=-8.724737774259D+04  KE= 1.142941757307D+04
 Leave Link  601 at Sun Jun 26 15:24:43 2022, MaxMem=  1342177280 cpu:              18.6 elap:               1.0
 (Enter /home/mkliu/g16/l9999.exe)
 1\1\GINC-NODE05\FOpt\RB3LYP\6-31G(d,p)\C84Cl18\MKLIU\26-Jun-2022\0\\#P
  opt b3lyp/6-31G(d, p) empiricaldispersion=GD3\\force\\0,1\C,8.4245880
 839,18.6209810081,10.8164531769\C,12.5823297432,19.9696521256,8.894693
 0052\C,8.2186597666,27.1493172793,10.6009342498\C,12.4804602736,25.762
 5253739,8.9227680243\C,8.0178982785,19.1357251213,9.4366923196\C,12.06
 69294426,19.4676741719,10.2235642135\C,7.9503896802,26.8364629545,9.14
 19685428\C,11.876429426,26.2025569366,10.2361778151\C,8.9933154916,19.
 2415350207,8.3788628855\C,12.3352680981,20.1112384154,11.4074794779\C,
 12.1344638546,25.5462604137,11.409981087\C,8.9624004649,26.6386459926,
 8.1616323403\C,10.3710918665,19.0660956619,8.6818784364\C,10.300908102
 5,26.6943888322,8.6090950398\C,10.8197931268,18.8273986948,10.04464684
 25\C,10.6179657974,26.8009712776,10.03416407\C,9.8985762787,18.7535317
 906,11.0737049438\C,9.623517514,26.7856966011,11.0201816543\C,10.16464
 17533,19.4135050918,12.2802619786\C,9.8744348974,26.0850812178,12.2169
 711426\C,8.8987297216,19.8334428336,12.9776034355\C,8.7411485053,25.61
 69804116,13.1037487998\C,7.8579620029,19.4876742622,11.9272704119\C,7.
 4155426234,25.5933350556,12.3813290516\C,6.7432913448,20.1880719429,11
 .7764658571\C,7.1744973857,26.2824420548,11.2702924438\C,5.9438692503,
 20.1656191959,10.4981831973\C,6.0601980287,25.9194480899,10.3052862807
 \C,6.777107313,19.7564912506,9.29652439\C,6.6998161813,26.2653102502,8
 .9891789684\C,6.4347011861,20.3423079599,8.0656741519\C,6.3725737946,2
 5.6018209251,7.8139993523\C,7.344063669,20.3944204011,7.0142776013\C,7
 .3193347707,25.4599241661,6.8011740004\C,8.6883617284,19.9604256396,7.
 1716116954\C,8.6739160942,25.8804717864,6.9732858745\C,9.7337587655,20
 .6123725772,6.4208759662\C,9.7320355966,25.1552828282,6.3151905352\C,1
 1.0481634132,20.5647468168,6.8837324324\C,12.6828587576,22.1806150914,
 7.7818427791\C,12.6608908235,23.5702974881,7.7855785567\C,11.028302418
 ,25.1891650066,6.8390589373\C,11.3617116085,19.7520584028,7.9867802755
 \C,12.8836332298,21.45829222,8.9575204839\C,12.8285607255,24.285444719
 9,8.9689196017\C,11.3103035435,25.9944506236,7.9599768905\C,13.0955334
 931,22.1600863051,10.1648891984\C,13.061421266,23.5798690549,10.169563
 47\C,13.1686946713,21.3800163591,11.4874887638\C,13.0693558816,24.3528
 898394,11.4954088599\C,12.437358575,22.1489147707,12.5777940264\C,12.3
 960856394,23.5327455508,12.5774238273\C,11.3487791347,20.1153023743,12
 .4244195817\C,11.1174907577,25.46296951,12.3862126061\C,11.3610975998,
 21.4100618787,13.081031159\C,11.2784023154,24.1911003564,13.0886807286
 \C,8.8926677535,21.3270018643,13.3103617537\C,8.8933660969,24.14944553
 04,13.4604884715\C,7.7050717639,22.0411006567,13.1778556446\C,7.719079
 7323,23.45270064,13.2723272445\C,6.4484125934,21.4161955517,12.5999657
 671\C,6.6207108397,24.3633220524,12.7462676351\C,5.871767171,22.331989
 8575,11.5365294515\C,5.971815655,23.7222451818,11.5363163185\C,5.58441
 13681,21.6362350246,10.3681278149\C,5.7407841742,24.4232803301,10.3404
 708949\C,5.3778268073,22.3057322459,9.1621908927\C,5.4361842606,23.716
 1606407,9.1459981699\C,5.3832842258,21.451083116,7.9046788589\C,5.3747
 822943,24.4567256686,7.8038241016\C,5.9339418509,22.222475801,6.727299
 8027\C,5.9277037214,23.5952242944,6.6798133847\C,7.0088095463,21.51192
 76721,6.1457325723\C,6.9998899424,24.2648515516,6.0391116608\C,8.00436
 85089,22.164788038,5.4417141811\C,8.0038937222,23.5653613869,5.3941879
 88\C,9.388499044,21.5979009229,5.3063912473\C,9.3951482965,24.12024422
 4,5.2416530584\C,12.0694995207,21.623530629,6.5084845705\C,12.05699415
 09,24.1218946371,6.5041292483\C,10.2290139339,22.8604215779,5.39225347
 83\C,11.4362506077,22.8688469008,5.9389348667\C,10.1387460701,22.03460
 64758,13.4791392942\C,10.1326191848,23.4711997556,13.5297472247\Cl,4.5
 302394552,26.890205889,10.6370743869\Cl,3.651541031,24.995837749,7.470
 6247741\Cl,13.3481802713,24.8061744024,5.3807425565\Cl,13.9594503327,2
 6.757975737,8.4789824918\Cl,14.7855142002,24.8415427234,11.9220348319\
 Cl,14.9227856828,21.0301979979,11.8989578433\Cl,14.0649242675,19.02778
 52424,8.3588092928\Cl,3.7001372301,20.8083480144,7.5479547385\Cl,4.456
 5983307,19.0925745132,10.6673990007\Cl,5.3528646103,24.7368001605,14.0
 315704039\Cl,7.881263133,16.8526141927,10.9877232384\Cl,5.2340938229,2
 1.0578562457,13.9390102228\Cl,8.6369209153,18.8673764377,14.5390731708
 \Cl,8.6681997385,26.6638607465,14.6357111451\Cl,7.9277405591,28.956063
 3116,10.9481134872\Cl,13.3365232053,20.9419580186,5.358951376\Cl,9.597
 7718973,20.7527522324,3.6643485571\Cl,9.6272015948,24.8856453038,3.564
 5113517\\Version=ES64L-G16RevA.03\State=1-A\HF=-11484.6366064\RMSD=2.7
 04e-09\RMSF=1.451e-05\Dipole=0.3844826,-0.0886751,-0.0944197\Quadrupol
 e=-4.812066,4.1162253,0.6958407,-0.5831486,13.5750407,-1.7015283\PG=C0
 1 [X(C84Cl18)]\\@


 ALL SCIENCE IS EITHER PHYSICS, OR STAMP COLLECTING.
   --ERNEST RUTHERFORD, 1871-1937.
 Job cpu time:       1 days 15 hours 38 minutes 52.1 seconds.
 Elapsed time:       0 days  1 hours 39 minutes 15.2 seconds.
 File lengths (MBytes):  RWF=   1574 Int=      0 D2E=      0 Chk=    196 Scr=      1
 Normal termination of Gaussian 16 at Sun Jun 26 15:24:45 2022.
