 Entering Gaussian System, Link 0=g16
 Input=18_addons_C84_11_Cl22_rank_0.gjf
 Output=18_addons_C84_11_Cl22_rank_0.log
 Initial command:
 /home/mkliu/g16/l1.exe "/data/scratch/Gau-178908.inp" -scrdir="/data/scratch/"
 Entering Link 1 = /home/mkliu/g16/l1.exe PID=    178909.
  
 Copyright (c) 1988,1990,1992,1993,1995,1998,2003,2009,2016,
            Gaussian, Inc.  All Rights Reserved.
  
 This is part of the Gaussian(R) 16 program.  It is based on
 the Gaussian(R) 09 system (copyright 2009, Gaussian, Inc.),
 the Gaussian(R) 03 system (copyright 2003, Gaussian, Inc.),
 the Gaussian(R) 98 system (copyright 1998, Gaussian, Inc.),
 the Gaussian(R) 94 system (copyright 1995, Gaussian, Inc.),
 the Gaussian 92(TM) system (copyright 1992, Gaussian, Inc.),
 the Gaussian 90(TM) system (copyright 1990, Gaussian, Inc.),
 the Gaussian 88(TM) system (copyright 1988, Gaussian, Inc.),
 the Gaussian 86(TM) system (copyright 1986, Carnegie Mellon
 University), and the Gaussian 82(TM) system (copyright 1983,
 Carnegie Mellon University). Gaussian is a federally registered
 trademark of Gaussian, Inc.
  
 This software contains proprietary and confidential information,
 including trade secrets, belonging to Gaussian, Inc.
  
 This software is provided under written license and may be
 used, copied, transmitted, or stored only in accord with that
 written license.
  
 The following legend is applicable only to US Government
 contracts under FAR:
  
                    RESTRICTED RIGHTS LEGEND
  
 Use, reproduction and disclosure by the US Government is
 subject to restrictions as set forth in subparagraphs (a)
 and (c) of the Commercial Computer Software - Restricted
 Rights clause in FAR 52.227-19.
  
 Gaussian, Inc.
 340 Quinnipiac St., Bldg. 40, Wallingford CT 06492
  
  
 ---------------------------------------------------------------
 Warning -- This program may not be used in any manner that
 competes with the business of Gaussian, Inc. or will provide
 assistance to any competitor of Gaussian, Inc.  The licensee
 of this program is prohibited from giving any competitor of
 Gaussian, Inc. access to this program.  By using this program,
 the user acknowledges that Gaussian, Inc. is engaged in the
 business of creating and licensing software in the field of
 computational chemistry and represents and warrants to the
 licensee that it is not a competitor of Gaussian, Inc. and that
 it will not use this program in any manner prohibited above.
 ---------------------------------------------------------------
  

 Cite this work as:
 Gaussian 16, Revision A.03,
 M. J. Frisch, G. W. Trucks, H. B. Schlegel, G. E. Scuseria, 
 M. A. Robb, J. R. Cheeseman, G. Scalmani, V. Barone, 
 G. A. Petersson, H. Nakatsuji, X. Li, M. Caricato, A. V. Marenich, 
 J. Bloino, B. G. Janesko, R. Gomperts, B. Mennucci, H. P. Hratchian, 
 J. V. Ortiz, A. F. Izmaylov, J. L. Sonnenberg, D. Williams-Young, 
 F. Ding, F. Lipparini, F. Egidi, J. Goings, B. Peng, A. Petrone, 
 T. Henderson, D. Ranasinghe, V. G. Zakrzewski, J. Gao, N. Rega, 
 G. Zheng, W. Liang, M. Hada, M. Ehara, K. Toyota, R. Fukuda, 
 J. Hasegawa, M. Ishida, T. Nakajima, Y. Honda, O. Kitao, H. Nakai, 
 T. Vreven, K. Throssell, J. A. Montgomery, Jr., J. E. Peralta, 
 F. Ogliaro, M. J. Bearpark, J. J. Heyd, E. N. Brothers, K. N. Kudin, 
 V. N. Staroverov, T. A. Keith, R. Kobayashi, J. Normand, 
 K. Raghavachari, A. P. Rendell, J. C. Burant, S. S. Iyengar, 
 J. Tomasi, M. Cossi, J. M. Millam, M. Klene, C. Adamo, R. Cammi, 
 J. W. Ochterski, R. L. Martin, K. Morokuma, O. Farkas, 
 J. B. Foresman, and D. J. Fox, Gaussian, Inc., Wallingford CT, 2016.
 
 ******************************************
 Gaussian 16:  ES64L-G16RevA.03 25-Dec-2016
                30-Jun-2022 
 ******************************************
 %mem=10GB
 %chk=18_addons_C84_11_Cl22_rank_0.chk
 %nprocshared=24
 Will use up to   24 processors via shared memory.
 ------------------------------------------------
 #P opt b3lyp/6-31G(d, p) empiricaldispersion=GD3
 ------------------------------------------------
 1/18=20,19=15,26=3,38=1/1,3;
 2/9=110,12=2,17=6,18=5,40=1/2;
 3/5=1,6=6,7=101,11=2,25=1,30=1,71=1,74=-5,124=31/1,2,3;
 4//1;
 5/5=2,38=5/2;
 6/7=2,8=2,9=2,10=2,28=1/1;
 7//1,2,3,16;
 1/18=20,19=15,26=3/3(2);
 2/9=110/2;
 99//99;
 2/9=110/2;
 3/5=1,6=6,7=101,11=2,25=1,30=1,71=1,74=-5,124=31/1,2,3;
 4/5=5,16=3,69=1/1;
 5/5=2,38=5/2;
 7//1,2,3,16;
 1/18=20,19=15,26=3/3(-5);
 2/9=110/2;
 6/7=2,8=2,9=2,10=2,19=2,28=1/1;
 99/9=1/99;
 Leave Link    1 at Thu Jun 30 04:39:39 2022, MaxMem=  1342177280 cpu:               0.6 elap:               0.0
 (Enter /home/mkliu/g16/l101.exe)
 -----
 force
 -----
 Symbolic Z-matrix:
 Charge =  0 Multiplicity = 1
 C                     8.43379   18.64061   10.80317 
 C                     12.57625   19.96974   8.89414 
 C                     8.27401   26.82276   10.50318 
 C                     12.47774   25.70978   8.92966 
 C                     8.03543   19.15336   9.43498 
 C                     12.07193   19.46962   10.21379 
 C                     7.89786   27.08237   9.06816 
 C                     11.89234   26.1651   10.2345 
 C                     8.98595   19.24706   8.38654 
 C                     12.33885   20.11589   11.38873 
 C                     12.13649   25.52523   11.36839 
 C                     8.97174   26.54377   8.16259 
 C                     10.37344   19.07534   8.68515 
 C                     10.26966   26.58387   8.64044 
 C                     10.81934   18.83792   10.03797 
 C                     10.68617   27.03831   10.0132 
 C                     9.89978   18.7601   11.06151 
 C                     9.57792   26.73665   10.97898 
 C                     10.16744   19.4172   12.26356 
 C                     9.83317   26.03034   12.16082 
 C                     8.90921   19.83936   12.95427 
 C                     8.76747   25.40351   12.79902 
 C                     7.88093   19.51105   11.90282 
 C                     7.45355   25.51162   12.32618 
 C                     6.75655   20.19499   11.77069 
 C                     7.21086   26.21018   11.17468 
 C                     5.95557   20.17067   10.50245 
 C                     6.06274   25.88995   10.26887 
 C                     6.78916   19.7781   9.3115 
 C                     6.64604   26.26473   8.93782 
 C                     6.44116   20.36231   8.10515 
 C                     6.35491   25.60012   7.83128 
 C                     7.3518    20.40684   7.04476 
 C                     7.23383   25.63256   6.61068 
 C                     8.67711   19.95225   7.18276 
 C                     8.68801   25.79052   7.01591 
 C                     9.71023   20.61053   6.41902 
 C                     9.70587   25.05718   6.38701 
 C                     11.05395   20.57829   6.90045 
 C                     12.69932   22.16266   7.80387 
 C                     12.72695   23.55905   7.78958 
 C                     11.00482   25.06948   6.9179 
 C                     11.3617   19.75617   8.00694 
 C                     12.89898   21.44199   8.97412 
 C                     12.88298   24.2608   8.96818 
 C                     11.27406   25.84721   8.02992 
 C                     13.12022   22.1445   10.16612 
 C                     13.09403   23.55322   10.16233 
 C                     13.16887   21.37274   11.47518 
 C                     13.05634   24.333    11.46066 
 C                     12.41017   22.14349   12.52084 
 C                     12.35254   23.52253   12.50084 
 C                     11.34917   20.11463   12.40147 
 C                     11.21577   25.60258   12.55457 
 C                     11.34782   21.40653   13.03945 
 C                     11.25875   24.1759   13.03695 
 C                     8.89972   21.31567   13.29356 
 C                     8.89589   24.10799   13.43778 
 C                     7.70301   22.0163   13.18918 
 C                     7.706     23.41129   13.29761 
 C                     6.45625   21.40876   12.60075 
 C                     6.63327   24.32892   12.74316 
 C                     5.90971   22.32514   11.53546 
 C                     6.01003   23.70473   11.52661 
 C                     5.6131    21.63201   10.37147 
 C                     5.77226   24.40172   10.33246 
 C                     5.40022   22.30095   9.17868 
 C                     5.46305   23.70132   9.15888 
 C                     5.39176   21.44978   7.93913 
 C                     5.39905   24.43999   7.83441 
 C                     5.93848   22.22684   6.77797 
 C                     5.95852   23.59591   6.73043 
 C                     7.00529   21.51219   6.19708 
 C                     6.98943   24.27363   6.03817 
 C                     8.00401   22.1736   5.50999 
 C                     7.98337   23.58046   5.4014 
 C                     9.35677   21.71198   5.60363 
 C                     9.38636   24.09826   5.25238 
 C                     11.87216   21.70335   6.70397 
 C                     12.0722   24.08231   6.52974 
 C                     10.194    22.83212   5.42622 
 C                     11.44032   22.83125   5.99514 
 C                     10.13449   22.01921   13.43995 
 C                     10.13578   23.44811   13.48182 
 Cl                    4.5617    26.80503   10.65904 
 Cl                    3.69454   24.95464   7.54099 
 Cl                    13.24668   24.84105   5.40042 
 Cl                    13.85136   26.74032   8.38671 
 Cl                    14.7335   24.80622   11.92401 
 Cl                    14.88777   21.06034   11.90308 
 Cl                    14.02679   19.07302   8.30491 
 Cl                    3.74332   20.7958   7.64121 
 Cl                    4.49293   19.12872   10.63707 
 Cl                    9.68715   24.93282   3.68782 
 Cl                    6.79483   26.97251   5.48557 
 Cl                    7.62116   28.83313   8.73676 
 Cl                    5.36896   24.71982   13.96065 
 Cl                    11.10426   28.79186   10.04451 
 Cl                    7.85448   16.92748   10.95983 
 Cl                    5.24265   21.08516   13.894 
 Cl                    8.61684   18.89715   14.4769 
 Cl                    11.85065   26.73722   13.82253 
 
 ITRead=  0  0  0  0  0  0  0  0  0  0  0  0  0  0  0  0  0  0  0  0
 ITRead=  0  0  0  0  0  0  0  0  0  0  0  0  0  0  0  0  0  0  0  0
 ITRead=  0  0  0  0  0  0  0  0  0  0  0  0  0  0  0  0  0  0  0  0
 ITRead=  0  0  0  0  0  0  0  0  0  0  0  0  0  0  0  0  0  0  0  0
 ITRead=  0  0  0  0  0  0  0  0  0  0  0  0  0  0  0  0  0  0  0  0
 ITRead=  0  0
 MicOpt= -1 -1 -1 -1 -1 -1 -1 -1 -1 -1 -1 -1 -1 -1 -1 -1 -1 -1 -1 -1
 MicOpt= -1 -1 -1 -1 -1 -1 -1 -1 -1 -1 -1 -1 -1 -1 -1 -1 -1 -1 -1 -1
 MicOpt= -1 -1 -1 -1 -1 -1 -1 -1 -1 -1 -1 -1 -1 -1 -1 -1 -1 -1 -1 -1
 MicOpt= -1 -1 -1 -1 -1 -1 -1 -1 -1 -1 -1 -1 -1 -1 -1 -1 -1 -1 -1 -1
 MicOpt= -1 -1 -1 -1 -1 -1 -1 -1 -1 -1 -1 -1 -1 -1 -1 -1 -1 -1 -1 -1
 MicOpt= -1 -1
 NAtoms=    102 NQM=      102 NQMF=       0 NMMI=      0 NMMIF=      0
                NMic=       0 NMicF=      0.
                    Isotopes and Nuclear Properties:
 (Nuclear quadrupole moments (NQMom) in fm**2, nuclear magnetic moments (NMagM)
  in nuclear magnetons)

  Atom         1           2           3           4           5           6           7           8           9          10
 IAtWgt=          12          12          12          12          12          12          12          12          12          12
 AtmWgt=  12.0000000  12.0000000  12.0000000  12.0000000  12.0000000  12.0000000  12.0000000  12.0000000  12.0000000  12.0000000
 NucSpn=           0           0           0           0           0           0           0           0           0           0
 AtZEff=  -0.0000000  -0.0000000  -0.0000000  -0.0000000  -0.0000000  -0.0000000  -0.0000000  -0.0000000  -0.0000000  -0.0000000
 NQMom=    0.0000000   0.0000000   0.0000000   0.0000000   0.0000000   0.0000000   0.0000000   0.0000000   0.0000000   0.0000000
 NMagM=    0.0000000   0.0000000   0.0000000   0.0000000   0.0000000   0.0000000   0.0000000   0.0000000   0.0000000   0.0000000
 AtZNuc=   6.0000000   6.0000000   6.0000000   6.0000000   6.0000000   6.0000000   6.0000000   6.0000000   6.0000000   6.0000000

  Atom        11          12          13          14          15          16          17          18          19          20
 IAtWgt=          12          12          12          12          12          12          12          12          12          12
 AtmWgt=  12.0000000  12.0000000  12.0000000  12.0000000  12.0000000  12.0000000  12.0000000  12.0000000  12.0000000  12.0000000
 NucSpn=           0           0           0           0           0           0           0           0           0           0
 AtZEff=  -0.0000000  -0.0000000  -0.0000000  -0.0000000  -0.0000000  -0.0000000  -0.0000000  -0.0000000  -0.0000000  -0.0000000
 NQMom=    0.0000000   0.0000000   0.0000000   0.0000000   0.0000000   0.0000000   0.0000000   0.0000000   0.0000000   0.0000000
 NMagM=    0.0000000   0.0000000   0.0000000   0.0000000   0.0000000   0.0000000   0.0000000   0.0000000   0.0000000   0.0000000
 AtZNuc=   6.0000000   6.0000000   6.0000000   6.0000000   6.0000000   6.0000000   6.0000000   6.0000000   6.0000000   6.0000000

  Atom        21          22          23          24          25          26          27          28          29          30
 IAtWgt=          12          12          12          12          12          12          12          12          12          12
 AtmWgt=  12.0000000  12.0000000  12.0000000  12.0000000  12.0000000  12.0000000  12.0000000  12.0000000  12.0000000  12.0000000
 NucSpn=           0           0           0           0           0           0           0           0           0           0
 AtZEff=  -0.0000000  -0.0000000  -0.0000000  -0.0000000  -0.0000000  -0.0000000  -0.0000000  -0.0000000  -0.0000000  -0.0000000
 NQMom=    0.0000000   0.0000000   0.0000000   0.0000000   0.0000000   0.0000000   0.0000000   0.0000000   0.0000000   0.0000000
 NMagM=    0.0000000   0.0000000   0.0000000   0.0000000   0.0000000   0.0000000   0.0000000   0.0000000   0.0000000   0.0000000
 AtZNuc=   6.0000000   6.0000000   6.0000000   6.0000000   6.0000000   6.0000000   6.0000000   6.0000000   6.0000000   6.0000000

  Atom        31          32          33          34          35          36          37          38          39          40
 IAtWgt=          12          12          12          12          12          12          12          12          12          12
 AtmWgt=  12.0000000  12.0000000  12.0000000  12.0000000  12.0000000  12.0000000  12.0000000  12.0000000  12.0000000  12.0000000
 NucSpn=           0           0           0           0           0           0           0           0           0           0
 AtZEff=  -0.0000000  -0.0000000  -0.0000000  -0.0000000  -0.0000000  -0.0000000  -0.0000000  -0.0000000  -0.0000000  -0.0000000
 NQMom=    0.0000000   0.0000000   0.0000000   0.0000000   0.0000000   0.0000000   0.0000000   0.0000000   0.0000000   0.0000000
 NMagM=    0.0000000   0.0000000   0.0000000   0.0000000   0.0000000   0.0000000   0.0000000   0.0000000   0.0000000   0.0000000
 AtZNuc=   6.0000000   6.0000000   6.0000000   6.0000000   6.0000000   6.0000000   6.0000000   6.0000000   6.0000000   6.0000000

  Atom        41          42          43          44          45          46          47          48          49          50
 IAtWgt=          12          12          12          12          12          12          12          12          12          12
 AtmWgt=  12.0000000  12.0000000  12.0000000  12.0000000  12.0000000  12.0000000  12.0000000  12.0000000  12.0000000  12.0000000
 NucSpn=           0           0           0           0           0           0           0           0           0           0
 AtZEff=  -0.0000000  -0.0000000  -0.0000000  -0.0000000  -0.0000000  -0.0000000  -0.0000000  -0.0000000  -0.0000000  -0.0000000
 NQMom=    0.0000000   0.0000000   0.0000000   0.0000000   0.0000000   0.0000000   0.0000000   0.0000000   0.0000000   0.0000000
 NMagM=    0.0000000   0.0000000   0.0000000   0.0000000   0.0000000   0.0000000   0.0000000   0.0000000   0.0000000   0.0000000
 AtZNuc=   6.0000000   6.0000000   6.0000000   6.0000000   6.0000000   6.0000000   6.0000000   6.0000000   6.0000000   6.0000000

  Atom        51          52          53          54          55          56          57          58          59          60
 IAtWgt=          12          12          12          12          12          12          12          12          12          12
 AtmWgt=  12.0000000  12.0000000  12.0000000  12.0000000  12.0000000  12.0000000  12.0000000  12.0000000  12.0000000  12.0000000
 NucSpn=           0           0           0           0           0           0           0           0           0           0
 AtZEff=  -0.0000000  -0.0000000  -0.0000000  -0.0000000  -0.0000000  -0.0000000  -0.0000000  -0.0000000  -0.0000000  -0.0000000
 NQMom=    0.0000000   0.0000000   0.0000000   0.0000000   0.0000000   0.0000000   0.0000000   0.0000000   0.0000000   0.0000000
 NMagM=    0.0000000   0.0000000   0.0000000   0.0000000   0.0000000   0.0000000   0.0000000   0.0000000   0.0000000   0.0000000
 AtZNuc=   6.0000000   6.0000000   6.0000000   6.0000000   6.0000000   6.0000000   6.0000000   6.0000000   6.0000000   6.0000000

  Atom        61          62          63          64          65          66          67          68          69          70
 IAtWgt=          12          12          12          12          12          12          12          12          12          12
 AtmWgt=  12.0000000  12.0000000  12.0000000  12.0000000  12.0000000  12.0000000  12.0000000  12.0000000  12.0000000  12.0000000
 NucSpn=           0           0           0           0           0           0           0           0           0           0
 AtZEff=  -0.0000000  -0.0000000  -0.0000000  -0.0000000  -0.0000000  -0.0000000  -0.0000000  -0.0000000  -0.0000000  -0.0000000
 NQMom=    0.0000000   0.0000000   0.0000000   0.0000000   0.0000000   0.0000000   0.0000000   0.0000000   0.0000000   0.0000000
 NMagM=    0.0000000   0.0000000   0.0000000   0.0000000   0.0000000   0.0000000   0.0000000   0.0000000   0.0000000   0.0000000
 AtZNuc=   6.0000000   6.0000000   6.0000000   6.0000000   6.0000000   6.0000000   6.0000000   6.0000000   6.0000000   6.0000000

  Atom        71          72          73          74          75          76          77          78          79          80
 IAtWgt=          12          12          12          12          12          12          12          12          12          12
 AtmWgt=  12.0000000  12.0000000  12.0000000  12.0000000  12.0000000  12.0000000  12.0000000  12.0000000  12.0000000  12.0000000
 NucSpn=           0           0           0           0           0           0           0           0           0           0
 AtZEff=  -0.0000000  -0.0000000  -0.0000000  -0.0000000  -0.0000000  -0.0000000  -0.0000000  -0.0000000  -0.0000000  -0.0000000
 NQMom=    0.0000000   0.0000000   0.0000000   0.0000000   0.0000000   0.0000000   0.0000000   0.0000000   0.0000000   0.0000000
 NMagM=    0.0000000   0.0000000   0.0000000   0.0000000   0.0000000   0.0000000   0.0000000   0.0000000   0.0000000   0.0000000
 AtZNuc=   6.0000000   6.0000000   6.0000000   6.0000000   6.0000000   6.0000000   6.0000000   6.0000000   6.0000000   6.0000000

  Atom        81          82          83          84          85          86          87          88          89          90
 IAtWgt=          12          12          12          12          35          35          35          35          35          35
 AtmWgt=  12.0000000  12.0000000  12.0000000  12.0000000  34.9688527  34.9688527  34.9688527  34.9688527  34.9688527  34.9688527
 NucSpn=           0           0           0           0           3           3           3           3           3           3
 AtZEff=  -0.0000000  -0.0000000  -0.0000000  -0.0000000  -0.0000000  -0.0000000  -0.0000000  -0.0000000  -0.0000000  -0.0000000
 NQMom=    0.0000000   0.0000000   0.0000000   0.0000000  -8.1650000  -8.1650000  -8.1650000  -8.1650000  -8.1650000  -8.1650000
 NMagM=    0.0000000   0.0000000   0.0000000   0.0000000   0.8218740   0.8218740   0.8218740   0.8218740   0.8218740   0.8218740
 AtZNuc=   6.0000000   6.0000000   6.0000000   6.0000000  17.0000000  17.0000000  17.0000000  17.0000000  17.0000000  17.0000000

  Atom        91          92          93          94          95          96          97          98          99         100
 IAtWgt=          35          35          35          35          35          35          35          35          35          35
 AtmWgt=  34.9688527  34.9688527  34.9688527  34.9688527  34.9688527  34.9688527  34.9688527  34.9688527  34.9688527  34.9688527
 NucSpn=           3           3           3           3           3           3           3           3           3           3
 AtZEff=  -0.0000000  -0.0000000  -0.0000000  -0.0000000  -0.0000000  -0.0000000  -0.0000000  -0.0000000  -0.0000000  -0.0000000
 NQMom=   -8.1650000  -8.1650000  -8.1650000  -8.1650000  -8.1650000  -8.1650000  -8.1650000  -8.1650000  -8.1650000  -8.1650000
 NMagM=    0.8218740   0.8218740   0.8218740   0.8218740   0.8218740   0.8218740   0.8218740   0.8218740   0.8218740   0.8218740
 AtZNuc=  17.0000000  17.0000000  17.0000000  17.0000000  17.0000000  17.0000000  17.0000000  17.0000000  17.0000000  17.0000000

  Atom       101         102
 IAtWgt=          35          35
 AtmWgt=  34.9688527  34.9688527
 NucSpn=           3           3
 AtZEff=  -0.0000000  -0.0000000
 NQMom=   -8.1650000  -8.1650000
 NMagM=    0.8218740   0.8218740
 AtZNuc=  17.0000000  17.0000000
 Leave Link  101 at Thu Jun 30 04:39:39 2022, MaxMem=  1342177280 cpu:               6.8 elap:               0.3
 (Enter /home/mkliu/g16/l103.exe)

 GradGradGradGradGradGradGradGradGradGradGradGradGradGradGradGradGradGrad
 Berny optimization.
 Initialization pass.
                           ----------------------------
                           !    Initial Parameters    !
                           ! (Angstroms and Degrees)  !
 --------------------------                            --------------------------
 ! Name  Definition              Value          Derivative Info.                !
 --------------------------------------------------------------------------------
 ! R1    R(1,5)                  1.5145         estimate D2E/DX2                !
 ! R2    R(1,17)                 1.4934         estimate D2E/DX2                !
 ! R3    R(1,23)                 1.5075         estimate D2E/DX2                !
 ! R4    R(1,99)                 1.8152         estimate D2E/DX2                !
 ! R5    R(2,6)                  1.4986         estimate D2E/DX2                !
 ! R6    R(2,43)                 1.5192         estimate D2E/DX2                !
 ! R7    R(2,44)                 1.5093         estimate D2E/DX2                !
 ! R8    R(2,91)                 1.8043         estimate D2E/DX2                !
 ! R9    R(3,7)                  1.506          estimate D2E/DX2                !
 ! R10   R(3,18)                 1.3907         estimate D2E/DX2                !
 ! R11   R(3,26)                 1.3987         estimate D2E/DX2                !
 ! R12   R(4,8)                  1.5009         estimate D2E/DX2                !
 ! R13   R(4,45)                 1.5051         estimate D2E/DX2                !
 ! R14   R(4,46)                 1.5091         estimate D2E/DX2                !
 ! R15   R(4,88)                 1.801          estimate D2E/DX2                !
 ! R16   R(5,9)                  1.4183         estimate D2E/DX2                !
 ! R17   R(5,29)                 1.3995         estimate D2E/DX2                !
 ! R18   R(6,10)                 1.3673         estimate D2E/DX2                !
 ! R19   R(6,15)                 1.4138         estimate D2E/DX2                !
 ! R20   R(7,12)                 1.5044         estimate D2E/DX2                !
 ! R21   R(7,30)                 1.5009         estimate D2E/DX2                !
 ! R22   R(7,96)                 1.8032         estimate D2E/DX2                !
 ! R23   R(8,11)                 1.3247         estimate D2E/DX2                !
 ! R24   R(8,16)                 1.5054         estimate D2E/DX2                !
 ! R25   R(9,13)                 1.4296         estimate D2E/DX2                !
 ! R26   R(9,35)                 1.4289         estimate D2E/DX2                !
 ! R27   R(10,49)                1.5087         estimate D2E/DX2                !
 ! R28   R(10,53)                1.416          estimate D2E/DX2                !
 ! R29   R(11,50)                1.5087         estimate D2E/DX2                !
 ! R30   R(11,54)                1.5036         estimate D2E/DX2                !
 ! R31   R(12,14)                1.3837         estimate D2E/DX2                !
 ! R32   R(12,36)                1.401          estimate D2E/DX2                !
 ! R33   R(13,15)                1.4441         estimate D2E/DX2                !
 ! R34   R(13,43)                1.3785         estimate D2E/DX2                !
 ! R35   R(14,16)                1.5048         estimate D2E/DX2                !
 ! R36   R(14,46)                1.3872         estimate D2E/DX2                !
 ! R37   R(15,17)                1.3781         estimate D2E/DX2                !
 ! R38   R(16,18)                1.5006         estimate D2E/DX2                !
 ! R39   R(16,98)                1.803          estimate D2E/DX2                !
 ! R40   R(17,19)                1.3958         estimate D2E/DX2                !
 ! R41   R(18,20)                1.4003         estimate D2E/DX2                !
 ! R42   R(19,21)                1.4961         estimate D2E/DX2                !
 ! R43   R(19,53)                1.3791         estimate D2E/DX2                !
 ! R44   R(20,22)                1.3914         estimate D2E/DX2                !
 ! R45   R(20,54)                1.4999         estimate D2E/DX2                !
 ! R46   R(21,23)                1.5069         estimate D2E/DX2                !
 ! R47   R(21,57)                1.5148         estimate D2E/DX2                !
 ! R48   R(21,101)               1.8143         estimate D2E/DX2                !
 ! R49   R(22,24)                1.4006         estimate D2E/DX2                !
 ! R50   R(22,58)                1.4501         estimate D2E/DX2                !
 ! R51   R(23,25)                1.3227         estimate D2E/DX2                !
 ! R52   R(24,26)                1.3685         estimate D2E/DX2                !
 ! R53   R(24,62)                1.4985         estimate D2E/DX2                !
 ! R54   R(25,27)                1.5002         estimate D2E/DX2                !
 ! R55   R(25,61)                1.5008         estimate D2E/DX2                !
 ! R56   R(26,28)                1.4971         estimate D2E/DX2                !
 ! R57   R(27,29)                1.5058         estimate D2E/DX2                !
 ! R58   R(27,65)                1.5066         estimate D2E/DX2                !
 ! R59   R(27,93)                1.8009         estimate D2E/DX2                !
 ! R60   R(28,30)                1.5008         estimate D2E/DX2                !
 ! R61   R(28,66)                1.5176         estimate D2E/DX2                !
 ! R62   R(28,85)                1.8008         estimate D2E/DX2                !
 ! R63   R(29,31)                1.3848         estimate D2E/DX2                !
 ! R64   R(30,32)                1.3232         estimate D2E/DX2                !
 ! R65   R(31,33)                1.3985         estimate D2E/DX2                !
 ! R66   R(31,69)                1.5203         estimate D2E/DX2                !
 ! R67   R(32,34)                1.5045         estimate D2E/DX2                !
 ! R68   R(32,70)                1.5032         estimate D2E/DX2                !
 ! R69   R(33,35)                1.4079         estimate D2E/DX2                !
 ! R70   R(33,73)                1.4354         estimate D2E/DX2                !
 ! R71   R(34,36)                1.5178         estimate D2E/DX2                !
 ! R72   R(34,74)                1.4947         estimate D2E/DX2                !
 ! R73   R(34,95)                1.8039         estimate D2E/DX2                !
 ! R74   R(35,37)                1.4436         estimate D2E/DX2                !
 ! R75   R(36,38)                1.4033         estimate D2E/DX2                !
 ! R76   R(37,39)                1.4277         estimate D2E/DX2                !
 ! R77   R(37,77)                1.4153         estimate D2E/DX2                !
 ! R78   R(38,42)                1.4033         estimate D2E/DX2                !
 ! R79   R(38,78)                1.5195         estimate D2E/DX2                !
 ! R80   R(39,43)                1.4124         estimate D2E/DX2                !
 ! R81   R(39,79)                1.4049         estimate D2E/DX2                !
 ! R82   R(40,41)                1.3967         estimate D2E/DX2                !
 ! R83   R(40,44)                1.3888         estimate D2E/DX2                !
 ! R84   R(40,79)                1.4508         estimate D2E/DX2                !
 ! R85   R(41,45)                1.3805         estimate D2E/DX2                !
 ! R86   R(41,80)                1.5132         estimate D2E/DX2                !
 ! R87   R(42,46)                1.3835         estimate D2E/DX2                !
 ! R88   R(42,80)                1.5048         estimate D2E/DX2                !
 ! R89   R(44,47)                1.4012         estimate D2E/DX2                !
 ! R90   R(45,48)                1.404          estimate D2E/DX2                !
 ! R91   R(47,48)                1.409          estimate D2E/DX2                !
 ! R92   R(47,49)                1.5204         estimate D2E/DX2                !
 ! R93   R(48,50)                1.515          estimate D2E/DX2                !
 ! R94   R(49,51)                1.5044         estimate D2E/DX2                !
 ! R95   R(49,90)                1.7987         estimate D2E/DX2                !
 ! R96   R(50,52)                1.4947         estimate D2E/DX2                !
 ! R97   R(50,89)                1.8032         estimate D2E/DX2                !
 ! R98   R(51,52)                1.3804         estimate D2E/DX2                !
 ! R99   R(51,55)                1.3931         estimate D2E/DX2                !
 ! R100  R(52,56)                1.3823         estimate D2E/DX2                !
 ! R101  R(53,55)                1.4409         estimate D2E/DX2                !
 ! R102  R(54,56)                1.5066         estimate D2E/DX2                !
 ! R103  R(54,102)               1.8161         estimate D2E/DX2                !
 ! R104  R(55,83)                1.417          estimate D2E/DX2                !
 ! R105  R(56,84)                1.4102         estimate D2E/DX2                !
 ! R106  R(57,59)                1.3906         estimate D2E/DX2                !
 ! R107  R(57,83)                1.4287         estimate D2E/DX2                !
 ! R108  R(58,60)                1.386          estimate D2E/DX2                !
 ! R109  R(58,84)                1.4052         estimate D2E/DX2                !
 ! R110  R(59,60)                1.3992         estimate D2E/DX2                !
 ! R111  R(59,61)                1.5066         estimate D2E/DX2                !
 ! R112  R(60,62)                1.5166         estimate D2E/DX2                !
 ! R113  R(61,63)                1.5077         estimate D2E/DX2                !
 ! R114  R(61,100)               1.8028         estimate D2E/DX2                !
 ! R115  R(62,64)                1.5027         estimate D2E/DX2                !
 ! R116  R(62,97)                1.7982         estimate D2E/DX2                !
 ! R117  R(63,64)                1.3833         estimate D2E/DX2                !
 ! R118  R(63,65)                1.3868         estimate D2E/DX2                !
 ! R119  R(64,66)                1.403          estimate D2E/DX2                !
 ! R120  R(65,67)                1.384          estimate D2E/DX2                !
 ! R121  R(66,68)                1.4012         estimate D2E/DX2                !
 ! R122  R(67,68)                1.4019         estimate D2E/DX2                !
 ! R123  R(67,69)                1.5037         estimate D2E/DX2                !
 ! R124  R(68,70)                1.5179         estimate D2E/DX2                !
 ! R125  R(69,71)                1.5003         estimate D2E/DX2                !
 ! R126  R(69,92)                1.7983         estimate D2E/DX2                !
 ! R127  R(70,72)                1.4981         estimate D2E/DX2                !
 ! R128  R(70,86)                1.8045         estimate D2E/DX2                !
 ! R129  R(71,72)                1.37           estimate D2E/DX2                !
 ! R130  R(71,73)                1.4093         estimate D2E/DX2                !
 ! R131  R(72,74)                1.4147         estimate D2E/DX2                !
 ! R132  R(73,75)                1.3809         estimate D2E/DX2                !
 ! R133  R(74,76)                1.3689         estimate D2E/DX2                !
 ! R134  R(75,76)                1.4112         estimate D2E/DX2                !
 ! R135  R(75,77)                1.4324         estimate D2E/DX2                !
 ! R136  R(76,78)                1.5029         estimate D2E/DX2                !
 ! R137  R(77,81)                1.4097         estimate D2E/DX2                !
 ! R138  R(78,81)                1.5118         estimate D2E/DX2                !
 ! R139  R(78,94)                1.7986         estimate D2E/DX2                !
 ! R140  R(79,82)                1.4004         estimate D2E/DX2                !
 ! R141  R(80,82)                1.5001         estimate D2E/DX2                !
 ! R142  R(80,87)                1.7973         estimate D2E/DX2                !
 ! R143  R(81,82)                1.37           estimate D2E/DX2                !
 ! R144  R(83,84)                1.4295         estimate D2E/DX2                !
 ! A1    A(5,1,17)             112.7938         estimate D2E/DX2                !
 ! A2    A(5,1,23)             111.5334         estimate D2E/DX2                !
 ! A3    A(5,1,99)             108.2734         estimate D2E/DX2                !
 ! A4    A(17,1,23)            100.8148         estimate D2E/DX2                !
 ! A5    A(17,1,99)            111.955          estimate D2E/DX2                !
 ! A6    A(23,1,99)            111.4038         estimate D2E/DX2                !
 ! A7    A(6,2,43)             101.4372         estimate D2E/DX2                !
 ! A8    A(6,2,44)             110.5369         estimate D2E/DX2                !
 ! A9    A(6,2,91)             113.095          estimate D2E/DX2                !
 ! A10   A(43,2,44)            109.8178         estimate D2E/DX2                !
 ! A11   A(43,2,91)            112.4672         estimate D2E/DX2                !
 ! A12   A(44,2,91)            109.2804         estimate D2E/DX2                !
 ! A13   A(7,3,18)             124.8093         estimate D2E/DX2                !
 ! A14   A(7,3,26)             110.0655         estimate D2E/DX2                !
 ! A15   A(18,3,26)            121.4189         estimate D2E/DX2                !
 ! A16   A(8,4,45)             112.0141         estimate D2E/DX2                !
 ! A17   A(8,4,46)             100.3472         estimate D2E/DX2                !
 ! A18   A(8,4,88)             112.7047         estimate D2E/DX2                !
 ! A19   A(45,4,46)            108.5239         estimate D2E/DX2                !
 ! A20   A(45,4,88)            110.6852         estimate D2E/DX2                !
 ! A21   A(46,4,88)            112.117          estimate D2E/DX2                !
 ! A22   A(1,5,9)              120.9254         estimate D2E/DX2                !
 ! A23   A(1,5,29)             117.7152         estimate D2E/DX2                !
 ! A24   A(9,5,29)             120.138          estimate D2E/DX2                !
 ! A25   A(2,6,10)             122.2264         estimate D2E/DX2                !
 ! A26   A(2,6,15)             109.7388         estimate D2E/DX2                !
 ! A27   A(10,6,15)            119.4077         estimate D2E/DX2                !
 ! A28   A(3,7,12)             109.4846         estimate D2E/DX2                !
 ! A29   A(3,7,30)             101.3705         estimate D2E/DX2                !
 ! A30   A(3,7,96)             112.3836         estimate D2E/DX2                !
 ! A31   A(12,7,30)            110.3682         estimate D2E/DX2                !
 ! A32   A(12,7,96)            110.2737         estimate D2E/DX2                !
 ! A33   A(30,7,96)            112.6429         estimate D2E/DX2                !
 ! A34   A(4,8,11)             121.7186         estimate D2E/DX2                !
 ! A35   A(4,8,16)             111.1416         estimate D2E/DX2                !
 ! A36   A(11,8,16)            123.6199         estimate D2E/DX2                !
 ! A37   A(5,9,13)             119.2167         estimate D2E/DX2                !
 ! A38   A(5,9,35)             120.6985         estimate D2E/DX2                !
 ! A39   A(13,9,35)            116.4239         estimate D2E/DX2                !
 ! A40   A(6,10,49)            123.3964         estimate D2E/DX2                !
 ! A41   A(6,10,53)            118.5372         estimate D2E/DX2                !
 ! A42   A(49,10,53)           110.138          estimate D2E/DX2                !
 ! A43   A(8,11,50)            123.1242         estimate D2E/DX2                !
 ! A44   A(8,11,54)            122.5191         estimate D2E/DX2                !
 ! A45   A(50,11,54)           111.4543         estimate D2E/DX2                !
 ! A46   A(7,12,14)            116.8281         estimate D2E/DX2                !
 ! A47   A(7,12,36)            122.724          estimate D2E/DX2                !
 ! A48   A(14,12,36)           119.2231         estimate D2E/DX2                !
 ! A49   A(9,13,15)            121.0043         estimate D2E/DX2                !
 ! A50   A(9,13,43)            122.2572         estimate D2E/DX2                !
 ! A51   A(15,13,43)           108.7082         estimate D2E/DX2                !
 ! A52   A(12,14,16)           125.6919         estimate D2E/DX2                !
 ! A53   A(12,14,46)           120.7845         estimate D2E/DX2                !
 ! A54   A(16,14,46)           111.1899         estimate D2E/DX2                !
 ! A55   A(6,15,13)            108.4577         estimate D2E/DX2                !
 ! A56   A(6,15,17)            121.6016         estimate D2E/DX2                !
 ! A57   A(13,15,17)           119.9353         estimate D2E/DX2                !
 ! A58   A(8,16,14)            100.4106         estimate D2E/DX2                !
 ! A59   A(8,16,18)            112.3654         estimate D2E/DX2                !
 ! A60   A(8,16,98)            112.073          estimate D2E/DX2                !
 ! A61   A(14,16,18)           108.7828         estimate D2E/DX2                !
 ! A62   A(14,16,98)           111.9461         estimate D2E/DX2                !
 ! A63   A(18,16,98)           110.8293         estimate D2E/DX2                !
 ! A64   A(1,17,15)            122.0766         estimate D2E/DX2                !
 ! A65   A(1,17,19)            112.0171         estimate D2E/DX2                !
 ! A66   A(15,17,19)           119.0161         estimate D2E/DX2                !
 ! A67   A(3,18,16)            117.3745         estimate D2E/DX2                !
 ! A68   A(3,18,20)            119.4004         estimate D2E/DX2                !
 ! A69   A(16,18,20)           120.6604         estimate D2E/DX2                !
 ! A70   A(17,19,21)           111.6623         estimate D2E/DX2                !
 ! A71   A(17,19,53)           119.2422         estimate D2E/DX2                !
 ! A72   A(21,19,53)           122.1247         estimate D2E/DX2                !
 ! A73   A(18,20,22)           118.3429         estimate D2E/DX2                !
 ! A74   A(18,20,54)           122.2395         estimate D2E/DX2                !
 ! A75   A(22,20,54)           117.2033         estimate D2E/DX2                !
 ! A76   A(19,21,23)           100.9684         estimate D2E/DX2                !
 ! A77   A(19,21,57)           112.5605         estimate D2E/DX2                !
 ! A78   A(19,21,101)          112.1128         estimate D2E/DX2                !
 ! A79   A(23,21,57)           111.3671         estimate D2E/DX2                !
 ! A80   A(23,21,101)          111.253          estimate D2E/DX2                !
 ! A81   A(57,21,101)          108.4902         estimate D2E/DX2                !
 ! A82   A(20,22,24)           121.9318         estimate D2E/DX2                !
 ! A83   A(20,22,58)           122.4587         estimate D2E/DX2                !
 ! A84   A(24,22,58)           107.5027         estimate D2E/DX2                !
 ! A85   A(1,23,21)            112.6143         estimate D2E/DX2                !
 ! A86   A(1,23,25)            122.5112         estimate D2E/DX2                !
 ! A87   A(21,23,25)           122.4886         estimate D2E/DX2                !
 ! A88   A(22,24,26)           119.3298         estimate D2E/DX2                !
 ! A89   A(22,24,62)           111.0178         estimate D2E/DX2                !
 ! A90   A(26,24,62)           122.6794         estimate D2E/DX2                !
 ! A91   A(23,25,27)           122.0016         estimate D2E/DX2                !
 ! A92   A(23,25,61)           122.2108         estimate D2E/DX2                !
 ! A93   A(27,25,61)           111.9525         estimate D2E/DX2                !
 ! A94   A(3,26,24)            119.5186         estimate D2E/DX2                !
 ! A95   A(3,26,28)            112.7134         estimate D2E/DX2                !
 ! A96   A(24,26,28)           122.4067         estimate D2E/DX2                !
 ! A97   A(25,27,29)           112.1655         estimate D2E/DX2                !
 ! A98   A(25,27,65)           100.3194         estimate D2E/DX2                !
 ! A99   A(25,27,93)           112.323          estimate D2E/DX2                !
 ! A100  A(29,27,65)           108.0558         estimate D2E/DX2                !
 ! A101  A(29,27,93)           110.9717         estimate D2E/DX2                !
 ! A102  A(65,27,93)           112.5243         estimate D2E/DX2                !
 ! A103  A(26,28,30)           100.6693         estimate D2E/DX2                !
 ! A104  A(26,28,66)           109.3414         estimate D2E/DX2                !
 ! A105  A(26,28,85)           113.5452         estimate D2E/DX2                !
 ! A106  A(30,28,66)           110.881          estimate D2E/DX2                !
 ! A107  A(30,28,85)           112.907          estimate D2E/DX2                !
 ! A108  A(66,28,85)           109.2498         estimate D2E/DX2                !
 ! A109  A(5,29,27)            122.6537         estimate D2E/DX2                !
 ! A110  A(5,29,31)            119.2719         estimate D2E/DX2                !
 ! A111  A(27,29,31)           116.0974         estimate D2E/DX2                !
 ! A112  A(7,30,28)            112.5314         estimate D2E/DX2                !
 ! A113  A(7,30,32)            121.9891         estimate D2E/DX2                !
 ! A114  A(28,30,32)           122.055          estimate D2E/DX2                !
 ! A115  A(29,31,33)           120.6865         estimate D2E/DX2                !
 ! A116  A(29,31,69)           124.7743         estimate D2E/DX2                !
 ! A117  A(33,31,69)           110.114          estimate D2E/DX2                !
 ! A118  A(30,32,34)           122.6225         estimate D2E/DX2                !
 ! A119  A(30,32,70)           121.7225         estimate D2E/DX2                !
 ! A120  A(34,32,70)           112.9433         estimate D2E/DX2                !
 ! A121  A(31,33,35)           121.8957         estimate D2E/DX2                !
 ! A122  A(31,33,73)           108.3677         estimate D2E/DX2                !
 ! A123  A(35,33,73)           122.2605         estimate D2E/DX2                !
 ! A124  A(32,34,36)           110.2028         estimate D2E/DX2                !
 ! A125  A(32,34,74)           101.281          estimate D2E/DX2                !
 ! A126  A(32,34,95)           112.3254         estimate D2E/DX2                !
 ! A127  A(36,34,74)           110.7034         estimate D2E/DX2                !
 ! A128  A(36,34,95)           108.8066         estimate D2E/DX2                !
 ! A129  A(74,34,95)           113.3683         estimate D2E/DX2                !
 ! A130  A(9,35,33)            116.4482         estimate D2E/DX2                !
 ! A131  A(9,35,37)            121.069          estimate D2E/DX2                !
 ! A132  A(33,35,37)           118.3323         estimate D2E/DX2                !
 ! A133  A(12,36,34)           117.9371         estimate D2E/DX2                !
 ! A134  A(12,36,38)           120.0575         estimate D2E/DX2                !
 ! A135  A(34,36,38)           121.3908         estimate D2E/DX2                !
 ! A136  A(35,37,39)           119.0027         estimate D2E/DX2                !
 ! A137  A(35,37,77)           118.748          estimate D2E/DX2                !
 ! A138  A(39,37,77)           116.5455         estimate D2E/DX2                !
 ! A139  A(36,38,42)           119.8191         estimate D2E/DX2                !
 ! A140  A(36,38,78)           120.7895         estimate D2E/DX2                !
 ! A141  A(42,38,78)           118.8584         estimate D2E/DX2                !
 ! A142  A(37,39,43)           118.8409         estimate D2E/DX2                !
 ! A143  A(37,39,79)           118.8732         estimate D2E/DX2                !
 ! A144  A(43,39,79)           116.6655         estimate D2E/DX2                !
 ! A145  A(41,40,44)           121.6393         estimate D2E/DX2                !
 ! A146  A(41,40,79)           108.6649         estimate D2E/DX2                !
 ! A147  A(44,40,79)           123.8139         estimate D2E/DX2                !
 ! A148  A(40,41,45)           120.1121         estimate D2E/DX2                !
 ! A149  A(40,41,80)           110.2227         estimate D2E/DX2                !
 ! A150  A(45,41,80)           125.7269         estimate D2E/DX2                !
 ! A151  A(38,42,46)           119.2852         estimate D2E/DX2                !
 ! A152  A(38,42,80)           123.5888         estimate D2E/DX2                !
 ! A153  A(46,42,80)           115.9816         estimate D2E/DX2                !
 ! A154  A(2,43,13)            110.8107         estimate D2E/DX2                !
 ! A155  A(2,43,39)            123.3586         estimate D2E/DX2                !
 ! A156  A(13,43,39)           121.112          estimate D2E/DX2                !
 ! A157  A(2,44,40)            115.5172         estimate D2E/DX2                !
 ! A158  A(2,44,47)            124.6034         estimate D2E/DX2                !
 ! A159  A(40,44,47)           118.6444         estimate D2E/DX2                !
 ! A160  A(4,45,41)            115.9184         estimate D2E/DX2                !
 ! A161  A(4,45,48)            123.1912         estimate D2E/DX2                !
 ! A162  A(41,45,48)           119.1391         estimate D2E/DX2                !
 ! A163  A(4,46,14)            111.3149         estimate D2E/DX2                !
 ! A164  A(4,46,42)            125.6816         estimate D2E/DX2                !
 ! A165  A(14,46,42)           120.7569         estimate D2E/DX2                !
 ! A166  A(44,47,48)           119.7395         estimate D2E/DX2                !
 ! A167  A(44,47,49)           118.8823         estimate D2E/DX2                !
 ! A168  A(48,47,49)           120.6918         estimate D2E/DX2                !
 ! A169  A(45,48,47)           120.595          estimate D2E/DX2                !
 ! A170  A(45,48,50)           117.7597         estimate D2E/DX2                !
 ! A171  A(47,48,50)           120.8497         estimate D2E/DX2                !
 ! A172  A(10,49,47)           110.851          estimate D2E/DX2                !
 ! A173  A(10,49,51)           100.9057         estimate D2E/DX2                !
 ! A174  A(10,49,90)           113.2471         estimate D2E/DX2                !
 ! A175  A(47,49,51)           108.8001         estimate D2E/DX2                !
 ! A176  A(47,49,90)           108.8783         estimate D2E/DX2                !
 ! A177  A(51,49,90)           113.928          estimate D2E/DX2                !
 ! A178  A(11,50,48)           111.6857         estimate D2E/DX2                !
 ! A179  A(11,50,52)           100.6013         estimate D2E/DX2                !
 ! A180  A(11,50,89)           112.0503         estimate D2E/DX2                !
 ! A181  A(48,50,52)           109.209          estimate D2E/DX2                !
 ! A182  A(48,50,89)           109.3998         estimate D2E/DX2                !
 ! A183  A(52,50,89)           113.6671         estimate D2E/DX2                !
 ! A184  A(49,51,52)           121.5226         estimate D2E/DX2                !
 ! A185  A(49,51,55)           111.8594         estimate D2E/DX2                !
 ! A186  A(52,51,55)           120.1356         estimate D2E/DX2                !
 ! A187  A(50,52,51)           122.1485         estimate D2E/DX2                !
 ! A188  A(50,52,56)           112.7178         estimate D2E/DX2                !
 ! A189  A(51,52,56)           119.9761         estimate D2E/DX2                !
 ! A190  A(10,53,19)           121.8586         estimate D2E/DX2                !
 ! A191  A(10,53,55)           108.4534         estimate D2E/DX2                !
 ! A192  A(19,53,55)           119.796          estimate D2E/DX2                !
 ! A193  A(11,54,20)           111.8417         estimate D2E/DX2                !
 ! A194  A(11,54,56)           100.7434         estimate D2E/DX2                !
 ! A195  A(11,54,102)          111.646          estimate D2E/DX2                !
 ! A196  A(20,54,56)           112.3591         estimate D2E/DX2                !
 ! A197  A(20,54,102)          109.108          estimate D2E/DX2                !
 ! A198  A(56,54,102)          110.9839         estimate D2E/DX2                !
 ! A199  A(51,55,53)           107.9854         estimate D2E/DX2                !
 ! A200  A(51,55,83)           121.9694         estimate D2E/DX2                !
 ! A201  A(53,55,83)           120.9055         estimate D2E/DX2                !
 ! A202  A(52,56,54)           110.2422         estimate D2E/DX2                !
 ! A203  A(52,56,84)           120.5664         estimate D2E/DX2                !
 ! A204  A(54,56,84)           124.5407         estimate D2E/DX2                !
 ! A205  A(21,57,59)           118.6582         estimate D2E/DX2                !
 ! A206  A(21,57,83)           119.8326         estimate D2E/DX2                !
 ! A207  A(59,57,83)           120.2215         estimate D2E/DX2                !
 ! A208  A(22,58,60)           109.1784         estimate D2E/DX2                !
 ! A209  A(22,58,84)           120.7613         estimate D2E/DX2                !
 ! A210  A(60,58,84)           121.6428         estimate D2E/DX2                !
 ! A211  A(57,59,60)           119.6463         estimate D2E/DX2                !
 ! A212  A(57,59,61)           122.567          estimate D2E/DX2                !
 ! A213  A(60,59,61)           115.727          estimate D2E/DX2                !
 ! A214  A(58,60,59)           120.7204         estimate D2E/DX2                !
 ! A215  A(58,60,62)           109.8811         estimate D2E/DX2                !
 ! A216  A(59,60,62)           124.986          estimate D2E/DX2                !
 ! A217  A(25,61,59)           112.1213         estimate D2E/DX2                !
 ! A218  A(25,61,63)            99.9798         estimate D2E/DX2                !
 ! A219  A(25,61,100)          112.7235         estimate D2E/DX2                !
 ! A220  A(59,61,63)           109.3195         estimate D2E/DX2                !
 ! A221  A(59,61,100)          110.4439         estimate D2E/DX2                !
 ! A222  A(63,61,100)          111.8344         estimate D2E/DX2                !
 ! A223  A(24,62,60)           101.0742         estimate D2E/DX2                !
 ! A224  A(24,62,64)           109.2441         estimate D2E/DX2                !
 ! A225  A(24,62,97)           113.6848         estimate D2E/DX2                !
 ! A226  A(60,62,64)           109.755          estimate D2E/DX2                !
 ! A227  A(60,62,97)           112.415          estimate D2E/DX2                !
 ! A228  A(64,62,97)           110.2933         estimate D2E/DX2                !
 ! A229  A(61,63,64)           125.761          estimate D2E/DX2                !
 ! A230  A(61,63,65)           111.517          estimate D2E/DX2                !
 ! A231  A(64,63,65)           120.571          estimate D2E/DX2                !
 ! A232  A(62,64,63)           116.0514         estimate D2E/DX2                !
 ! A233  A(62,64,66)           123.5748         estimate D2E/DX2                !
 ! A234  A(63,64,66)           119.2508         estimate D2E/DX2                !
 ! A235  A(27,65,63)           111.2959         estimate D2E/DX2                !
 ! A236  A(27,65,67)           125.3579         estimate D2E/DX2                !
 ! A237  A(63,65,67)           120.9761         estimate D2E/DX2                !
 ! A238  A(28,66,64)           119.366          estimate D2E/DX2                !
 ! A239  A(28,66,68)           119.8214         estimate D2E/DX2                !
 ! A240  A(64,66,68)           120.1296         estimate D2E/DX2                !
 ! A241  A(65,67,68)           119.2138         estimate D2E/DX2                !
 ! A242  A(65,67,69)           115.9582         estimate D2E/DX2                !
 ! A243  A(68,67,69)           123.6446         estimate D2E/DX2                !
 ! A244  A(66,68,67)           119.8247         estimate D2E/DX2                !
 ! A245  A(66,68,70)           119.7936         estimate D2E/DX2                !
 ! A246  A(67,68,70)           119.7715         estimate D2E/DX2                !
 ! A247  A(31,69,67)           108.1192         estimate D2E/DX2                !
 ! A248  A(31,69,71)           101.739          estimate D2E/DX2                !
 ! A249  A(31,69,92)           112.9975         estimate D2E/DX2                !
 ! A250  A(67,69,71)           110.0456         estimate D2E/DX2                !
 ! A251  A(67,69,92)           110.3394         estimate D2E/DX2                !
 ! A252  A(71,69,92)           113.2144         estimate D2E/DX2                !
 ! A253  A(32,70,68)           110.5233         estimate D2E/DX2                !
 ! A254  A(32,70,72)           101.2938         estimate D2E/DX2                !
 ! A255  A(32,70,86)           112.3456         estimate D2E/DX2                !
 ! A256  A(68,70,72)           110.6765         estimate D2E/DX2                !
 ! A257  A(68,70,86)           108.693          estimate D2E/DX2                !
 ! A258  A(72,70,86)           113.1805         estimate D2E/DX2                !
 ! A259  A(69,71,72)           123.3491         estimate D2E/DX2                !
 ! A260  A(69,71,73)           109.4025         estimate D2E/DX2                !
 ! A261  A(72,71,73)           118.7733         estimate D2E/DX2                !
 ! A262  A(70,72,71)           122.1411         estimate D2E/DX2                !
 ! A263  A(70,72,74)           111.2745         estimate D2E/DX2                !
 ! A264  A(71,72,74)           120.4219         estimate D2E/DX2                !
 ! A265  A(33,73,71)           109.2565         estimate D2E/DX2                !
 ! A266  A(33,73,75)           119.2134         estimate D2E/DX2                !
 ! A267  A(71,73,75)           120.6407         estimate D2E/DX2                !
 ! A268  A(34,74,72)           111.5474         estimate D2E/DX2                !
 ! A269  A(34,74,76)           121.3198         estimate D2E/DX2                !
 ! A270  A(72,74,76)           120.9415         estimate D2E/DX2                !
 ! A271  A(73,75,76)           120.3442         estimate D2E/DX2                !
 ! A272  A(73,75,77)           119.7435         estimate D2E/DX2                !
 ! A273  A(76,75,77)           109.884          estimate D2E/DX2                !
 ! A274  A(74,76,75)           118.6621         estimate D2E/DX2                !
 ! A275  A(74,76,78)           123.3314         estimate D2E/DX2                !
 ! A276  A(75,76,78)           109.722          estimate D2E/DX2                !
 ! A277  A(37,77,75)           121.6236         estimate D2E/DX2                !
 ! A278  A(37,77,81)           122.8604         estimate D2E/DX2                !
 ! A279  A(75,77,81)           107.2528         estimate D2E/DX2                !
 ! A280  A(38,78,76)           109.857          estimate D2E/DX2                !
 ! A281  A(38,78,81)           109.288          estimate D2E/DX2                !
 ! A282  A(38,78,94)           108.7574         estimate D2E/DX2                !
 ! A283  A(76,78,81)           101.4642         estimate D2E/DX2                !
 ! A284  A(76,78,94)           113.7188         estimate D2E/DX2                !
 ! A285  A(81,78,94)           113.5339         estimate D2E/DX2                !
 ! A286  A(39,79,40)           118.6547         estimate D2E/DX2                !
 ! A287  A(39,79,82)           122.4237         estimate D2E/DX2                !
 ! A288  A(40,79,82)           107.7312         estimate D2E/DX2                !
 ! A289  A(41,80,42)           108.6024         estimate D2E/DX2                !
 ! A290  A(41,80,82)           100.9873         estimate D2E/DX2                !
 ! A291  A(41,80,87)           112.7286         estimate D2E/DX2                !
 ! A292  A(42,80,82)           109.892          estimate D2E/DX2                !
 ! A293  A(42,80,87)           110.4044         estimate D2E/DX2                !
 ! A294  A(82,80,87)           113.7909         estimate D2E/DX2                !
 ! A295  A(77,81,78)           111.2643         estimate D2E/DX2                !
 ! A296  A(77,81,82)           119.1783         estimate D2E/DX2                !
 ! A297  A(78,81,82)           122.2937         estimate D2E/DX2                !
 ! A298  A(79,82,80)           111.1883         estimate D2E/DX2                !
 ! A299  A(79,82,81)           119.4211         estimate D2E/DX2                !
 ! A300  A(80,82,81)           122.0502         estimate D2E/DX2                !
 ! A301  A(55,83,57)           119.8789         estimate D2E/DX2                !
 ! A302  A(55,83,84)           116.084          estimate D2E/DX2                !
 ! A303  A(57,83,84)           119.7371         estimate D2E/DX2                !
 ! A304  A(56,84,58)           116.7684         estimate D2E/DX2                !
 ! A305  A(56,84,83)           120.4874         estimate D2E/DX2                !
 ! A306  A(58,84,83)           117.883          estimate D2E/DX2                !
 ! D1    D(17,1,5,9)            21.7745         estimate D2E/DX2                !
 ! D2    D(17,1,5,29)         -145.6148         estimate D2E/DX2                !
 ! D3    D(23,1,5,9)           134.3945         estimate D2E/DX2                !
 ! D4    D(23,1,5,29)          -32.9947         estimate D2E/DX2                !
 ! D5    D(99,1,5,9)          -102.6868         estimate D2E/DX2                !
 ! D6    D(99,1,5,29)           89.924          estimate D2E/DX2                !
 ! D7    D(5,1,17,15)          -22.7653         estimate D2E/DX2                !
 ! D8    D(5,1,17,19)          127.7991         estimate D2E/DX2                !
 ! D9    D(23,1,17,15)        -141.8178         estimate D2E/DX2                !
 ! D10   D(23,1,17,19)           8.7466         estimate D2E/DX2                !
 ! D11   D(99,1,17,15)          99.6538         estimate D2E/DX2                !
 ! D12   D(99,1,17,19)        -109.7817         estimate D2E/DX2                !
 ! D13   D(5,1,23,21)         -133.8595         estimate D2E/DX2                !
 ! D14   D(5,1,23,25)           28.9814         estimate D2E/DX2                !
 ! D15   D(17,1,23,21)         -13.8998         estimate D2E/DX2                !
 ! D16   D(17,1,23,25)         148.9412         estimate D2E/DX2                !
 ! D17   D(99,1,23,21)         105.0284         estimate D2E/DX2                !
 ! D18   D(99,1,23,25)         -92.1307         estimate D2E/DX2                !
 ! D19   D(43,2,6,10)         -138.2556         estimate D2E/DX2                !
 ! D20   D(43,2,6,15)            9.1882         estimate D2E/DX2                !
 ! D21   D(44,2,6,10)          -21.8218         estimate D2E/DX2                !
 ! D22   D(44,2,6,15)          125.622          estimate D2E/DX2                !
 ! D23   D(91,2,6,10)          101.0712         estimate D2E/DX2                !
 ! D24   D(91,2,6,15)         -111.485          estimate D2E/DX2                !
 ! D25   D(6,2,43,13)           -6.7891         estimate D2E/DX2                !
 ! D26   D(6,2,43,39)          148.9991         estimate D2E/DX2                !
 ! D27   D(44,2,43,13)        -123.7484         estimate D2E/DX2                !
 ! D28   D(44,2,43,39)          32.0398         estimate D2E/DX2                !
 ! D29   D(91,2,43,13)         114.3248         estimate D2E/DX2                !
 ! D30   D(91,2,43,39)         -89.887          estimate D2E/DX2                !
 ! D31   D(6,2,44,40)         -147.8703         estimate D2E/DX2                !
 ! D32   D(6,2,44,47)           19.2103         estimate D2E/DX2                !
 ! D33   D(43,2,44,40)         -36.7649         estimate D2E/DX2                !
 ! D34   D(43,2,44,47)         130.3156         estimate D2E/DX2                !
 ! D35   D(91,2,44,40)          87.0431         estimate D2E/DX2                !
 ! D36   D(91,2,44,47)        -105.8763         estimate D2E/DX2                !
 ! D37   D(18,3,7,12)           29.1652         estimate D2E/DX2                !
 ! D38   D(18,3,7,30)          145.764          estimate D2E/DX2                !
 ! D39   D(18,3,7,96)          -93.7378         estimate D2E/DX2                !
 ! D40   D(26,3,7,12)         -129.2518         estimate D2E/DX2                !
 ! D41   D(26,3,7,30)          -12.6531         estimate D2E/DX2                !
 ! D42   D(26,3,7,96)          107.8451         estimate D2E/DX2                !
 ! D43   D(7,3,18,16)            5.3798         estimate D2E/DX2                !
 ! D44   D(7,3,18,20)         -156.5929         estimate D2E/DX2                !
 ! D45   D(26,3,18,16)         161.4959         estimate D2E/DX2                !
 ! D46   D(26,3,18,20)          -0.4768         estimate D2E/DX2                !
 ! D47   D(7,3,26,24)          159.3737         estimate D2E/DX2                !
 ! D48   D(7,3,26,28)            4.5977         estimate D2E/DX2                !
 ! D49   D(18,3,26,24)           0.1007         estimate D2E/DX2                !
 ! D50   D(18,3,26,28)        -154.6754         estimate D2E/DX2                !
 ! D51   D(45,4,8,11)           21.5211         estimate D2E/DX2                !
 ! D52   D(45,4,8,16)         -138.0125         estimate D2E/DX2                !
 ! D53   D(46,4,8,11)          136.4928         estimate D2E/DX2                !
 ! D54   D(46,4,8,16)          -23.0408         estimate D2E/DX2                !
 ! D55   D(88,4,8,11)         -104.0833         estimate D2E/DX2                !
 ! D56   D(88,4,8,16)           96.3831         estimate D2E/DX2                !
 ! D57   D(8,4,45,41)          145.6597         estimate D2E/DX2                !
 ! D58   D(8,4,45,48)          -19.1008         estimate D2E/DX2                !
 ! D59   D(46,4,45,41)          35.7955         estimate D2E/DX2                !
 ! D60   D(46,4,45,48)        -128.9651         estimate D2E/DX2                !
 ! D61   D(88,4,45,41)         -87.6362         estimate D2E/DX2                !
 ! D62   D(88,4,45,48)         107.6033         estimate D2E/DX2                !
 ! D63   D(8,4,46,14)           13.4135         estimate D2E/DX2                !
 ! D64   D(8,4,46,42)         -149.5272         estimate D2E/DX2                !
 ! D65   D(45,4,46,14)         130.996          estimate D2E/DX2                !
 ! D66   D(45,4,46,42)         -31.9447         estimate D2E/DX2                !
 ! D67   D(88,4,46,14)        -106.4364         estimate D2E/DX2                !
 ! D68   D(88,4,46,42)          90.6229         estimate D2E/DX2                !
 ! D69   D(1,5,9,13)           -10.7715         estimate D2E/DX2                !
 ! D70   D(1,5,9,35)          -168.4426         estimate D2E/DX2                !
 ! D71   D(29,5,9,13)          156.3145         estimate D2E/DX2                !
 ! D72   D(29,5,9,35)           -1.3567         estimate D2E/DX2                !
 ! D73   D(1,5,29,27)           11.026          estimate D2E/DX2                !
 ! D74   D(1,5,29,31)          174.3961         estimate D2E/DX2                !
 ! D75   D(9,5,29,27)         -156.4667         estimate D2E/DX2                !
 ! D76   D(9,5,29,31)            6.9034         estimate D2E/DX2                !
 ! D77   D(2,6,10,49)           -0.6501         estimate D2E/DX2                !
 ! D78   D(2,6,10,53)          145.2356         estimate D2E/DX2                !
 ! D79   D(15,6,10,49)        -145.0993         estimate D2E/DX2                !
 ! D80   D(15,6,10,53)           0.7864         estimate D2E/DX2                !
 ! D81   D(2,6,15,13)           -8.5883         estimate D2E/DX2                !
 ! D82   D(2,6,15,17)         -153.9778         estimate D2E/DX2                !
 ! D83   D(10,6,15,13)         139.9077         estimate D2E/DX2                !
 ! D84   D(10,6,15,17)          -5.4818         estimate D2E/DX2                !
 ! D85   D(3,7,12,14)          -32.5795         estimate D2E/DX2                !
 ! D86   D(3,7,12,36)          134.6592         estimate D2E/DX2                !
 ! D87   D(30,7,12,14)        -143.3384         estimate D2E/DX2                !
 ! D88   D(30,7,12,36)          23.9003         estimate D2E/DX2                !
 ! D89   D(96,7,12,14)          91.5672         estimate D2E/DX2                !
 ! D90   D(96,7,12,36)        -101.1941         estimate D2E/DX2                !
 ! D91   D(3,7,30,28)           16.8649         estimate D2E/DX2                !
 ! D92   D(3,7,30,32)         -142.6212         estimate D2E/DX2                !
 ! D93   D(12,7,30,28)         132.8148         estimate D2E/DX2                !
 ! D94   D(12,7,30,32)         -26.6713         estimate D2E/DX2                !
 ! D95   D(96,7,30,28)        -103.4503         estimate D2E/DX2                !
 ! D96   D(96,7,30,32)          97.0637         estimate D2E/DX2                !
 ! D97   D(4,8,11,50)            2.5757         estimate D2E/DX2                !
 ! D98   D(4,8,11,54)         -156.4805         estimate D2E/DX2                !
 ! D99   D(16,8,11,50)         159.5196         estimate D2E/DX2                !
 ! D100  D(16,8,11,54)           0.4634         estimate D2E/DX2                !
 ! D101  D(4,8,16,14)           23.3943         estimate D2E/DX2                !
 ! D102  D(4,8,16,18)          138.8363         estimate D2E/DX2                !
 ! D103  D(4,8,16,98)          -95.5884         estimate D2E/DX2                !
 ! D104  D(11,8,16,14)        -135.6787         estimate D2E/DX2                !
 ! D105  D(11,8,16,18)         -20.2367         estimate D2E/DX2                !
 ! D106  D(11,8,16,98)         105.3387         estimate D2E/DX2                !
 ! D107  D(5,9,13,15)           -1.3527         estimate D2E/DX2                !
 ! D108  D(5,9,13,43)         -146.6174         estimate D2E/DX2                !
 ! D109  D(35,9,13,15)         157.2524         estimate D2E/DX2                !
 ! D110  D(35,9,13,43)          11.9877         estimate D2E/DX2                !
 ! D111  D(5,9,35,33)           -6.7853         estimate D2E/DX2                !
 ! D112  D(5,9,35,37)          149.9298         estimate D2E/DX2                !
 ! D113  D(13,9,35,33)        -165.053          estimate D2E/DX2                !
 ! D114  D(13,9,35,37)          -8.3378         estimate D2E/DX2                !
 ! D115  D(6,10,49,47)          25.8522         estimate D2E/DX2                !
 ! D116  D(6,10,49,51)         140.9763         estimate D2E/DX2                !
 ! D117  D(6,10,49,90)         -96.8618         estimate D2E/DX2                !
 ! D118  D(53,10,49,47)       -122.4937         estimate D2E/DX2                !
 ! D119  D(53,10,49,51)         -7.3696         estimate D2E/DX2                !
 ! D120  D(53,10,49,90)        114.7923         estimate D2E/DX2                !
 ! D121  D(6,10,53,19)           3.9189         estimate D2E/DX2                !
 ! D122  D(6,10,53,55)        -141.5817         estimate D2E/DX2                !
 ! D123  D(49,10,53,19)        154.0029         estimate D2E/DX2                !
 ! D124  D(49,10,53,55)          8.5023         estimate D2E/DX2                !
 ! D125  D(8,11,50,48)         -28.75           estimate D2E/DX2                !
 ! D126  D(8,11,50,52)        -144.5131         estimate D2E/DX2                !
 ! D127  D(8,11,50,89)          94.3935         estimate D2E/DX2                !
 ! D128  D(54,11,50,48)        132.3543         estimate D2E/DX2                !
 ! D129  D(54,11,50,52)         16.5912         estimate D2E/DX2                !
 ! D130  D(54,11,50,89)       -104.5023         estimate D2E/DX2                !
 ! D131  D(8,11,54,20)          20.6541         estimate D2E/DX2                !
 ! D132  D(8,11,54,56)         140.2046         estimate D2E/DX2                !
 ! D133  D(8,11,54,102)       -101.9267         estimate D2E/DX2                !
 ! D134  D(50,11,54,20)       -140.5832         estimate D2E/DX2                !
 ! D135  D(50,11,54,56)        -21.0327         estimate D2E/DX2                !
 ! D136  D(50,11,54,102)        96.8359         estimate D2E/DX2                !
 ! D137  D(7,12,14,16)           4.0251         estimate D2E/DX2                !
 ! D138  D(7,12,14,46)         165.1127         estimate D2E/DX2                !
 ! D139  D(36,12,14,16)       -163.6806         estimate D2E/DX2                !
 ! D140  D(36,12,14,46)         -2.5931         estimate D2E/DX2                !
 ! D141  D(7,12,36,34)           5.9978         estimate D2E/DX2                !
 ! D142  D(7,12,36,38)        -165.1413         estimate D2E/DX2                !
 ! D143  D(14,12,36,34)        172.9443         estimate D2E/DX2                !
 ! D144  D(14,12,36,38)          1.8052         estimate D2E/DX2                !
 ! D145  D(9,13,15,6)         -145.3792         estimate D2E/DX2                !
 ! D146  D(9,13,15,17)           0.6864         estimate D2E/DX2                !
 ! D147  D(43,13,15,6)           4.042          estimate D2E/DX2                !
 ! D148  D(43,13,15,17)        150.1075         estimate D2E/DX2                !
 ! D149  D(9,13,43,2)          151.004          estimate D2E/DX2                !
 ! D150  D(9,13,43,39)          -5.412          estimate D2E/DX2                !
 ! D151  D(15,13,43,2)           2.0431         estimate D2E/DX2                !
 ! D152  D(15,13,43,39)       -154.3729         estimate D2E/DX2                !
 ! D153  D(12,14,16,8)         148.3643         estimate D2E/DX2                !
 ! D154  D(12,14,16,18)         30.2568         estimate D2E/DX2                !
 ! D155  D(12,14,16,98)        -92.5606         estimate D2E/DX2                !
 ! D156  D(46,14,16,8)         -14.2595         estimate D2E/DX2                !
 ! D157  D(46,14,16,18)       -132.3669         estimate D2E/DX2                !
 ! D158  D(46,14,16,98)        104.8156         estimate D2E/DX2                !
 ! D159  D(12,14,46,4)        -163.0165         estimate D2E/DX2                !
 ! D160  D(12,14,46,42)          0.8849         estimate D2E/DX2                !
 ! D161  D(16,14,46,4)           0.5841         estimate D2E/DX2                !
 ! D162  D(16,14,46,42)        164.4855         estimate D2E/DX2                !
 ! D163  D(6,15,17,1)          154.0076         estimate D2E/DX2                !
 ! D164  D(6,15,17,19)           5.4069         estimate D2E/DX2                !
 ! D165  D(13,15,17,1)          12.4495         estimate D2E/DX2                !
 ! D166  D(13,15,17,19)       -136.1513         estimate D2E/DX2                !
 ! D167  D(8,16,18,3)         -143.7745         estimate D2E/DX2                !
 ! D168  D(8,16,18,20)          17.9595         estimate D2E/DX2                !
 ! D169  D(14,16,18,3)         -33.5117         estimate D2E/DX2                !
 ! D170  D(14,16,18,20)        128.2223         estimate D2E/DX2                !
 ! D171  D(98,16,18,3)          89.9754         estimate D2E/DX2                !
 ! D172  D(98,16,18,20)       -108.2906         estimate D2E/DX2                !
 ! D173  D(1,17,19,21)          -0.8229         estimate D2E/DX2                !
 ! D174  D(1,17,19,53)        -152.2373         estimate D2E/DX2                !
 ! D175  D(15,17,19,21)        150.7403         estimate D2E/DX2                !
 ! D176  D(15,17,19,53)         -0.6741         estimate D2E/DX2                !
 ! D177  D(3,18,20,22)           1.8323         estimate D2E/DX2                !
 ! D178  D(3,18,20,54)         164.4435         estimate D2E/DX2                !
 ! D179  D(16,18,20,22)       -159.5364         estimate D2E/DX2                !
 ! D180  D(16,18,20,54)          3.0748         estimate D2E/DX2                !
 ! D181  D(17,19,21,23)         -7.5203         estimate D2E/DX2                !
 ! D182  D(17,19,21,57)       -126.3621         estimate D2E/DX2                !
 ! D183  D(17,19,21,101)       110.9886         estimate D2E/DX2                !
 ! D184  D(53,19,21,23)        142.9434         estimate D2E/DX2                !
 ! D185  D(53,19,21,57)         24.1016         estimate D2E/DX2                !
 ! D186  D(53,19,21,101)       -98.5477         estimate D2E/DX2                !
 ! D187  D(17,19,53,10)         -3.9998         estimate D2E/DX2                !
 ! D188  D(17,19,53,55)        137.7482         estimate D2E/DX2                !
 ! D189  D(21,19,53,10)       -152.3267         estimate D2E/DX2                !
 ! D190  D(21,19,53,55)        -10.5787         estimate D2E/DX2                !
 ! D191  D(18,20,22,24)         -2.9059         estimate D2E/DX2                !
 ! D192  D(18,20,22,58)        141.8188         estimate D2E/DX2                !
 ! D193  D(54,20,22,24)       -166.3939         estimate D2E/DX2                !
 ! D194  D(54,20,22,58)        -21.6693         estimate D2E/DX2                !
 ! D195  D(18,20,54,11)        -22.2315         estimate D2E/DX2                !
 ! D196  D(18,20,54,56)       -134.6905         estimate D2E/DX2                !
 ! D197  D(18,20,54,102)       101.7847         estimate D2E/DX2                !
 ! D198  D(22,20,54,11)        140.5666         estimate D2E/DX2                !
 ! D199  D(22,20,54,56)         28.1075         estimate D2E/DX2                !
 ! D200  D(22,20,54,102)       -95.4172         estimate D2E/DX2                !
 ! D201  D(19,21,23,1)          13.4833         estimate D2E/DX2                !
 ! D202  D(19,21,23,25)       -149.362          estimate D2E/DX2                !
 ! D203  D(57,21,23,1)         133.1838         estimate D2E/DX2                !
 ! D204  D(57,21,23,25)        -29.6616         estimate D2E/DX2                !
 ! D205  D(101,21,23,1)       -105.6469         estimate D2E/DX2                !
 ! D206  D(101,21,23,25)        91.5077         estimate D2E/DX2                !
 ! D207  D(19,21,57,59)        143.005          estimate D2E/DX2                !
 ! D208  D(19,21,57,83)        -24.0685         estimate D2E/DX2                !
 ! D209  D(23,21,57,59)         30.437          estimate D2E/DX2                !
 ! D210  D(23,21,57,83)       -136.6366         estimate D2E/DX2                !
 ! D211  D(101,21,57,59)       -92.3325         estimate D2E/DX2                !
 ! D212  D(101,21,57,83)       100.594          estimate D2E/DX2                !
 ! D213  D(20,22,24,26)          2.5589         estimate D2E/DX2                !
 ! D214  D(20,22,24,62)        154.1224         estimate D2E/DX2                !
 ! D215  D(58,22,24,26)       -146.7144         estimate D2E/DX2                !
 ! D216  D(58,22,24,62)          4.849          estimate D2E/DX2                !
 ! D217  D(20,22,58,60)       -146.0832         estimate D2E/DX2                !
 ! D218  D(20,22,58,84)          2.5018         estimate D2E/DX2                !
 ! D219  D(24,22,58,60)          2.9922         estimate D2E/DX2                !
 ! D220  D(24,22,58,84)        151.5772         estimate D2E/DX2                !
 ! D221  D(1,23,25,27)          -0.9457         estimate D2E/DX2                !
 ! D222  D(1,23,25,61)        -157.1099         estimate D2E/DX2                !
 ! D223  D(21,23,25,27)        160.2175         estimate D2E/DX2                !
 ! D224  D(21,23,25,61)          4.0534         estimate D2E/DX2                !
 ! D225  D(22,24,26,3)          -1.0986         estimate D2E/DX2                !
 ! D226  D(22,24,26,28)        151.1509         estimate D2E/DX2                !
 ! D227  D(62,24,26,3)        -149.2215         estimate D2E/DX2                !
 ! D228  D(62,24,26,28)          3.028          estimate D2E/DX2                !
 ! D229  D(22,24,62,60)         -9.8621         estimate D2E/DX2                !
 ! D230  D(22,24,62,64)       -125.5281         estimate D2E/DX2                !
 ! D231  D(22,24,62,97)        110.8111         estimate D2E/DX2                !
 ! D232  D(26,24,62,60)        140.5855         estimate D2E/DX2                !
 ! D233  D(26,24,62,64)         24.9195         estimate D2E/DX2                !
 ! D234  D(26,24,62,97)        -98.7414         estimate D2E/DX2                !
 ! D235  D(23,25,27,29)        -22.3544         estimate D2E/DX2                !
 ! D236  D(23,25,27,65)       -136.8333         estimate D2E/DX2                !
 ! D237  D(23,25,27,93)        103.4521         estimate D2E/DX2                !
 ! D238  D(61,25,27,29)        136.0132         estimate D2E/DX2                !
 ! D239  D(61,25,27,65)         21.5343         estimate D2E/DX2                !
 ! D240  D(61,25,27,93)        -98.1803         estimate D2E/DX2                !
 ! D241  D(23,25,61,59)         20.3892         estimate D2E/DX2                !
 ! D242  D(23,25,61,63)        136.1196         estimate D2E/DX2                !
 ! D243  D(23,25,61,100)      -104.9916         estimate D2E/DX2                !
 ! D244  D(27,25,61,59)       -137.9263         estimate D2E/DX2                !
 ! D245  D(27,25,61,63)        -22.1959         estimate D2E/DX2                !
 ! D246  D(27,25,61,100)        96.6929         estimate D2E/DX2                !
 ! D247  D(3,26,28,30)           5.6856         estimate D2E/DX2                !
 ! D248  D(3,26,28,66)         122.4628         estimate D2E/DX2                !
 ! D249  D(3,26,28,85)        -115.255          estimate D2E/DX2                !
 ! D250  D(24,26,28,30)       -148.2585         estimate D2E/DX2                !
 ! D251  D(24,26,28,66)        -31.4814         estimate D2E/DX2                !
 ! D252  D(24,26,28,85)         90.8009         estimate D2E/DX2                !
[...]
 Alpha virt. eigenvalues --    1.60573   1.61084   1.61320   1.61697   1.61963
 Alpha virt. eigenvalues --    1.62122   1.62337   1.62466   1.62979   1.63228
 Alpha virt. eigenvalues --    1.63367   1.63679   1.64054   1.64278   1.64437
 Alpha virt. eigenvalues --    1.64652   1.64834   1.65078   1.65392   1.65515
 Alpha virt. eigenvalues --    1.65726   1.66118   1.66510   1.66606   1.66929
 Alpha virt. eigenvalues --    1.67142   1.67306   1.67433   1.67588   1.67735
 Alpha virt. eigenvalues --    1.68114   1.68261   1.68397   1.68658   1.68970
 Alpha virt. eigenvalues --    1.69091   1.69322   1.69644   1.69983   1.70042
 Alpha virt. eigenvalues --    1.70514   1.70737   1.70780   1.70931   1.71316
 Alpha virt. eigenvalues --    1.71392   1.71616   1.71872   1.72159   1.72374
 Alpha virt. eigenvalues --    1.72510   1.72805   1.73064   1.73284   1.73661
 Alpha virt. eigenvalues --    1.73995   1.74149   1.74286   1.74559   1.74703
 Alpha virt. eigenvalues --    1.74945   1.75184   1.75461   1.75733   1.75894
 Alpha virt. eigenvalues --    1.76026   1.76285   1.76395   1.76603   1.76673
 Alpha virt. eigenvalues --    1.76890   1.77100   1.77372   1.77467   1.77903
 Alpha virt. eigenvalues --    1.78097   1.78358   1.78561   1.78846   1.78991
 Alpha virt. eigenvalues --    1.79400   1.79665   1.79842   1.80175   1.80387
 Alpha virt. eigenvalues --    1.80565   1.81116   1.81190   1.81374   1.81497
 Alpha virt. eigenvalues --    1.81565   1.81801   1.82092   1.82435   1.82711
 Alpha virt. eigenvalues --    1.82783   1.82951   1.83228   1.83536   1.84029
 Alpha virt. eigenvalues --    1.84159   1.84537   1.84629   1.84943   1.85247
 Alpha virt. eigenvalues --    1.85481   1.85713   1.86324   1.86684   1.87002
 Alpha virt. eigenvalues --    1.87096   1.87474   1.87961   1.88270   1.88400
 Alpha virt. eigenvalues --    1.88597   1.88969   1.89189   1.89706   1.89943
 Alpha virt. eigenvalues --    1.90351   1.90562   1.91053   1.91121   1.91467
 Alpha virt. eigenvalues --    1.91817   1.92020   1.92598   1.92806   1.93269
 Alpha virt. eigenvalues --    1.93460   1.93763   1.94314   1.94426   1.95299
 Alpha virt. eigenvalues --    1.95676   1.95834   1.96159   1.96577   1.96804
 Alpha virt. eigenvalues --    1.97111   1.97706   1.98047   1.98532   1.98765
 Alpha virt. eigenvalues --    1.99190   1.99603   1.99786   2.00079   2.00571
 Alpha virt. eigenvalues --    2.00754   2.01351   2.01722   2.01809   2.02004
 Alpha virt. eigenvalues --    2.02704   2.02854   2.03064   2.03434   2.03678
 Alpha virt. eigenvalues --    2.04042   2.04515   2.04786   2.05191   2.05476
 Alpha virt. eigenvalues --    2.05965   2.06062   2.07011   2.07167   2.07249
 Alpha virt. eigenvalues --    2.07996   2.08258   2.08509   2.08716   2.08842
 Alpha virt. eigenvalues --    2.09542   2.09945   2.10560   2.10592   2.10934
 Alpha virt. eigenvalues --    2.11594   2.11803   2.12088   2.12749   2.12981
 Alpha virt. eigenvalues --    2.13319   2.13956   2.14178   2.14531   2.14950
 Alpha virt. eigenvalues --    2.15163   2.15582   2.15800   2.16088   2.16466
 Alpha virt. eigenvalues --    2.17132   2.17440   2.17819   2.17952   2.18385
 Alpha virt. eigenvalues --    2.18636   2.19390   2.19609   2.20189   2.20519
 Alpha virt. eigenvalues --    2.20790   2.20869   2.21281   2.21857   2.22151
 Alpha virt. eigenvalues --    2.22394   2.23127   2.23460   2.24116   2.24283
 Alpha virt. eigenvalues --    2.24552   2.25052   2.25735   2.26054   2.26717
 Alpha virt. eigenvalues --    2.26862   2.27169   2.27888   2.27985   2.28302
 Alpha virt. eigenvalues --    2.28453   2.29054   2.29426   2.29533   2.30207
 Alpha virt. eigenvalues --    2.30835   2.31016   2.31432   2.32299   2.32448
 Alpha virt. eigenvalues --    2.32673   2.33422   2.34192   2.35109   2.35575
 Alpha virt. eigenvalues --    2.35833   2.36364   2.37117   2.37242   2.37652
 Alpha virt. eigenvalues --    2.37929   2.38479   2.39027   2.39732   2.40092
 Alpha virt. eigenvalues --    2.40335   2.41077   2.41433   2.41655   2.42073
 Alpha virt. eigenvalues --    2.42585   2.43133   2.44323   2.44646   2.44779
 Alpha virt. eigenvalues --    2.45213   2.45759   2.46168   2.46713   2.46905
 Alpha virt. eigenvalues --    2.47604   2.47834   2.48303   2.48552   2.49123
 Alpha virt. eigenvalues --    2.49284   2.49410   2.50150   2.50585   2.51087
 Alpha virt. eigenvalues --    2.52236   2.52286   2.52967   2.53150   2.53284
 Alpha virt. eigenvalues --    2.54232   2.54329   2.54670   2.54909   2.55156
 Alpha virt. eigenvalues --    2.55596   2.56044   2.56403   2.56657   2.56894
 Alpha virt. eigenvalues --    2.57268   2.57775   2.58132   2.58242   2.58782
 Alpha virt. eigenvalues --    2.58864   2.59162   2.59497   2.59724   2.60205
 Alpha virt. eigenvalues --    2.60597   2.60934   2.61396   2.61738   2.62137
 Alpha virt. eigenvalues --    2.62220   2.62847   2.63605   2.63892   2.64052
 Alpha virt. eigenvalues --    2.64566   2.65251   2.65451   2.65826   2.65998
 Alpha virt. eigenvalues --    2.66358   2.66857   2.66991   2.67139   2.67459
 Alpha virt. eigenvalues --    2.67775   2.68185   2.68496   2.68785   2.69486
 Alpha virt. eigenvalues --    2.70217   2.70629   2.70813   2.71147   2.71378
 Alpha virt. eigenvalues --    2.71848   2.72276   2.72405   2.73051   2.73062
 Alpha virt. eigenvalues --    2.73554   2.73606   2.73821   2.74241   2.74436
 Alpha virt. eigenvalues --    2.74797   2.75069   2.75684   2.75942   2.76397
 Alpha virt. eigenvalues --    2.76785   2.77562   2.77618   2.77970   2.78499
 Alpha virt. eigenvalues --    2.78839   2.79063   2.79377   2.80177   2.80405
 Alpha virt. eigenvalues --    2.80764   2.80953   2.81641   2.82320   2.83028
 Alpha virt. eigenvalues --    2.83209   2.83598   2.83994   2.84732   2.84874
 Alpha virt. eigenvalues --    2.85324   2.85884   2.86521   2.87374   2.87542
 Alpha virt. eigenvalues --    2.88226   2.88493   2.89677   2.90159   2.90537
 Alpha virt. eigenvalues --    2.91159   2.91822   2.92052   2.93033   2.93665
 Alpha virt. eigenvalues --    2.94389   2.94595   2.95517   2.96239   2.97161
 Alpha virt. eigenvalues --    2.98686   2.99107   3.00352   3.01395   3.02411
 Alpha virt. eigenvalues --    3.03944   3.05039   3.06457   3.08234   3.08567
 Alpha virt. eigenvalues --    3.08832   3.09674   3.11313   3.12531   3.13327
 Alpha virt. eigenvalues --    3.14977   3.16166   3.16838   3.17721   3.18127
 Alpha virt. eigenvalues --    3.19912   3.19985   3.22036   3.23458   3.24210
 Alpha virt. eigenvalues --    3.26886   3.28473   3.30460   3.31992   3.33211
 Alpha virt. eigenvalues --    3.34143   3.37013   3.39907   3.41300   3.42348
 Alpha virt. eigenvalues --    3.42772   3.47276   3.48139   3.50561   3.53139
 Alpha virt. eigenvalues --    4.00246   4.02034   4.02785   4.03231   4.04038
 Alpha virt. eigenvalues --    4.04788   4.05668   4.05915   4.07206   4.07384
 Alpha virt. eigenvalues --    4.08328   4.08610   4.09531   4.09594   4.11377
 Alpha virt. eigenvalues --    4.11949   4.12480   4.13078   4.13641   4.14366
 Alpha virt. eigenvalues --    4.15089   4.15564   4.16598   4.16860   4.18089
 Alpha virt. eigenvalues --    4.18377   4.18933   4.19746   4.20413   4.20752
 Alpha virt. eigenvalues --    4.21993   4.22847   4.23291   4.23752   4.24901
 Alpha virt. eigenvalues --    4.25244   4.25404   4.26119   4.26494   4.26672
 Alpha virt. eigenvalues --    4.27044   4.27658   4.27982   4.28351   4.28713
 Alpha virt. eigenvalues --    4.29583   4.29895   4.30121   4.30353   4.30956
 Alpha virt. eigenvalues --    4.32696   4.33506   4.34405   4.36007   4.36150
 Alpha virt. eigenvalues --    4.36806   4.38228   4.39010   4.39572   4.40276
 Alpha virt. eigenvalues --    4.40761   4.41974   4.42181   4.42887   4.43194
 Alpha virt. eigenvalues --    4.43658   4.44829   4.45312   4.47579   4.47898
 Alpha virt. eigenvalues --    4.49262   4.49941   4.51942   4.52626   4.53523
 Alpha virt. eigenvalues --    4.54924   4.56544   4.58865   4.59256   4.61406
 Alpha virt. eigenvalues --    4.61982   4.64892   4.65424   4.66217   4.68792
 Alpha virt. eigenvalues --    4.70009   4.73971   4.77455   4.78710   4.79135
 Alpha virt. eigenvalues --    4.81818   4.82659   4.84942   4.89198   4.92859
 Alpha virt. eigenvalues --    4.95138   4.96772   4.99431   5.05496   5.09095
 Alpha virt. eigenvalues --    5.14413   5.16948
          Condensed to atoms (all electrons):
 Mulliken charges:
               1
     1  C   -0.353498
     2  C   -0.369097
     3  C    0.108040
     4  C   -0.378904
     5  C    0.087169
     6  C    0.094114
     7  C   -0.380512
     8  C    0.180049
     9  C    0.062157
    10  C    0.097581
    11  C    0.180363
    12  C    0.147680
    13  C   -0.003460
    14  C    0.116840
    15  C    0.028951
    16  C   -0.384078
    17  C    0.103212
    18  C    0.150153
    19  C    0.105458
    20  C    0.116908
    21  C   -0.353549
    22  C    0.045435
    23  C    0.176993
    24  C    0.084447
    25  C    0.188643
    26  C    0.129103
    27  C   -0.377542
    28  C   -0.377613
    29  C    0.152918
    30  C    0.187907
    31  C    0.083472
    32  C    0.177967
    33  C    0.006153
    34  C   -0.372609
    35  C    0.034323
    36  C    0.120564
    37  C    0.045780
    38  C    0.123727
    39  C    0.059663
    40  C    0.042899
    41  C    0.082664
    42  C    0.144044
    43  C    0.051853
    44  C    0.116842
    45  C    0.150007
    46  C    0.116438
    47  C    0.128524
    48  C    0.117440
    49  C   -0.383109
    50  C   -0.370851
    51  C    0.087733
    52  C    0.135942
    53  C    0.030760
    54  C   -0.358812
    55  C   -0.008676
    56  C    0.079517
    57  C    0.092549
    58  C   -0.016813
    59  C    0.151827
    60  C    0.086406
    61  C   -0.378937
    62  C   -0.395014
    63  C    0.111280
    64  C    0.149259
    65  C    0.117893
    66  C    0.125088
    67  C    0.148179
    68  C    0.120536
    69  C   -0.390383
    70  C   -0.374146
    71  C    0.086470
    72  C    0.126281
    73  C    0.014536
    74  C    0.124336
    75  C    0.019418
    76  C    0.087170
    77  C    0.005694
    78  C   -0.383405
    79  C   -0.005708
    80  C   -0.390663
    81  C    0.091463
    82  C    0.094198
    83  C    0.068165
    84  C    0.060286
    85  Cl   0.032866
    86  Cl   0.027371
    87  Cl   0.031784
    88  Cl   0.032465
    89  Cl   0.026242
    90  Cl   0.025919
    91  Cl   0.008677
    92  Cl   0.029737
    93  Cl   0.032811
    94  Cl   0.025199
    95  Cl   0.027961
    96  Cl   0.031173
    97  Cl   0.033469
    98  Cl   0.030786
    99  Cl   0.005237
   100  Cl   0.032700
   101  Cl   0.007328
   102  Cl   0.004191
 Sum of Mulliken charges =  -0.00000
 Mulliken charges with hydrogens summed into heavy atoms:
               1
     1  C   -0.353498
     2  C   -0.369097
     3  C    0.108040
     4  C   -0.378904
     5  C    0.087169
     6  C    0.094114
     7  C   -0.380512
     8  C    0.180049
     9  C    0.062157
    10  C    0.097581
    11  C    0.180363
    12  C    0.147680
    13  C   -0.003460
    14  C    0.116840
    15  C    0.028951
    16  C   -0.384078
    17  C    0.103212
    18  C    0.150153
    19  C    0.105458
    20  C    0.116908
    21  C   -0.353549
    22  C    0.045435
    23  C    0.176993
    24  C    0.084447
    25  C    0.188643
    26  C    0.129103
    27  C   -0.377542
    28  C   -0.377613
    29  C    0.152918
    30  C    0.187907
    31  C    0.083472
    32  C    0.177967
    33  C    0.006153
    34  C   -0.372609
    35  C    0.034323
    36  C    0.120564
    37  C    0.045780
    38  C    0.123727
    39  C    0.059663
    40  C    0.042899
    41  C    0.082664
    42  C    0.144044
    43  C    0.051853
    44  C    0.116842
    45  C    0.150007
    46  C    0.116438
    47  C    0.128524
    48  C    0.117440
    49  C   -0.383109
    50  C   -0.370851
    51  C    0.087733
    52  C    0.135942
    53  C    0.030760
    54  C   -0.358812
    55  C   -0.008676
    56  C    0.079517
    57  C    0.092549
    58  C   -0.016813
    59  C    0.151827
    60  C    0.086406
    61  C   -0.378937
    62  C   -0.395014
    63  C    0.111280
    64  C    0.149259
    65  C    0.117893
    66  C    0.125088
    67  C    0.148179
    68  C    0.120536
    69  C   -0.390383
    70  C   -0.374146
    71  C    0.086470
    72  C    0.126281
    73  C    0.014536
    74  C    0.124336
    75  C    0.019418
    76  C    0.087170
    77  C    0.005694
    78  C   -0.383405
    79  C   -0.005708
    80  C   -0.390663
    81  C    0.091463
    82  C    0.094198
    83  C    0.068165
    84  C    0.060286
    85  Cl   0.032866
    86  Cl   0.027371
    87  Cl   0.031784
    88  Cl   0.032465
    89  Cl   0.026242
    90  Cl   0.025919
    91  Cl   0.008677
    92  Cl   0.029737
    93  Cl   0.032811
    94  Cl   0.025199
    95  Cl   0.027961
    96  Cl   0.031173
    97  Cl   0.033469
    98  Cl   0.030786
    99  Cl   0.005237
   100  Cl   0.032700
   101  Cl   0.007328
   102  Cl   0.004191
 Electronic spatial extent (au):  <R**2>=          76868.0886
 Charge=              0.0000 electrons
 Dipole moment (field-independent basis, Debye):
    X=             -0.8973    Y=             -1.5425    Z=             -2.8284  Tot=              3.3443
 Quadrupole moment (field-independent basis, Debye-Ang):
   XX=           -743.4848   YY=           -726.7522   ZZ=           -697.9425
   XY=             -0.2583   XZ=              0.3185   YZ=             -2.8965
 Traceless Quadrupole moment (field-independent basis, Debye-Ang):
   XX=            -20.7583   YY=             -4.0257   ZZ=             24.7840
   XY=             -0.2583   XZ=              0.3185   YZ=             -2.8965
 Octapole moment (field-independent basis, Debye-Ang**2):
  XXX=             55.6383  YYY=             13.5678  ZZZ=            -13.0666  XYY=             -5.7778
  XXY=             55.0201  XXZ=             -3.8047  XZZ=            -35.0973  YZZ=             11.8171
  YYZ=             27.5306  XYZ=             10.0089
 Hexadecapole moment (field-independent basis, Debye-Ang**3):
 XXXX=         -40276.0063 YYYY=         -38926.0268 ZZZZ=         -28133.3472 XXXY=           -184.0212
 XXXZ=           -126.5797 YYYX=             14.9164 YYYZ=            -46.6604 ZZZX=             -3.5790
 ZZZY=             15.3392 XXYY=         -13209.2150 XXZZ=         -11495.9842 YYZZ=         -11188.9961
 XXYZ=             89.8532 YYXZ=             -2.0226 ZZXY=              4.5789
 N-N= 3.011502619117D+04 E-N=-8.730414890796D+04  KE= 1.142942822643D+04
 Leave Link  601 at Thu Jun 30 06:17:18 2022, MaxMem=  1342177280 cpu:              18.7 elap:               1.1
 (Enter /home/mkliu/g16/l9999.exe)
 1\1\GINC-NODE01\FOpt\RB3LYP\6-31G(d,p)\C84Cl18\MKLIU\30-Jun-2022\0\\#P
  opt b3lyp/6-31G(d, p) empiricaldispersion=GD3\\force\\0,1\C,8.4328953
 274,18.6119858654,10.8091401246\C,12.5923864958,19.954003261,8.8911516
 123\C,8.2652348168,26.8464268002,10.5079843553\C,12.4985827258,25.7250
 092959,8.9271514298\C,8.0238843941,19.1221804211,9.4281968877\C,12.085
 3179964,19.4439310658,10.2201544014\C,7.8897106933,27.1063254815,9.062
 7504966\C,11.9104652844,26.1830666074,10.2382576848\C,8.9834679837,19.
 2204053104,8.3707650858\C,12.3508083194,20.0918300138,11.400878448\C,1
 2.1569271508,25.5484448503,11.3795767442\C,8.9805636588,26.5920060166,
 8.1403949216\C,10.3821368865,19.054906626,8.6755914882\C,10.2884936679
 ,26.6275973006,8.6199604989\C,10.829502898,18.813608729,10.039296077\C
 ,10.6971596621,27.0606035023,10.0155397984\C,9.9072079813,18.740927910
 4,11.0656823269\C,9.5780459655,26.7613329762,10.9862172576\C,10.175417
 0796,19.399007539,12.274998893\C,9.8312901664,26.0547043548,12.1771402
 835\C,8.9099982028,19.8170584378,12.9743581149\C,8.7588770405,25.42458
 89578,12.8199833849\C,7.8689623098,19.4782990026,11.9223564236\C,7.447
 7172294,25.5325486598,12.3439790295\C,6.7489459715,20.1732566345,11.78
 25901759\C,7.2034698951,26.2318758537,11.1855824063\C,5.9421832418,20.
 1499265355,10.5089287093\C,6.049097335,25.9040611266,10.2755397313\C,6
 .767288867,19.7449905224,9.2985767575\C,6.6307325781,26.2817700142,8.9
 330133973\C,6.4186588613,20.3308668142,8.0851595003\C,6.3346122408,25.
 619348806,7.8234335695\C,7.332046066,20.3859909602,7.0221975382\C,7.22
 23671317,25.6509239928,6.5938370958\C,8.665678302,19.9296597389,7.1605
 08461\C,8.6924572503,25.8342144444,6.9890929027\C,9.712696002,20.60050
 76777,6.3920753396\C,9.719151012,25.08967517,6.3562354973\C,11.0655108
 765,20.5630831788,6.8771380791\C,12.7342405927,22.1592966357,7.7868064
 25\C,12.7665828561,23.5572679419,7.7732121196\C,11.0253939088,25.09962
 06146,6.892136417\C,11.3697316808,19.7326727299,7.9908379126\C,12.9330
 236735,21.4340792389,8.9615672511\C,12.9222000105,24.2677417347,8.9559
 53366\C,11.2942763464,25.8858104465,8.0098049678\C,13.1543204978,22.13
 94472064,10.1643742002\C,13.1307451017,23.5611308511,10.161375702\C,13
 .1857116907,21.3629088316,11.4857864835\C,13.0753574576,24.3421795685,
 11.4732334392\C,12.4262944587,22.1403846422,12.5457802234\C,12.3639600
 318,23.5283067097,12.5195442486\C,11.3604183281,20.0963850591,12.41814
 70163\C,11.2249163032,25.6220481749,12.5678298497\C,11.3637453039,21.3
 989107516,13.0596588611\C,11.2695656083,24.1856504997,13.0503950295\C,
 8.8985526482,21.3052839323,13.3233182091\C,8.8924678492,24.116839573,1
 3.4698678001\C,7.6960935042,22.0131319578,13.2219591121\C,7.7008271474
 ,23.4164787623,13.3374946261\C,6.4474154029,21.3937061531,12.616721663
 4\C,6.6212513404,24.3394380267,12.7599402313\C,5.8741729143,22.3141348
 284,11.5510070873\C,5.9753179848,23.7033544271,11.5467869906\C,5.57430
 92318,21.6194490891,10.3853666074\C,5.7318352906,24.4066215562,10.3475
 005506\C,5.3552828161,22.291261247,9.1842471493\C,5.4167794766,23.7004
 349656,9.1640344998\C,5.3703308269,21.4451133218,7.926722\C,5.37632656
 31,24.4467250326,7.8249888605\C,5.9278898038,22.2270375425,6.760793137
 5\C,5.9441993335,23.601595695,6.7149381381\C,6.9902589246,21.508083457
 5,6.1733602515\C,6.9785317807,24.2831594908,6.0200039637\C,7.991191949
 7,22.1727540467,5.4829685628\C,7.9722124049,23.5835666278,5.3784255603
 \C,9.3546236092,21.7090350412,5.5729186036\C,9.3875717586,24.104766532
 7,5.2290730076\C,11.8883357009,21.6948220317,6.6824078788\C,12.0856476
 361,24.0837693579,6.5090706339\C,10.2023027714,22.8252553913,5.3960882
 422\C,11.4513817026,22.8208879254,5.9710250762\C,10.1425315988,22.0177
 544817,13.4704282992\C,10.1375562533,23.4555156369,13.5115460208\Cl,4.
 5436414202,26.88086818,10.6867818826\Cl,3.6425515072,24.9715139346,7.4
 707806607\Cl,13.2847239484,24.80992223,5.321929652\Cl,13.9063131891,26
 .7941782615,8.4068355215\Cl,14.777135479,24.8309975299,11.9897583132\C
 l,14.9255520615,21.0055813169,11.9577368229\Cl,14.0588154156,19.000621
 5604,8.2970574217\Cl,3.6909438686,20.7984600129,7.5510389225\Cl,4.4597
 393669,19.0709892102,10.6852549671\Cl,9.6697947936,24.9142612256,3.602
 7719828\Cl,6.7285517927,26.9906893974,5.4254870381\Cl,7.5651169233,28.
 8948724806,8.7475730437\Cl,5.3502239411,24.7841914846,14.0104104454\Cl
 ,11.1410894517,28.8495831865,10.0746095526\Cl,7.8828069789,16.84462783
 09,10.9879630413\Cl,5.2122702335,21.0307314503,13.9361625377\Cl,8.6461
 967962,18.8278287332,14.5246815473\Cl,11.8737103683,26.7776527926,13.8
 750848058\\Version=ES64L-G16RevA.03\State=1-A\HF=-11484.6450852\RMSD=8
 .533e-09\RMSF=1.513e-05\Dipole=0.2329174,-1.1569748,-0.5816548\Quadrup
 ole=-9.8023477,-3.1282694,12.9306171,-5.573008,2.4944092,11.1467566\PG
 =C01 [X(C84Cl18)]\\@


  ON THE CHOICE OF THE CORRECT LANGUAGE -
 I SPEAK SPANISH TO GOD, ITALIAN TO WOMEN,
 FRENCH TO MEN, AND GERMAN TO MY HORSE.
          -- CHARLES V
 Job cpu time:       1 days 15 hours  0 minutes 17.0 seconds.
 Elapsed time:       0 days  1 hours 37 minutes 38.7 seconds.
 File lengths (MBytes):  RWF=   1574 Int=      0 D2E=      0 Chk=    196 Scr=      1
 Normal termination of Gaussian 16 at Thu Jun 30 06:17:19 2022.
