 Entering Gaussian System, Link 0=g16
 Input=18_addons_C84_11_Cl22_rank_6.gjf
 Output=18_addons_C84_11_Cl22_rank_6.log
 Initial command:
 /home/mkliu/g16/l1.exe "/data/scratch/Gau-64575.inp" -scrdir="/data/scratch/"
 Entering Link 1 = /home/mkliu/g16/l1.exe PID=     64576.
  
 Copyright (c) 1988,1990,1992,1993,1995,1998,2003,2009,2016,
            Gaussian, Inc.  All Rights Reserved.
  
 This is part of the Gaussian(R) 16 program.  It is based on
 the Gaussian(R) 09 system (copyright 2009, Gaussian, Inc.),
 the Gaussian(R) 03 system (copyright 2003, Gaussian, Inc.),
 the Gaussian(R) 98 system (copyright 1998, Gaussian, Inc.),
 the Gaussian(R) 94 system (copyright 1995, Gaussian, Inc.),
 the Gaussian 92(TM) system (copyright 1992, Gaussian, Inc.),
 the Gaussian 90(TM) system (copyright 1990, Gaussian, Inc.),
 the Gaussian 88(TM) system (copyright 1988, Gaussian, Inc.),
 the Gaussian 86(TM) system (copyright 1986, Carnegie Mellon
 University), and the Gaussian 82(TM) system (copyright 1983,
 Carnegie Mellon University). Gaussian is a federally registered
 trademark of Gaussian, Inc.
  
 This software contains proprietary and confidential information,
 including trade secrets, belonging to Gaussian, Inc.
  
 This software is provided under written license and may be
 used, copied, transmitted, or stored only in accord with that
 written license.
  
 The following legend is applicable only to US Government
 contracts under FAR:
  
                    RESTRICTED RIGHTS LEGEND
  
 Use, reproduction and disclosure by the US Government is
 subject to restrictions as set forth in subparagraphs (a)
 and (c) of the Commercial Computer Software - Restricted
 Rights clause in FAR 52.227-19.
  
 Gaussian, Inc.
 340 Quinnipiac St., Bldg. 40, Wallingford CT 06492
  
  
 ---------------------------------------------------------------
 Warning -- This program may not be used in any manner that
 competes with the business of Gaussian, Inc. or will provide
 assistance to any competitor of Gaussian, Inc.  The licensee
 of this program is prohibited from giving any competitor of
 Gaussian, Inc. access to this program.  By using this program,
 the user acknowledges that Gaussian, Inc. is engaged in the
 business of creating and licensing software in the field of
 computational chemistry and represents and warrants to the
 licensee that it is not a competitor of Gaussian, Inc. and that
 it will not use this program in any manner prohibited above.
 ---------------------------------------------------------------
  

 Cite this work as:
 Gaussian 16, Revision A.03,
 M. J. Frisch, G. W. Trucks, H. B. Schlegel, G. E. Scuseria, 
 M. A. Robb, J. R. Cheeseman, G. Scalmani, V. Barone, 
 G. A. Petersson, H. Nakatsuji, X. Li, M. Caricato, A. V. Marenich, 
 J. Bloino, B. G. Janesko, R. Gomperts, B. Mennucci, H. P. Hratchian, 
 J. V. Ortiz, A. F. Izmaylov, J. L. Sonnenberg, D. Williams-Young, 
 F. Ding, F. Lipparini, F. Egidi, J. Goings, B. Peng, A. Petrone, 
 T. Henderson, D. Ranasinghe, V. G. Zakrzewski, J. Gao, N. Rega, 
 G. Zheng, W. Liang, M. Hada, M. Ehara, K. Toyota, R. Fukuda, 
 J. Hasegawa, M. Ishida, T. Nakajima, Y. Honda, O. Kitao, H. Nakai, 
 T. Vreven, K. Throssell, J. A. Montgomery, Jr., J. E. Peralta, 
 F. Ogliaro, M. J. Bearpark, J. J. Heyd, E. N. Brothers, K. N. Kudin, 
 V. N. Staroverov, T. A. Keith, R. Kobayashi, J. Normand, 
 K. Raghavachari, A. P. Rendell, J. C. Burant, S. S. Iyengar, 
 J. Tomasi, M. Cossi, J. M. Millam, M. Klene, C. Adamo, R. Cammi, 
 J. W. Ochterski, R. L. Martin, K. Morokuma, O. Farkas, 
 J. B. Foresman, and D. J. Fox, Gaussian, Inc., Wallingford CT, 2016.
 
 ******************************************
 Gaussian 16:  ES64L-G16RevA.03 25-Dec-2016
                29-Jun-2022 
 ******************************************
 %mem=10GB
 %chk=18_addons_C84_11_Cl22_rank_6.chk
 %nprocshared=24
 Will use up to   24 processors via shared memory.
 ------------------------------------------------
 #P opt b3lyp/6-31G(d, p) empiricaldispersion=GD3
 ------------------------------------------------
 1/18=20,19=15,26=3,38=1/1,3;
 2/9=110,12=2,17=6,18=5,40=1/2;
 3/5=1,6=6,7=101,11=2,25=1,30=1,71=1,74=-5,124=31/1,2,3;
 4//1;
 5/5=2,38=5/2;
 6/7=2,8=2,9=2,10=2,28=1/1;
 7//1,2,3,16;
 1/18=20,19=15,26=3/3(2);
 2/9=110/2;
 99//99;
 2/9=110/2;
 3/5=1,6=6,7=101,11=2,25=1,30=1,71=1,74=-5,124=31/1,2,3;
 4/5=5,16=3,69=1/1;
 5/5=2,38=5/2;
 7//1,2,3,16;
 1/18=20,19=15,26=3/3(-5);
 2/9=110/2;
 6/7=2,8=2,9=2,10=2,19=2,28=1/1;
 99/9=1/99;
 Leave Link    1 at Wed Jun 29 02:02:38 2022, MaxMem=  1342177280 cpu:               0.6 elap:               0.0
 (Enter /home/mkliu/g16/l101.exe)
 -----
 force
 -----
 Symbolic Z-matrix:
 Charge =  0 Multiplicity = 1
 C                     8.43297   18.66302   10.78547 
 C                     12.56527   19.99604   8.88009 
 C                     8.23265   27.09949   10.57246 
 C                     12.4757   25.72799   8.90086 
 C                     8.03254   19.17072   9.41468 
 C                     12.04941   19.51812   10.2019 
 C                     7.96414   26.79275   9.12172 
 C                     11.85648   26.12457   10.20621 
 C                     8.98142   19.26182   8.36378 
 C                     12.30418   20.17102   11.38028 
 C                     12.10344   25.45975   11.37644 
 C                     8.96299   26.57633   8.15076 
 C                     10.36841   19.09314   8.66154 
 C                     10.29466   26.62803   8.59592 
 C                     10.80907   18.87891   10.02236 
 C                     10.60505   26.72267   10.00901 
 C                     9.89543   18.80261   11.04596 
 C                     9.61981   26.71185   10.99077 
 C                     10.16784   19.45386   12.2527 
 C                     9.87733   26.02397   12.18306 
 C                     8.90355   19.86031   12.93809 
 C                     8.75014   25.58329   13.07087 
 C                     7.87468   19.52704   11.8843 
 C                     7.43024   25.56312   12.34795 
 C                     6.74974   20.20935   11.74465 
 C                     7.19074   26.24344   11.23681 
 C                     5.94941   20.1841   10.4765 
 C                     6.07337   25.89577   10.28464 
 C                     6.78621   19.79401   9.28771 
 C                     6.71157   26.22867   8.97519 
 C                     6.43676   20.37456   8.0801 
 C                     6.38495   25.56556   7.80912 
 C                     7.34657   20.41952   7.01823 
 C                     7.32529   25.431    6.79119 
 C                     8.67251   19.96377   7.15818 
 C                     8.67681   25.82598   6.96714 
 C                     9.70613   20.6201   6.3943 
 C                     9.72622   25.10592   6.31593 
 C                     11.05015   20.59294   6.87627 
 C                     12.69046   22.18227   7.78118 
 C                     12.70766   23.5794   7.76853 
 C                     11.01886   25.13133   6.83888 
 C                     11.35699   19.77352   7.98568 
 C                     12.89337   21.46401   8.9508 
 C                     12.86538   24.2765   8.94802 
 C                     11.30227   25.92501   7.95565 
 C                     13.11534   22.16396   10.14384 
 C                     13.08699   23.5669   10.14494 
 C                     13.15503   21.4034   11.45732 
 C                     13.06442   24.31504   11.46483 
 C                     12.44819   22.17281   12.53838 
 C                     12.4176   23.49555   12.54393 
 C                     11.35087   20.13699   12.4128 
 C                     11.11264   25.4118   12.36331 
 C                     11.456    21.33448   13.2989 
 C                     11.37325   24.26339   13.30144 
 C                     8.91662   21.34741   13.2194 
 C                     8.91548   24.11919   13.37757 
 C                     7.71256   22.05001   13.09837 
 C                     7.72522   23.43008   13.19402 
 C                     6.45208   21.42702   12.56687 
 C                     6.63054   24.34626   12.71305 
 C                     5.88727   22.33855   11.51003 
 C                     5.99035   23.71916   11.50519 
 C                     5.60001   21.64492   10.34461 
 C                     5.76212   24.41326   10.31296 
 C                     5.39206   22.31309   9.14916 
 C                     5.45549   23.714    9.13143 
 C                     5.37955   21.45337   7.9115 
 C                     5.3809    24.44516   7.80004 
 C                     5.91163   22.21992   6.73562 
 C                     5.9178    23.58511   6.68487 
 C                     6.99178   21.51015   6.15757 
 C                     6.98825   24.25487   6.02523 
 C                     7.99428   22.16848   5.46606 
 C                     7.97803   23.57451   5.36084 
 C                     9.35092   21.71713   5.57428 
 C                     9.37974   24.10495   5.22465 
 C                     11.86516   21.72024   6.68155 
 C                     12.06805   24.10334   6.49849 
 C                     10.18596   22.84197   5.40454 
 C                     11.4305   22.8489   5.97465 
 C                     10.12179   22.04453   13.39252 
 C                     10.12084   23.4436   13.45273 
 Cl                    4.5721    26.83117   10.62431 
 Cl                    3.68559   24.98421   7.53002 
 Cl                    13.2858   24.80842   5.37425 
 Cl                    13.88734   26.74381   8.43986 
 Cl                    14.74151   24.82257   11.88922 
 Cl                    14.87443   21.0536   11.8745 
 Cl                    14.01536   19.08212   8.31647 
 Cl                    3.73168   20.78722   7.63755 
 Cl                    4.49176   19.13512   10.61153 
 Cl                    5.39688   24.67551   13.98227 
 Cl                    7.87652   16.94224   10.94047 
 Cl                    5.2857    21.10972   13.90039 
 Cl                    8.604     18.97271   14.4787 
 Cl                    12.02807   20.93852   14.96411 
 Cl                    11.95612   24.81605   14.91604 
 Cl                    8.68649   26.58334   14.5696 
 Cl                    7.97568   28.86274   10.92109 
 Cl                    9.66386   24.8935   3.62092 
 
 ITRead=  0  0  0  0  0  0  0  0  0  0  0  0  0  0  0  0  0  0  0  0
 ITRead=  0  0  0  0  0  0  0  0  0  0  0  0  0  0  0  0  0  0  0  0
 ITRead=  0  0  0  0  0  0  0  0  0  0  0  0  0  0  0  0  0  0  0  0
 ITRead=  0  0  0  0  0  0  0  0  0  0  0  0  0  0  0  0  0  0  0  0
 ITRead=  0  0  0  0  0  0  0  0  0  0  0  0  0  0  0  0  0  0  0  0
 ITRead=  0  0
 MicOpt= -1 -1 -1 -1 -1 -1 -1 -1 -1 -1 -1 -1 -1 -1 -1 -1 -1 -1 -1 -1
 MicOpt= -1 -1 -1 -1 -1 -1 -1 -1 -1 -1 -1 -1 -1 -1 -1 -1 -1 -1 -1 -1
 MicOpt= -1 -1 -1 -1 -1 -1 -1 -1 -1 -1 -1 -1 -1 -1 -1 -1 -1 -1 -1 -1
 MicOpt= -1 -1 -1 -1 -1 -1 -1 -1 -1 -1 -1 -1 -1 -1 -1 -1 -1 -1 -1 -1
 MicOpt= -1 -1 -1 -1 -1 -1 -1 -1 -1 -1 -1 -1 -1 -1 -1 -1 -1 -1 -1 -1
 MicOpt= -1 -1
 NAtoms=    102 NQM=      102 NQMF=       0 NMMI=      0 NMMIF=      0
                NMic=       0 NMicF=      0.
                    Isotopes and Nuclear Properties:
 (Nuclear quadrupole moments (NQMom) in fm**2, nuclear magnetic moments (NMagM)
  in nuclear magnetons)

  Atom         1           2           3           4           5           6           7           8           9          10
 IAtWgt=          12          12          12          12          12          12          12          12          12          12
 AtmWgt=  12.0000000  12.0000000  12.0000000  12.0000000  12.0000000  12.0000000  12.0000000  12.0000000  12.0000000  12.0000000
 NucSpn=           0           0           0           0           0           0           0           0           0           0
 AtZEff=  -0.0000000  -0.0000000  -0.0000000  -0.0000000  -0.0000000  -0.0000000  -0.0000000  -0.0000000  -0.0000000  -0.0000000
 NQMom=    0.0000000   0.0000000   0.0000000   0.0000000   0.0000000   0.0000000   0.0000000   0.0000000   0.0000000   0.0000000
 NMagM=    0.0000000   0.0000000   0.0000000   0.0000000   0.0000000   0.0000000   0.0000000   0.0000000   0.0000000   0.0000000
 AtZNuc=   6.0000000   6.0000000   6.0000000   6.0000000   6.0000000   6.0000000   6.0000000   6.0000000   6.0000000   6.0000000

  Atom        11          12          13          14          15          16          17          18          19          20
 IAtWgt=          12          12          12          12          12          12          12          12          12          12
 AtmWgt=  12.0000000  12.0000000  12.0000000  12.0000000  12.0000000  12.0000000  12.0000000  12.0000000  12.0000000  12.0000000
 NucSpn=           0           0           0           0           0           0           0           0           0           0
 AtZEff=  -0.0000000  -0.0000000  -0.0000000  -0.0000000  -0.0000000  -0.0000000  -0.0000000  -0.0000000  -0.0000000  -0.0000000
 NQMom=    0.0000000   0.0000000   0.0000000   0.0000000   0.0000000   0.0000000   0.0000000   0.0000000   0.0000000   0.0000000
 NMagM=    0.0000000   0.0000000   0.0000000   0.0000000   0.0000000   0.0000000   0.0000000   0.0000000   0.0000000   0.0000000
 AtZNuc=   6.0000000   6.0000000   6.0000000   6.0000000   6.0000000   6.0000000   6.0000000   6.0000000   6.0000000   6.0000000

  Atom        21          22          23          24          25          26          27          28          29          30
 IAtWgt=          12          12          12          12          12          12          12          12          12          12
 AtmWgt=  12.0000000  12.0000000  12.0000000  12.0000000  12.0000000  12.0000000  12.0000000  12.0000000  12.0000000  12.0000000
 NucSpn=           0           0           0           0           0           0           0           0           0           0
 AtZEff=  -0.0000000  -0.0000000  -0.0000000  -0.0000000  -0.0000000  -0.0000000  -0.0000000  -0.0000000  -0.0000000  -0.0000000
 NQMom=    0.0000000   0.0000000   0.0000000   0.0000000   0.0000000   0.0000000   0.0000000   0.0000000   0.0000000   0.0000000
 NMagM=    0.0000000   0.0000000   0.0000000   0.0000000   0.0000000   0.0000000   0.0000000   0.0000000   0.0000000   0.0000000
 AtZNuc=   6.0000000   6.0000000   6.0000000   6.0000000   6.0000000   6.0000000   6.0000000   6.0000000   6.0000000   6.0000000

  Atom        31          32          33          34          35          36          37          38          39          40
 IAtWgt=          12          12          12          12          12          12          12          12          12          12
 AtmWgt=  12.0000000  12.0000000  12.0000000  12.0000000  12.0000000  12.0000000  12.0000000  12.0000000  12.0000000  12.0000000
 NucSpn=           0           0           0           0           0           0           0           0           0           0
 AtZEff=  -0.0000000  -0.0000000  -0.0000000  -0.0000000  -0.0000000  -0.0000000  -0.0000000  -0.0000000  -0.0000000  -0.0000000
 NQMom=    0.0000000   0.0000000   0.0000000   0.0000000   0.0000000   0.0000000   0.0000000   0.0000000   0.0000000   0.0000000
 NMagM=    0.0000000   0.0000000   0.0000000   0.0000000   0.0000000   0.0000000   0.0000000   0.0000000   0.0000000   0.0000000
 AtZNuc=   6.0000000   6.0000000   6.0000000   6.0000000   6.0000000   6.0000000   6.0000000   6.0000000   6.0000000   6.0000000

  Atom        41          42          43          44          45          46          47          48          49          50
 IAtWgt=          12          12          12          12          12          12          12          12          12          12
 AtmWgt=  12.0000000  12.0000000  12.0000000  12.0000000  12.0000000  12.0000000  12.0000000  12.0000000  12.0000000  12.0000000
 NucSpn=           0           0           0           0           0           0           0           0           0           0
 AtZEff=  -0.0000000  -0.0000000  -0.0000000  -0.0000000  -0.0000000  -0.0000000  -0.0000000  -0.0000000  -0.0000000  -0.0000000
 NQMom=    0.0000000   0.0000000   0.0000000   0.0000000   0.0000000   0.0000000   0.0000000   0.0000000   0.0000000   0.0000000
 NMagM=    0.0000000   0.0000000   0.0000000   0.0000000   0.0000000   0.0000000   0.0000000   0.0000000   0.0000000   0.0000000
 AtZNuc=   6.0000000   6.0000000   6.0000000   6.0000000   6.0000000   6.0000000   6.0000000   6.0000000   6.0000000   6.0000000

  Atom        51          52          53          54          55          56          57          58          59          60
 IAtWgt=          12          12          12          12          12          12          12          12          12          12
 AtmWgt=  12.0000000  12.0000000  12.0000000  12.0000000  12.0000000  12.0000000  12.0000000  12.0000000  12.0000000  12.0000000
 NucSpn=           0           0           0           0           0           0           0           0           0           0
 AtZEff=  -0.0000000  -0.0000000  -0.0000000  -0.0000000  -0.0000000  -0.0000000  -0.0000000  -0.0000000  -0.0000000  -0.0000000
 NQMom=    0.0000000   0.0000000   0.0000000   0.0000000   0.0000000   0.0000000   0.0000000   0.0000000   0.0000000   0.0000000
 NMagM=    0.0000000   0.0000000   0.0000000   0.0000000   0.0000000   0.0000000   0.0000000   0.0000000   0.0000000   0.0000000
 AtZNuc=   6.0000000   6.0000000   6.0000000   6.0000000   6.0000000   6.0000000   6.0000000   6.0000000   6.0000000   6.0000000

  Atom        61          62          63          64          65          66          67          68          69          70
 IAtWgt=          12          12          12          12          12          12          12          12          12          12
 AtmWgt=  12.0000000  12.0000000  12.0000000  12.0000000  12.0000000  12.0000000  12.0000000  12.0000000  12.0000000  12.0000000
 NucSpn=           0           0           0           0           0           0           0           0           0           0
 AtZEff=  -0.0000000  -0.0000000  -0.0000000  -0.0000000  -0.0000000  -0.0000000  -0.0000000  -0.0000000  -0.0000000  -0.0000000
 NQMom=    0.0000000   0.0000000   0.0000000   0.0000000   0.0000000   0.0000000   0.0000000   0.0000000   0.0000000   0.0000000
 NMagM=    0.0000000   0.0000000   0.0000000   0.0000000   0.0000000   0.0000000   0.0000000   0.0000000   0.0000000   0.0000000
 AtZNuc=   6.0000000   6.0000000   6.0000000   6.0000000   6.0000000   6.0000000   6.0000000   6.0000000   6.0000000   6.0000000

  Atom        71          72          73          74          75          76          77          78          79          80
 IAtWgt=          12          12          12          12          12          12          12          12          12          12
 AtmWgt=  12.0000000  12.0000000  12.0000000  12.0000000  12.0000000  12.0000000  12.0000000  12.0000000  12.0000000  12.0000000
 NucSpn=           0           0           0           0           0           0           0           0           0           0
 AtZEff=  -0.0000000  -0.0000000  -0.0000000  -0.0000000  -0.0000000  -0.0000000  -0.0000000  -0.0000000  -0.0000000  -0.0000000
 NQMom=    0.0000000   0.0000000   0.0000000   0.0000000   0.0000000   0.0000000   0.0000000   0.0000000   0.0000000   0.0000000
 NMagM=    0.0000000   0.0000000   0.0000000   0.0000000   0.0000000   0.0000000   0.0000000   0.0000000   0.0000000   0.0000000
 AtZNuc=   6.0000000   6.0000000   6.0000000   6.0000000   6.0000000   6.0000000   6.0000000   6.0000000   6.0000000   6.0000000

  Atom        81          82          83          84          85          86          87          88          89          90
 IAtWgt=          12          12          12          12          35          35          35          35          35          35
 AtmWgt=  12.0000000  12.0000000  12.0000000  12.0000000  34.9688527  34.9688527  34.9688527  34.9688527  34.9688527  34.9688527
 NucSpn=           0           0           0           0           3           3           3           3           3           3
 AtZEff=  -0.0000000  -0.0000000  -0.0000000  -0.0000000  -0.0000000  -0.0000000  -0.0000000  -0.0000000  -0.0000000  -0.0000000
 NQMom=    0.0000000   0.0000000   0.0000000   0.0000000  -8.1650000  -8.1650000  -8.1650000  -8.1650000  -8.1650000  -8.1650000
 NMagM=    0.0000000   0.0000000   0.0000000   0.0000000   0.8218740   0.8218740   0.8218740   0.8218740   0.8218740   0.8218740
 AtZNuc=   6.0000000   6.0000000   6.0000000   6.0000000  17.0000000  17.0000000  17.0000000  17.0000000  17.0000000  17.0000000

  Atom        91          92          93          94          95          96          97          98          99         100
 IAtWgt=          35          35          35          35          35          35          35          35          35          35
 AtmWgt=  34.9688527  34.9688527  34.9688527  34.9688527  34.9688527  34.9688527  34.9688527  34.9688527  34.9688527  34.9688527
 NucSpn=           3           3           3           3           3           3           3           3           3           3
 AtZEff=  -0.0000000  -0.0000000  -0.0000000  -0.0000000  -0.0000000  -0.0000000  -0.0000000  -0.0000000  -0.0000000  -0.0000000
 NQMom=   -8.1650000  -8.1650000  -8.1650000  -8.1650000  -8.1650000  -8.1650000  -8.1650000  -8.1650000  -8.1650000  -8.1650000
 NMagM=    0.8218740   0.8218740   0.8218740   0.8218740   0.8218740   0.8218740   0.8218740   0.8218740   0.8218740   0.8218740
 AtZNuc=  17.0000000  17.0000000  17.0000000  17.0000000  17.0000000  17.0000000  17.0000000  17.0000000  17.0000000  17.0000000

  Atom       101         102
 IAtWgt=          35          35
 AtmWgt=  34.9688527  34.9688527
 NucSpn=           3           3
 AtZEff=  -0.0000000  -0.0000000
 NQMom=   -8.1650000  -8.1650000
 NMagM=    0.8218740   0.8218740
 AtZNuc=  17.0000000  17.0000000
 Leave Link  101 at Wed Jun 29 02:02:38 2022, MaxMem=  1342177280 cpu:               6.8 elap:               0.3
 (Enter /home/mkliu/g16/l103.exe)

 GradGradGradGradGradGradGradGradGradGradGradGradGradGradGradGradGradGrad
 Berny optimization.
 Initialization pass.
                           ----------------------------
                           !    Initial Parameters    !
                           ! (Angstroms and Degrees)  !
 --------------------------                            --------------------------
 ! Name  Definition              Value          Derivative Info.                !
 --------------------------------------------------------------------------------
 ! R1    R(1,5)                  1.5156         estimate D2E/DX2                !
 ! R2    R(1,17)                 1.492          estimate D2E/DX2                !
 ! R3    R(1,23)                 1.5052         estimate D2E/DX2                !
 ! R4    R(1,95)                 1.8151         estimate D2E/DX2                !
 ! R5    R(2,6)                  1.4972         estimate D2E/DX2                !
 ! R6    R(2,43)                 1.5197         estimate D2E/DX2                !
 ! R7    R(2,44)                 1.5058         estimate D2E/DX2                !
 ! R8    R(2,91)                 1.8043         estimate D2E/DX2                !
 ! R9    R(3,7)                  1.5069         estimate D2E/DX2                !
 ! R10   R(3,18)                 1.4998         estimate D2E/DX2                !
 ! R11   R(3,26)                 1.5032         estimate D2E/DX2                !
 ! R12   R(3,101)                1.8157         estimate D2E/DX2                !
 ! R13   R(4,8)                  1.4982         estimate D2E/DX2                !
 ! R14   R(4,45)                 1.5036         estimate D2E/DX2                !
 ! R15   R(4,46)                 1.5196         estimate D2E/DX2                !
 ! R16   R(4,88)                 1.7992         estimate D2E/DX2                !
 ! R17   R(5,9)                  1.4188         estimate D2E/DX2                !
 ! R18   R(5,29)                 1.3993         estimate D2E/DX2                !
 ! R19   R(6,10)                 1.371          estimate D2E/DX2                !
 ! R20   R(6,15)                 1.4069         estimate D2E/DX2                !
 ! R21   R(7,12)                 1.4097         estimate D2E/DX2                !
 ! R22   R(7,30)                 1.3815         estimate D2E/DX2                !
 ! R23   R(8,11)                 1.3684         estimate D2E/DX2                !
 ! R24   R(8,16)                 1.401          estimate D2E/DX2                !
 ! R25   R(9,13)                 1.4286         estimate D2E/DX2                !
 ! R26   R(9,35)                 1.4289         estimate D2E/DX2                !
 ! R27   R(10,49)                1.4995         estimate D2E/DX2                !
 ! R28   R(10,53)                1.4057         estimate D2E/DX2                !
 ! R29   R(11,50)                1.4972         estimate D2E/DX2                !
 ! R30   R(11,54)                1.3992         estimate D2E/DX2                !
 ! R31   R(12,14)                1.4051         estimate D2E/DX2                !
 ! R32   R(12,36)                1.4303         estimate D2E/DX2                !
 ! R33   R(13,15)                1.4463         estimate D2E/DX2                !
 ! R34   R(13,43)                1.3773         estimate D2E/DX2                !
 ! R35   R(14,16)                1.4499         estimate D2E/DX2                !
 ! R36   R(14,46)                1.3854         estimate D2E/DX2                !
 ! R37   R(15,17)                1.3742         estimate D2E/DX2                !
 ! R38   R(16,18)                1.3909         estimate D2E/DX2                !
 ! R39   R(17,19)                1.3981         estimate D2E/DX2                !
 ! R40   R(18,20)                1.4004         estimate D2E/DX2                !
 ! R41   R(19,21)                1.4944         estimate D2E/DX2                !
 ! R42   R(19,53)                1.3755         estimate D2E/DX2                !
 ! R43   R(20,22)                1.501          estimate D2E/DX2                !
 ! R44   R(20,54)                1.3904         estimate D2E/DX2                !
 ! R45   R(21,23)                1.51           estimate D2E/DX2                !
 ! R46   R(21,57)                1.5135         estimate D2E/DX2                !
 ! R47   R(21,97)                1.8031         estimate D2E/DX2                !
 ! R48   R(22,24)                1.505          estimate D2E/DX2                !
 ! R49   R(22,58)                1.505          estimate D2E/DX2                !
 ! R50   R(22,100)               1.8029         estimate D2E/DX2                !
 ! R51   R(23,25)                1.3231         estimate D2E/DX2                !
 ! R52   R(24,26)                1.3247         estimate D2E/DX2                !
 ! R53   R(24,62)                1.5012         estimate D2E/DX2                !
 ! R54   R(25,27)                1.4998         estimate D2E/DX2                !
 ! R55   R(25,61)                1.4991         estimate D2E/DX2                !
 ! R56   R(26,28)                1.5087         estimate D2E/DX2                !
 ! R57   R(27,29)                1.5052         estimate D2E/DX2                !
 ! R58   R(27,65)                1.5078         estimate D2E/DX2                !
 ! R59   R(27,93)                1.8009         estimate D2E/DX2                !
 ! R60   R(28,30)                1.4943         estimate D2E/DX2                !
 ! R61   R(28,66)                1.5151         estimate D2E/DX2                !
 ! R62   R(28,85)                1.8012         estimate D2E/DX2                !
 ! R63   R(29,31)                1.3847         estimate D2E/DX2                !
 ! R64   R(30,32)                1.3806         estimate D2E/DX2                !
 ! R65   R(31,33)                1.399          estimate D2E/DX2                !
 ! R66   R(31,69)                1.5199         estimate D2E/DX2                !
 ! R67   R(32,34)                1.3923         estimate D2E/DX2                !
 ! R68   R(32,70)                1.5045         estimate D2E/DX2                !
 ! R69   R(33,35)                1.4091         estimate D2E/DX2                !
 ! R70   R(33,73)                1.4339         estimate D2E/DX2                !
 ! R71   R(34,36)                1.419          estimate D2E/DX2                !
 ! R72   R(34,74)                1.4435         estimate D2E/DX2                !
 ! R73   R(35,37)                1.4431         estimate D2E/DX2                !
 ! R74   R(36,38)                1.4296         estimate D2E/DX2                !
 ! R75   R(37,39)                1.4281         estimate D2E/DX2                !
 ! R76   R(37,77)                1.415          estimate D2E/DX2                !
 ! R77   R(38,42)                1.3946         estimate D2E/DX2                !
 ! R78   R(38,78)                1.5208         estimate D2E/DX2                !
 ! R79   R(39,43)                1.4129         estimate D2E/DX2                !
 ! R80   R(39,79)                1.4046         estimate D2E/DX2                !
 ! R81   R(40,41)                1.3973         estimate D2E/DX2                !
 ! R82   R(40,44)                1.3875         estimate D2E/DX2                !
 ! R83   R(40,79)                1.4504         estimate D2E/DX2                !
 ! R84   R(41,45)                1.3791         estimate D2E/DX2                !
 ! R85   R(41,80)                1.5155         estimate D2E/DX2                !
 ! R86   R(42,46)                1.3991         estimate D2E/DX2                !
 ! R87   R(42,80)                1.5078         estimate D2E/DX2                !
 ! R88   R(44,47)                1.4009         estimate D2E/DX2                !
 ! R89   R(45,48)                1.409          estimate D2E/DX2                !
 ! R90   R(47,48)                1.4032         estimate D2E/DX2                !
 ! R91   R(47,49)                1.5183         estimate D2E/DX2                !
 ! R92   R(48,50)                1.5173         estimate D2E/DX2                !
 ! R93   R(49,51)                1.5034         estimate D2E/DX2                !
 ! R94   R(49,90)                1.8035         estimate D2E/DX2                !
 ! R95   R(50,52)                1.5015         estimate D2E/DX2                !
 ! R96   R(50,89)                1.8029         estimate D2E/DX2                !
 ! R97   R(51,52)                1.3231         estimate D2E/DX2                !
 ! R98   R(51,55)                1.5052         estimate D2E/DX2                !
 ! R99   R(52,56)                1.5014         estimate D2E/DX2                !
 ! R100  R(53,55)                1.4934         estimate D2E/DX2                !
 ! R101  R(54,56)                1.5056         estimate D2E/DX2                !
 ! R102  R(55,83)                1.5143         estimate D2E/DX2                !
 ! R103  R(55,98)                1.8047         estimate D2E/DX2                !
 ! R104  R(56,84)                1.5045         estimate D2E/DX2                !
 ! R105  R(56,99)                1.8034         estimate D2E/DX2                !
 ! R106  R(57,59)                1.3993         estimate D2E/DX2                !
 ! R107  R(57,83)                1.403          estimate D2E/DX2                !
 ! R108  R(58,60)                1.3875         estimate D2E/DX2                !
 ! R109  R(58,84)                1.3838         estimate D2E/DX2                !
 ! R110  R(59,60)                1.3834         estimate D2E/DX2                !
 ! R111  R(59,61)                1.5031         estimate D2E/DX2                !
 ! R112  R(60,62)                1.5063         estimate D2E/DX2                !
 ! R113  R(61,63)                1.5056         estimate D2E/DX2                !
 ! R114  R(61,96)                1.7998         estimate D2E/DX2                !
 ! R115  R(62,64)                1.504          estimate D2E/DX2                !
 ! R116  R(62,94)                1.8003         estimate D2E/DX2                !
 ! R117  R(63,64)                1.3845         estimate D2E/DX2                !
 ! R118  R(63,65)                1.3863         estimate D2E/DX2                !
 ! R119  R(64,66)                1.3983         estimate D2E/DX2                !
 ! R120  R(65,67)                1.3852         estimate D2E/DX2                !
 ! R121  R(66,68)                1.4068         estimate D2E/DX2                !
 ! R122  R(67,68)                1.4025         estimate D2E/DX2                !
 ! R123  R(67,69)                1.507          estimate D2E/DX2                !
 ! R124  R(68,70)                1.5208         estimate D2E/DX2                !
 ! R125  R(69,71)                1.5011         estimate D2E/DX2                !
 ! R126  R(69,92)                1.7984         estimate D2E/DX2                !
 ! R127  R(70,72)                1.5072         estimate D2E/DX2                !
 ! R128  R(70,86)                1.7993         estimate D2E/DX2                !
 ! R129  R(71,72)                1.3661         estimate D2E/DX2                !
 ! R130  R(71,73)                1.4159         estimate D2E/DX2                !
 ! R131  R(72,74)                1.4246         estimate D2E/DX2                !
 ! R132  R(73,75)                1.3844         estimate D2E/DX2                !
 ! R133  R(74,76)                1.3726         estimate D2E/DX2                !
 ! R134  R(75,76)                1.4101         estimate D2E/DX2                !
 ! R135  R(75,77)                1.4338         estimate D2E/DX2                !
 ! R136  R(76,78)                1.5049         estimate D2E/DX2                !
 ! R137  R(77,81)                1.4112         estimate D2E/DX2                !
 ! R138  R(78,81)                1.5091         estimate D2E/DX2                !
 ! R139  R(78,102)               1.8095         estimate D2E/DX2                !
 ! R140  R(79,82)                1.4009         estimate D2E/DX2                !
 ! R141  R(80,82)                1.5015         estimate D2E/DX2                !
 ! R142  R(80,87)                1.8011         estimate D2E/DX2                !
 ! R143  R(81,82)                1.3689         estimate D2E/DX2                !
 ! R144  R(83,84)                1.4004         estimate D2E/DX2                !
 ! A1    A(5,1,17)             112.6762         estimate D2E/DX2                !
 ! A2    A(5,1,23)             111.7142         estimate D2E/DX2                !
 ! A3    A(5,1,95)             108.2885         estimate D2E/DX2                !
 ! A4    A(17,1,23)            100.5094         estimate D2E/DX2                !
 ! A5    A(17,1,95)            111.9795         estimate D2E/DX2                !
 ! A6    A(23,1,95)            111.6007         estimate D2E/DX2                !
 ! A7    A(6,2,43)             101.4729         estimate D2E/DX2                !
 ! A8    A(6,2,44)             110.1687         estimate D2E/DX2                !
 ! A9    A(6,2,91)             113.016          estimate D2E/DX2                !
 ! A10   A(43,2,44)            110.0976         estimate D2E/DX2                !
 ! A11   A(43,2,91)            112.3943         estimate D2E/DX2                !
 ! A12   A(44,2,91)            109.4711         estimate D2E/DX2                !
 ! A13   A(7,3,18)             112.3768         estimate D2E/DX2                !
 ! A14   A(7,3,26)             100.7224         estimate D2E/DX2                !
 ! A15   A(7,3,101)            110.9354         estimate D2E/DX2                !
 ! A16   A(18,3,26)            111.7523         estimate D2E/DX2                !
 ! A17   A(18,3,101)           109.168          estimate D2E/DX2                !
 ! A18   A(26,3,101)           111.7203         estimate D2E/DX2                !
 ! A19   A(8,4,45)             109.5909         estimate D2E/DX2                !
 ! A20   A(8,4,46)             100.8639         estimate D2E/DX2                !
 ! A21   A(8,4,88)             113.4575         estimate D2E/DX2                !
 ! A22   A(45,4,46)            110.1687         estimate D2E/DX2                !
 ! A23   A(45,4,88)            110.4701         estimate D2E/DX2                !
 ! A24   A(46,4,88)            111.9183         estimate D2E/DX2                !
 ! A25   A(1,5,9)              120.9782         estimate D2E/DX2                !
 ! A26   A(1,5,29)             117.8136         estimate D2E/DX2                !
 ! A27   A(9,5,29)             119.9919         estimate D2E/DX2                !
 ! A28   A(2,6,10)             122.8707         estimate D2E/DX2                !
 ! A29   A(2,6,15)             109.641          estimate D2E/DX2                !
 ! A30   A(10,6,15)            119.3326         estimate D2E/DX2                !
 ! A31   A(3,7,12)             124.6164         estimate D2E/DX2                !
 ! A32   A(3,7,30)             110.2905         estimate D2E/DX2                !
 ! A33   A(12,7,30)            120.4425         estimate D2E/DX2                !
 ! A34   A(4,8,11)             122.8144         estimate D2E/DX2                !
 ! A35   A(4,8,16)             111.0727         estimate D2E/DX2                !
 ! A36   A(11,8,16)            119.2758         estimate D2E/DX2                !
 ! A37   A(5,9,13)             119.1664         estimate D2E/DX2                !
 ! A38   A(5,9,35)             120.7911         estimate D2E/DX2                !
 ! A39   A(13,9,35)            116.3446         estimate D2E/DX2                !
 ! A40   A(6,10,49)            122.7489         estimate D2E/DX2                !
 ! A41   A(6,10,53)            119.5873         estimate D2E/DX2                !
 ! A42   A(49,10,53)           111.5277         estimate D2E/DX2                !
 ! A43   A(8,11,50)            122.5332         estimate D2E/DX2                !
 ! A44   A(8,11,54)            119.473          estimate D2E/DX2                !
 ! A45   A(50,11,54)           112.7466         estimate D2E/DX2                !
 ! A46   A(7,12,14)            116.5942         estimate D2E/DX2                !
 ! A47   A(7,12,36)            120.5791         estimate D2E/DX2                !
 ! A48   A(14,12,36)           118.1062         estimate D2E/DX2                !
 ! A49   A(9,13,15)            120.6237         estimate D2E/DX2                !
 ! A50   A(9,13,43)            122.4287         estimate D2E/DX2                !
 ! A51   A(15,13,43)           108.4323         estimate D2E/DX2                !
 ! A52   A(12,14,16)           120.9366         estimate D2E/DX2                !
 ! A53   A(12,14,46)           121.6146         estimate D2E/DX2                !
 ! A54   A(16,14,46)           109.1384         estimate D2E/DX2                !
 ! A55   A(6,15,13)            108.7468         estimate D2E/DX2                !
 ! A56   A(6,15,17)            121.0871         estimate D2E/DX2                !
 ! A57   A(13,15,17)           120.4308         estimate D2E/DX2                !
 ! A58   A(8,16,14)            107.4907         estimate D2E/DX2                !
 ! A59   A(8,16,18)            122.0095         estimate D2E/DX2                !
 ! A60   A(14,16,18)           122.3968         estimate D2E/DX2                !
 ! A61   A(1,17,15)            121.7928         estimate D2E/DX2                !
 ! A62   A(1,17,19)            112.6603         estimate D2E/DX2                !
 ! A63   A(15,17,19)           119.1792         estimate D2E/DX2                !
 ! A64   A(3,18,16)            117.146          estimate D2E/DX2                !
 ! A65   A(3,18,20)            122.3101         estimate D2E/DX2                !
 ! A66   A(16,18,20)           118.3277         estimate D2E/DX2                !
 ! A67   A(17,19,21)           110.9602         estimate D2E/DX2                !
 ! A68   A(17,19,53)           119.9613         estimate D2E/DX2                !
 ! A69   A(21,19,53)           122.6277         estimate D2E/DX2                !
 ! A70   A(18,20,22)           120.6447         estimate D2E/DX2                !
 ! A71   A(18,20,54)           119.342          estimate D2E/DX2                !
 ! A72   A(22,20,54)           117.4682         estimate D2E/DX2                !
 ! A73   A(19,21,23)           101.323          estimate D2E/DX2                !
 ! A74   A(19,21,57)           110.1914         estimate D2E/DX2                !
 ! A75   A(19,21,97)           113.4866         estimate D2E/DX2                !
 ! A76   A(23,21,57)           110.637          estimate D2E/DX2                !
 ! A77   A(23,21,97)           111.9898         estimate D2E/DX2                !
 ! A78   A(57,21,97)           109.0445         estimate D2E/DX2                !
 ! A79   A(20,22,24)           112.2353         estimate D2E/DX2                !
 ! A80   A(20,22,58)           108.8841         estimate D2E/DX2                !
 ! A81   A(20,22,100)          110.8155         estimate D2E/DX2                !
 ! A82   A(24,22,58)           100.4391         estimate D2E/DX2                !
 ! A83   A(24,22,100)          112.0721         estimate D2E/DX2                !
 ! A84   A(58,22,100)          111.9685         estimate D2E/DX2                !
 ! A85   A(1,23,21)            112.5463         estimate D2E/DX2                !
 ! A86   A(1,23,25)            122.2987         estimate D2E/DX2                !
 ! A87   A(21,23,25)           122.6268         estimate D2E/DX2                !
 ! A88   A(22,24,26)           123.6805         estimate D2E/DX2                !
 ! A89   A(22,24,62)           111.1756         estimate D2E/DX2                !
 ! A90   A(26,24,62)           121.6001         estimate D2E/DX2                !
 ! A91   A(23,25,27)           122.2944         estimate D2E/DX2                !
 ! A92   A(23,25,61)           121.9927         estimate D2E/DX2                !
 ! A93   A(27,25,61)           111.8072         estimate D2E/DX2                !
 ! A94   A(3,26,24)            122.5375         estimate D2E/DX2                !
 ! A95   A(3,26,28)            111.4473         estimate D2E/DX2                !
 ! A96   A(24,26,28)           123.0207         estimate D2E/DX2                !
 ! A97   A(25,27,29)           112.0561         estimate D2E/DX2                !
 ! A98   A(25,27,65)           100.4459         estimate D2E/DX2                !
 ! A99   A(25,27,93)           112.2298         estimate D2E/DX2                !
 ! A100  A(29,27,65)           108.1088         estimate D2E/DX2                !
 ! A101  A(29,27,93)           110.9918         estimate D2E/DX2                !
 ! A102  A(65,27,93)           112.5391         estimate D2E/DX2                !
 ! A103  A(26,28,30)           100.6853         estimate D2E/DX2                !
 ! A104  A(26,28,66)           111.4601         estimate D2E/DX2                !
 ! A105  A(26,28,85)           112.2488         estimate D2E/DX2                !
 ! A106  A(30,28,66)           108.7908         estimate D2E/DX2                !
 ! A107  A(30,28,85)           113.9258         estimate D2E/DX2                !
 ! A108  A(66,28,85)           109.4756         estimate D2E/DX2                !
 ! A109  A(5,29,27)            122.6123         estimate D2E/DX2                !
 ! A110  A(5,29,31)            119.3834         estimate D2E/DX2                !
 ! A111  A(27,29,31)           116.093          estimate D2E/DX2                !
 ! A112  A(7,30,28)            112.6593         estimate D2E/DX2                !
 ! A113  A(7,30,32)            120.0125         estimate D2E/DX2                !
 ! A114  A(28,30,32)           122.1472         estimate D2E/DX2                !
 ! A115  A(29,31,33)           120.7494         estimate D2E/DX2                !
 ! A116  A(29,31,69)           124.7407         estimate D2E/DX2                !
 ! A117  A(33,31,69)           110.2027         estimate D2E/DX2                !
 ! A118  A(30,32,34)           120.2736         estimate D2E/DX2                !
 ! A119  A(30,32,70)           121.3768         estimate D2E/DX2                !
 ! A120  A(34,32,70)           111.9838         estimate D2E/DX2                !
 ! A121  A(31,33,35)           121.7465         estimate D2E/DX2                !
 ! A122  A(31,33,73)           108.6092         estimate D2E/DX2                !
 ! A123  A(35,33,73)           122.579          estimate D2E/DX2                !
 ! A124  A(32,34,36)           121.7157         estimate D2E/DX2                !
 ! A125  A(32,34,74)           107.9989         estimate D2E/DX2                !
 ! A126  A(36,34,74)           120.9971         estimate D2E/DX2                !
 ! A127  A(9,35,33)            116.4967         estimate D2E/DX2                !
 ! A128  A(9,35,37)            121.0106         estimate D2E/DX2                !
 ! A129  A(33,35,37)           118.3144         estimate D2E/DX2                !
 ! A130  A(12,36,34)           116.0524         estimate D2E/DX2                !
 ! A131  A(12,36,38)           119.6235         estimate D2E/DX2                !
 ! A132  A(34,36,38)           120.1627         estimate D2E/DX2                !
 ! A133  A(35,37,39)           119.1287         estimate D2E/DX2                !
 ! A134  A(35,37,77)           118.657          estimate D2E/DX2                !
 ! A135  A(39,37,77)           116.5258         estimate D2E/DX2                !
 ! A136  A(36,38,42)           120.0249         estimate D2E/DX2                !
 ! A137  A(36,38,78)           119.415          estimate D2E/DX2                !
 ! A138  A(42,38,78)           119.4863         estimate D2E/DX2                !
 ! A139  A(37,39,43)           118.712          estimate D2E/DX2                !
 ! A140  A(37,39,79)           118.949          estimate D2E/DX2                !
 ! A141  A(43,39,79)           116.6333         estimate D2E/DX2                !
 ! A142  A(41,40,44)           121.5637         estimate D2E/DX2                !
 ! A143  A(41,40,79)           108.5812         estimate D2E/DX2                !
 ! A144  A(44,40,79)           123.877          estimate D2E/DX2                !
 ! A145  A(40,41,45)           119.9383         estimate D2E/DX2                !
 ! A146  A(40,41,80)           110.3698         estimate D2E/DX2                !
 ! A147  A(45,41,80)           126.1749         estimate D2E/DX2                !
 ! A148  A(38,42,46)           119.8279         estimate D2E/DX2                !
 ! A149  A(38,42,80)           123.2217         estimate D2E/DX2                !
 ! A150  A(46,42,80)           115.2146         estimate D2E/DX2                !
 ! A151  A(2,43,13)            110.745          estimate D2E/DX2                !
 ! A152  A(2,43,39)            123.3577         estimate D2E/DX2                !
 ! A153  A(13,43,39)           121.0584         estimate D2E/DX2                !
 ! A154  A(2,44,40)            115.671          estimate D2E/DX2                !
 ! A155  A(2,44,47)            124.1657         estimate D2E/DX2                !
 ! A156  A(40,44,47)           118.8435         estimate D2E/DX2                !
 ! A157  A(4,45,41)            115.561          estimate D2E/DX2                !
 ! A158  A(4,45,48)            123.6119         estimate D2E/DX2                !
 ! A159  A(41,45,48)           119.3366         estimate D2E/DX2                !
 ! A160  A(4,46,14)            109.8726         estimate D2E/DX2                !
 ! A161  A(4,46,42)            125.4068         estimate D2E/DX2                !
 ! A162  A(14,46,42)           120.6255         estimate D2E/DX2                !
 ! A163  A(44,47,48)           119.8021         estimate D2E/DX2                !
 ! A164  A(44,47,49)           119.3791         estimate D2E/DX2                !
 ! A165  A(48,47,49)           120.0447         estimate D2E/DX2                !
 ! A166  A(45,48,47)           120.3999         estimate D2E/DX2                !
 ! A167  A(45,48,50)           119.2278         estimate D2E/DX2                !
 ! A168  A(47,48,50)           119.6001         estimate D2E/DX2                !
 ! A169  A(10,49,47)           110.6342         estimate D2E/DX2                !
 ! A170  A(10,49,51)           100.9977         estimate D2E/DX2                !
 ! A171  A(10,49,90)           113.168          estimate D2E/DX2                !
 ! A172  A(47,49,51)           110.6959         estimate D2E/DX2                !
 ! A173  A(47,49,90)           108.7948         estimate D2E/DX2                !
 ! A174  A(51,49,90)           112.4048         estimate D2E/DX2                !
 ! A175  A(11,50,48)           109.5828         estimate D2E/DX2                !
 ! A176  A(11,50,52)           100.5575         estimate D2E/DX2                !
 ! A177  A(11,50,89)           113.3117         estimate D2E/DX2                !
 ! A178  A(48,50,52)           111.2518         estimate D2E/DX2                !
 ! A179  A(48,50,89)           109.2526         estimate D2E/DX2                !
 ! A180  A(52,50,89)           112.6562         estimate D2E/DX2                !
 ! A181  A(49,51,52)           121.7027         estimate D2E/DX2                !
 ! A182  A(49,51,55)           112.8421         estimate D2E/DX2                !
 ! A183  A(52,51,55)           122.6458         estimate D2E/DX2                !
 ! A184  A(50,52,51)           122.1863         estimate D2E/DX2                !
 ! A185  A(50,52,56)           112.5283         estimate D2E/DX2                !
 ! A186  A(51,52,56)           121.9707         estimate D2E/DX2                !
 ! A187  A(10,53,19)           120.6519         estimate D2E/DX2                !
 ! A188  A(10,53,55)           111.6337         estimate D2E/DX2                !
 ! A189  A(19,53,55)           121.8613         estimate D2E/DX2                !
 ! A190  A(11,54,20)           121.5066         estimate D2E/DX2                !
 ! A191  A(11,54,56)           110.0616         estimate D2E/DX2                !
 ! A192  A(20,54,56)           124.7769         estimate D2E/DX2                !
 ! A193  A(51,55,53)           101.14           estimate D2E/DX2                !
 ! A194  A(51,55,83)           110.5406         estimate D2E/DX2                !
 ! A195  A(51,55,98)           112.2999         estimate D2E/DX2                !
 ! A196  A(53,55,83)           110.5272         estimate D2E/DX2                !
 ! A197  A(53,55,98)           113.1954         estimate D2E/DX2                !
 ! A198  A(83,55,98)           108.9732         estimate D2E/DX2                !
 ! A199  A(52,56,54)           101.3099         estimate D2E/DX2                !
 ! A200  A(52,56,84)           110.5554         estimate D2E/DX2                !
 ! A201  A(52,56,99)           112.5592         estimate D2E/DX2                !
 ! A202  A(54,56,84)           109.5235         estimate D2E/DX2                !
 ! A203  A(54,56,99)           112.338          estimate D2E/DX2                !
 ! A204  A(84,56,99)           110.244          estimate D2E/DX2                !
 ! A205  A(21,57,59)           118.0237         estimate D2E/DX2                !
 ! A206  A(21,57,83)           121.2357         estimate D2E/DX2                !
 ! A207  A(59,57,83)           120.0213         estimate D2E/DX2                !
 ! A208  A(22,58,60)           111.2199         estimate D2E/DX2                !
 ! A209  A(22,58,84)           125.5704         estimate D2E/DX2                !
 ! A210  A(60,58,84)           120.7911         estimate D2E/DX2                !
 ! A211  A(57,59,60)           119.1461         estimate D2E/DX2                !
 ! A212  A(57,59,61)           122.9587         estimate D2E/DX2                !
 ! A213  A(60,59,61)           116.4599         estimate D2E/DX2                !
 ! A214  A(58,60,59)           120.8253         estimate D2E/DX2                !
 ! A215  A(58,60,62)           111.3193         estimate D2E/DX2                !
 ! A216  A(59,60,62)           125.3109         estimate D2E/DX2                !
 ! A217  A(25,61,59)           111.3513         estimate D2E/DX2                !
 ! A218  A(25,61,63)           100.4428         estimate D2E/DX2                !
 ! A219  A(25,61,96)           113.0694         estimate D2E/DX2                !
 ! A220  A(59,61,63)           108.1712         estimate D2E/DX2                !
 ! A221  A(59,61,96)           110.7638         estimate D2E/DX2                !
 ! A222  A(63,61,96)           112.5629         estimate D2E/DX2                !
 ! A223  A(24,62,60)           100.5761         estimate D2E/DX2                !
 ! A224  A(24,62,64)           111.6794         estimate D2E/DX2                !
 ! A225  A(24,62,94)           112.8458         estimate D2E/DX2                !
 ! A226  A(60,62,64)           108.1894         estimate D2E/DX2                !
 ! A227  A(60,62,94)           112.5883         estimate D2E/DX2                !
 ! A228  A(64,62,94)           110.5332         estimate D2E/DX2                !
 ! A229  A(61,63,64)           125.3284         estimate D2E/DX2                !
 ! A230  A(61,63,65)           111.4022         estimate D2E/DX2                !
 ! A231  A(64,63,65)           120.76           estimate D2E/DX2                !
 ! A232  A(62,64,63)           116.4031         estimate D2E/DX2                !
 ! A233  A(62,64,66)           123.1781         estimate D2E/DX2                !
 ! A234  A(63,64,66)           119.0666         estimate D2E/DX2                !
 ! A235  A(27,65,63)           111.2967         estimate D2E/DX2                !
 ! A236  A(27,65,67)           125.2824         estimate D2E/DX2                !
 ! A237  A(63,65,67)           121.0155         estimate D2E/DX2                !
 ! A238  A(28,66,64)           117.9117         estimate D2E/DX2                !
 ! A239  A(28,66,68)           121.0283         estimate D2E/DX2                !
 ! A240  A(64,66,68)           120.3277         estimate D2E/DX2                !
 ! A241  A(65,67,68)           119.0745         estimate D2E/DX2                !
 ! A242  A(65,67,69)           115.7748         estimate D2E/DX2                !
 ! A243  A(68,67,69)           124.0453         estimate D2E/DX2                !
 ! A244  A(66,68,67)           119.7201         estimate D2E/DX2                !
 ! A245  A(66,68,70)           120.4644         estimate D2E/DX2                !
 ! A246  A(67,68,70)           119.2814         estimate D2E/DX2                !
 ! A247  A(31,69,67)           107.9424         estimate D2E/DX2                !
 ! A248  A(31,69,71)           101.7009         estimate D2E/DX2                !
 ! A249  A(31,69,92)           113.0384         estimate D2E/DX2                !
 ! A250  A(67,69,71)           110.4301         estimate D2E/DX2                !
 ! A251  A(67,69,92)           110.1223         estimate D2E/DX2                !
 ! A252  A(71,69,92)           113.2412         estimate D2E/DX2                !
 ! A253  A(32,70,68)           108.6643         estimate D2E/DX2                !
 ! A254  A(32,70,72)           101.0516         estimate D2E/DX2                !
 ! A255  A(32,70,86)           113.9913         estimate D2E/DX2                !
 ! A256  A(68,70,72)           110.8511         estimate D2E/DX2                !
 ! A257  A(68,70,86)           108.7612         estimate D2E/DX2                !
 ! A258  A(72,70,86)           113.3004         estimate D2E/DX2                !
 ! A259  A(69,71,72)           122.7512         estimate D2E/DX2                !
 ! A260  A(69,71,73)           109.5254         estimate D2E/DX2                !
 ! A261  A(72,71,73)           118.8385         estimate D2E/DX2                !
 ! A262  A(70,72,71)           122.7618         estimate D2E/DX2                !
 ! A263  A(70,72,74)           109.9975         estimate D2E/DX2                !
 ! A264  A(71,72,74)           119.3669         estimate D2E/DX2                !
 ! A265  A(33,73,71)           108.9657         estimate D2E/DX2                !
 ! A266  A(33,73,75)           118.8377         estimate D2E/DX2                !
 ! A267  A(71,73,75)           121.1969         estimate D2E/DX2                !
 ! A268  A(34,74,72)           108.2291         estimate D2E/DX2                !
 ! A269  A(34,74,76)           119.4956         estimate D2E/DX2                !
 ! A270  A(72,74,76)           122.2028         estimate D2E/DX2                !
 ! A271  A(73,75,76)           120.2055         estimate D2E/DX2                !
 ! A272  A(73,75,77)           119.8516         estimate D2E/DX2                !
 ! A273  A(76,75,77)           109.2945         estimate D2E/DX2                !
 ! A274  A(74,76,75)           117.8046         estimate D2E/DX2                !
 ! A275  A(74,76,78)           122.735          estimate D2E/DX2                !
 ! A276  A(75,76,78)           110.3336         estimate D2E/DX2                !
 ! A277  A(37,77,75)           121.69           estimate D2E/DX2                !
 ! A278  A(37,77,81)           122.6269         estimate D2E/DX2                !
 ! A279  A(75,77,81)           107.4507         estimate D2E/DX2                !
 ! A280  A(38,78,76)           112.2878         estimate D2E/DX2                !
 ! A281  A(38,78,81)           110.0951         estimate D2E/DX2                !
 ! A282  A(38,78,102)          108.2616         estimate D2E/DX2                !
 ! A283  A(76,78,81)           101.0593         estimate D2E/DX2                !
 ! A284  A(76,78,102)          112.3368         estimate D2E/DX2                !
 ! A285  A(81,78,102)          112.7345         estimate D2E/DX2                !
 ! A286  A(39,79,40)           118.7314         estimate D2E/DX2                !
 ! A287  A(39,79,82)           122.447          estimate D2E/DX2                !
 ! A288  A(40,79,82)           107.6059         estimate D2E/DX2                !
 ! A289  A(41,80,42)           109.8898         estimate D2E/DX2                !
 ! A290  A(41,80,82)           100.53           estimate D2E/DX2                !
 ! A291  A(41,80,87)           111.9065         estimate D2E/DX2                !
 ! A292  A(42,80,82)           110.6654         estimate D2E/DX2                !
 ! A293  A(42,80,87)           110.1501         estimate D2E/DX2                !
 ! A294  A(82,80,87)           113.3514         estimate D2E/DX2                !
 ! A295  A(77,81,78)           111.4265         estimate D2E/DX2                !
 ! A296  A(77,81,82)           119.4664         estimate D2E/DX2                !
 ! A297  A(78,81,82)           122.0798         estimate D2E/DX2                !
 ! A298  A(79,82,80)           111.4267         estimate D2E/DX2                !
 ! A299  A(79,82,81)           119.2195         estimate D2E/DX2                !
 ! A300  A(80,82,81)           122.3809         estimate D2E/DX2                !
 ! A301  A(55,83,57)           121.0798         estimate D2E/DX2                !
 ! A302  A(55,83,84)           118.1462         estimate D2E/DX2                !
 ! A303  A(57,83,84)           120.076          estimate D2E/DX2                !
 ! A304  A(56,84,58)           116.9753         estimate D2E/DX2                !
 ! A305  A(56,84,83)           122.6503         estimate D2E/DX2                !
 ! A306  A(58,84,83)           119.0788         estimate D2E/DX2                !
 ! D1    D(17,1,5,9)            22.54           estimate D2E/DX2                !
 ! D2    D(17,1,5,29)         -144.8566         estimate D2E/DX2                !
 ! D3    D(23,1,5,9)           134.8221         estimate D2E/DX2                !
 ! D4    D(23,1,5,29)          -32.5744         estimate D2E/DX2                !
 ! D5    D(95,1,5,9)          -101.8829         estimate D2E/DX2                !
 ! D6    D(95,1,5,29)           90.7205         estimate D2E/DX2                !
 ! D7    D(5,1,17,15)          -23.4005         estimate D2E/DX2                !
 ! D8    D(5,1,17,19)          128.2872         estimate D2E/DX2                !
 ! D9    D(23,1,17,15)        -142.4342         estimate D2E/DX2                !
 ! D10   D(23,1,17,19)           9.2535         estimate D2E/DX2                !
 ! D11   D(95,1,17,15)          98.9694         estimate D2E/DX2                !
 ! D12   D(95,1,17,19)        -109.3429         estimate D2E/DX2                !
 ! D13   D(5,1,23,21)         -133.9405         estimate D2E/DX2                !
 ! D14   D(5,1,23,25)           28.4394         estimate D2E/DX2                !
 ! D15   D(17,1,23,21)         -14.2097         estimate D2E/DX2                !
 ! D16   D(17,1,23,25)         148.1701         estimate D2E/DX2                !
 ! D17   D(95,1,23,21)         104.6628         estimate D2E/DX2                !
 ! D18   D(95,1,23,25)         -92.9573         estimate D2E/DX2                !
 ! D19   D(43,2,6,10)         -138.383          estimate D2E/DX2                !
 ! D20   D(43,2,6,15)            9.8195         estimate D2E/DX2                !
 ! D21   D(44,2,6,10)          -21.7625         estimate D2E/DX2                !
 ! D22   D(44,2,6,15)          126.44           estimate D2E/DX2                !
 ! D23   D(91,2,6,10)          101.0473         estimate D2E/DX2                !
 ! D24   D(91,2,6,15)         -110.7502         estimate D2E/DX2                !
 ! D25   D(6,2,43,13)           -7.493          estimate D2E/DX2                !
 ! D26   D(6,2,43,39)          147.9905         estimate D2E/DX2                !
 ! D27   D(44,2,43,13)        -124.1654         estimate D2E/DX2                !
 ! D28   D(44,2,43,39)          31.3181         estimate D2E/DX2                !
 ! D29   D(91,2,43,13)         113.5133         estimate D2E/DX2                !
 ! D30   D(91,2,43,39)         -91.0032         estimate D2E/DX2                !
 ! D31   D(6,2,44,40)         -147.0209         estimate D2E/DX2                !
 ! D32   D(6,2,44,47)           19.6637         estimate D2E/DX2                !
 ! D33   D(43,2,44,40)         -35.9185         estimate D2E/DX2                !
 ! D34   D(43,2,44,47)         130.7661         estimate D2E/DX2                !
 ! D35   D(91,2,44,40)          88.1133         estimate D2E/DX2                !
 ! D36   D(91,2,44,47)        -105.2021         estimate D2E/DX2                !
 ! D37   D(18,3,7,12)          -19.0874         estimate D2E/DX2                !
 ! D38   D(18,3,7,30)          136.6406         estimate D2E/DX2                !
 ! D39   D(26,3,7,12)         -138.1557         estimate D2E/DX2                !
 ! D40   D(26,3,7,30)           17.5723         estimate D2E/DX2                !
 ! D41   D(101,3,7,12)         103.4383         estimate D2E/DX2                !
 ! D42   D(101,3,7,30)        -100.8337         estimate D2E/DX2                !
 ! D43   D(7,3,18,16)           28.1651         estimate D2E/DX2                !
 ! D44   D(7,3,18,20)         -134.6217         estimate D2E/DX2                !
 ! D45   D(26,3,18,16)         140.5543         estimate D2E/DX2                !
 ! D46   D(26,3,18,20)         -22.2325         estimate D2E/DX2                !
 ! D47   D(101,3,18,16)        -95.3531         estimate D2E/DX2                !
 ! D48   D(101,3,18,20)        101.8601         estimate D2E/DX2                !
 ! D49   D(7,3,26,24)          140.0632         estimate D2E/DX2                !
 ! D50   D(7,3,26,28)          -20.8678         estimate D2E/DX2                !
 ! D51   D(18,3,26,24)          20.5436         estimate D2E/DX2                !
 ! D52   D(18,3,26,28)        -140.3873         estimate D2E/DX2                !
 ! D53   D(101,3,26,24)       -102.1042         estimate D2E/DX2                !
 ! D54   D(101,3,26,28)         96.9648         estimate D2E/DX2                !
 ! D55   D(45,4,8,11)           23.8242         estimate D2E/DX2                !
 ! D56   D(45,4,8,16)         -126.8703         estimate D2E/DX2                !
 ! D57   D(46,4,8,11)          139.989          estimate D2E/DX2                !
 ! D58   D(46,4,8,16)          -10.7055         estimate D2E/DX2                !
 ! D59   D(88,4,8,11)         -100.1686         estimate D2E/DX2                !
 ! D60   D(88,4,8,16)          109.1369         estimate D2E/DX2                !
 ! D61   D(8,4,45,41)          143.9332         estimate D2E/DX2                !
 ! D62   D(8,4,45,48)          -22.0061         estimate D2E/DX2                !
 ! D63   D(46,4,45,41)          33.8214         estimate D2E/DX2                !
 ! D64   D(46,4,45,48)        -132.118          estimate D2E/DX2                !
 ! D65   D(88,4,45,41)         -90.344          estimate D2E/DX2                !
 ! D66   D(88,4,45,48)         103.7166         estimate D2E/DX2                !
 ! D67   D(8,4,46,14)           12.522          estimate D2E/DX2                !
 ! D68   D(8,4,46,42)         -144.6287         estimate D2E/DX2                !
 ! D69   D(45,4,46,14)         128.2575         estimate D2E/DX2                !
 ! D70   D(45,4,46,42)         -28.8932         estimate D2E/DX2                !
 ! D71   D(88,4,46,14)        -108.4177         estimate D2E/DX2                !
 ! D72   D(88,4,46,42)          94.4316         estimate D2E/DX2                !
 ! D73   D(1,5,9,13)           -10.794          estimate D2E/DX2                !
 ! D74   D(1,5,9,35)          -168.3391         estimate D2E/DX2                !
 ! D75   D(29,5,9,13)          156.3306         estimate D2E/DX2                !
 ! D76   D(29,5,9,35)           -1.2145         estimate D2E/DX2                !
 ! D77   D(1,5,29,27)           10.6891         estimate D2E/DX2                !
 ! D78   D(1,5,29,31)          174.3318         estimate D2E/DX2                !
 ! D79   D(9,5,29,27)         -156.8366         estimate D2E/DX2                !
 ! D80   D(9,5,29,31)            6.8061         estimate D2E/DX2                !
 ! D81   D(2,6,10,49)           -1.7362         estimate D2E/DX2                !
 ! D82   D(2,6,10,53)          148.3665         estimate D2E/DX2                !
 ! D83   D(15,6,10,49)        -147.0387         estimate D2E/DX2                !
 ! D84   D(15,6,10,53)           3.0639         estimate D2E/DX2                !
 ! D85   D(2,6,15,13)           -8.9618         estimate D2E/DX2                !
 ! D86   D(2,6,15,17)         -154.9787         estimate D2E/DX2                !
 ! D87   D(10,6,15,13)         140.5313         estimate D2E/DX2                !
 ! D88   D(10,6,15,17)          -5.4856         estimate D2E/DX2                !
 ! D89   D(3,7,12,14)            1.3669         estimate D2E/DX2                !
 ! D90   D(3,7,12,36)          156.5675         estimate D2E/DX2                !
 ! D91   D(30,7,12,14)        -152.068          estimate D2E/DX2                !
 ! D92   D(30,7,12,36)           3.1326         estimate D2E/DX2                !
 ! D93   D(3,7,30,28)           -8.6089         estimate D2E/DX2                !
 ! D94   D(3,7,30,32)         -163.7081         estimate D2E/DX2                !
 ! D95   D(12,7,30,28)         148.2875         estimate D2E/DX2                !
 ! D96   D(12,7,30,32)          -6.8118         estimate D2E/DX2                !
 ! D97   D(4,8,11,50)            2.8774         estimate D2E/DX2                !
 ! D98   D(4,8,11,54)         -149.6584         estimate D2E/DX2                !
 ! D99   D(16,8,11,50)         151.3026         estimate D2E/DX2                !
 ! D100  D(16,8,11,54)          -1.2331         estimate D2E/DX2                !
 ! D101  D(4,8,16,14)            5.3982         estimate D2E/DX2                !
 ! D102  D(4,8,16,18)          154.6538         estimate D2E/DX2                !
 ! D103  D(11,8,16,14)        -146.4638         estimate D2E/DX2                !
 ! D104  D(11,8,16,18)           2.7917         estimate D2E/DX2                !
 ! D105  D(5,9,13,15)           -2.163          estimate D2E/DX2                !
 ! D106  D(5,9,13,43)         -146.3953         estimate D2E/DX2                !
 ! D107  D(35,9,13,15)         156.3591         estimate D2E/DX2                !
 ! D108  D(35,9,13,43)          12.1268         estimate D2E/DX2                !
 ! D109  D(5,9,35,33)           -6.8077         estimate D2E/DX2                !
 ! D110  D(5,9,35,37)          149.8306         estimate D2E/DX2                !
 ! D111  D(13,9,35,33)        -164.9574         estimate D2E/DX2                !
 ! D112  D(13,9,35,37)          -8.3192         estimate D2E/DX2                !
 ! D113  D(6,10,49,47)          27.1335         estimate D2E/DX2                !
 ! D114  D(6,10,49,51)         144.3837         estimate D2E/DX2                !
 ! D115  D(6,10,49,90)         -95.2516         estimate D2E/DX2                !
 ! D116  D(53,10,49,47)       -125.0943         estimate D2E/DX2                !
 ! D117  D(53,10,49,51)         -7.8441         estimate D2E/DX2                !
 ! D118  D(53,10,49,90)        112.5206         estimate D2E/DX2                !
 ! D119  D(6,10,53,19)           0.1122         estimate D2E/DX2                !
 ! D120  D(6,10,53,55)        -153.413          estimate D2E/DX2                !
 ! D121  D(49,10,53,19)        153.3263         estimate D2E/DX2                !
 ! D122  D(49,10,53,55)         -0.1988         estimate D2E/DX2                !
 ! D123  D(8,11,50,48)         -30.8508         estimate D2E/DX2                !
 ! D124  D(8,11,50,52)        -148.0863         estimate D2E/DX2                !
 ! D125  D(8,11,50,89)          91.4511         estimate D2E/DX2                !
 ! D126  D(54,11,50,48)        123.3402         estimate D2E/DX2                !
 ! D127  D(54,11,50,52)          6.1047         estimate D2E/DX2                !
 ! D128  D(54,11,50,89)       -114.3579         estimate D2E/DX2                !
 ! D129  D(8,11,54,20)           0.0882         estimate D2E/DX2                !
 ! D130  D(8,11,54,56)         159.4893         estimate D2E/DX2                !
 ! D131  D(50,11,54,20)       -154.9752         estimate D2E/DX2                !
 ! D132  D(50,11,54,56)          4.4259         estimate D2E/DX2                !
 ! D133  D(7,12,14,16)           7.8657         estimate D2E/DX2                !
 ! D134  D(7,12,14,46)         152.7284         estimate D2E/DX2                !
 ! D135  D(36,12,14,16)       -147.968          estimate D2E/DX2                !
 ! D136  D(36,12,14,46)         -3.1054         estimate D2E/DX2                !
 ! D137  D(7,12,36,34)           5.3027         estimate D2E/DX2                !
 ! D138  D(7,12,36,38)        -151.8227         estimate D2E/DX2                !
 ! D139  D(14,12,36,34)        160.139          estimate D2E/DX2                !
 ! D140  D(14,12,36,38)          3.0136         estimate D2E/DX2                !
 ! D141  D(9,13,15,6)         -144.7181         estimate D2E/DX2                !
 ! D142  D(9,13,15,17)           1.5609         estimate D2E/DX2                !
 ! D143  D(43,13,15,6)           3.9476         estimate D2E/DX2                !
 ! D144  D(43,13,15,17)        150.2265         estimate D2E/DX2                !
 ! D145  D(9,13,43,2)          150.5555         estimate D2E/DX2                !
 ! D146  D(9,13,43,39)          -5.5787         estimate D2E/DX2                !
 ! D147  D(15,13,43,2)           2.5731         estimate D2E/DX2                !
 ! D148  D(15,13,43,39)       -153.5611         estimate D2E/DX2                !
 ! D149  D(12,14,16,8)         151.802          estimate D2E/DX2                !
 ! D150  D(12,14,16,18)          2.692          estimate D2E/DX2                !
 ! D151  D(46,14,16,8)           3.0537         estimate D2E/DX2                !
 ! D152  D(46,14,16,18)       -146.0563         estimate D2E/DX2                !
 ! D153  D(12,14,46,4)        -158.6605         estimate D2E/DX2                !
 ! D154  D(12,14,46,42)         -0.2403         estimate D2E/DX2                !
 ! D155  D(16,14,46,4)         -10.1633         estimate D2E/DX2                !
 ! D156  D(16,14,46,42)        148.2569         estimate D2E/DX2                !
 ! D157  D(6,15,17,1)          154.4889         estimate D2E/DX2                !
 ! D158  D(6,15,17,19)           4.5735         estimate D2E/DX2                !
 ! D159  D(13,15,17,1)          12.3579         estimate D2E/DX2                !
 ! D160  D(13,15,17,19)       -137.5575         estimate D2E/DX2                !
 ! D161  D(8,16,18,3)         -166.5709         estimate D2E/DX2                !
 ! D162  D(8,16,18,20)          -3.0781         estimate D2E/DX2                !
 ! D163  D(14,16,18,3)         -21.8423         estimate D2E/DX2                !
 ! D164  D(14,16,18,20)        141.6505         estimate D2E/DX2                !
 ! D165  D(1,17,19,21)          -1.2849         estimate D2E/DX2                !
 ! D166  D(1,17,19,53)        -153.8165         estimate D2E/DX2                !
 ! D167  D(15,17,19,21)        151.2177         estimate D2E/DX2                !
 ! D168  D(15,17,19,53)         -1.3138         estimate D2E/DX2                !
 ! D169  D(3,18,20,22)           2.9879         estimate D2E/DX2                !
 ! D170  D(3,18,20,54)         164.4423         estimate D2E/DX2                !
 ! D171  D(16,18,20,22)       -159.6052         estimate D2E/DX2                !
 ! D172  D(16,18,20,54)          1.8492         estimate D2E/DX2                !
 ! D173  D(17,19,21,23)         -7.3239         estimate D2E/DX2                !
 ! D174  D(17,19,21,57)       -124.4929         estimate D2E/DX2                !
 ! D175  D(17,19,21,97)        112.8998         estimate D2E/DX2                !
 ! D176  D(53,19,21,23)        144.3494         estimate D2E/DX2                !
 ! D177  D(53,19,21,57)         27.1804         estimate D2E/DX2                !
 ! D178  D(53,19,21,97)        -95.4269         estimate D2E/DX2                !
 ! D179  D(17,19,53,10)         -1.0244         estimate D2E/DX2                !
 ! D180  D(17,19,53,55)        149.7718         estimate D2E/DX2                !
 ! D181  D(21,19,53,10)       -150.264          estimate D2E/DX2                !
 ! D182  D(21,19,53,55)          0.5322         estimate D2E/DX2                !
 ! D183  D(18,20,22,24)         18.1995         estimate D2E/DX2                !
 ! D184  D(18,20,22,58)        128.4865         estimate D2E/DX2                !
 ! D185  D(18,20,22,100)      -107.9382         estimate D2E/DX2                !
 ! D186  D(54,20,22,24)       -143.5916         estimate D2E/DX2                !
 ! D187  D(54,20,22,58)        -33.3046         estimate D2E/DX2                !
 ! D188  D(54,20,22,100)        90.2707         estimate D2E/DX2                !
 ! D189  D(18,20,54,11)         -0.4038         estimate D2E/DX2                !
 ! D190  D(18,20,54,56)       -156.6791         estimate D2E/DX2                !
 ! D191  D(22,20,54,11)        161.6328         estimate D2E/DX2                !
 ! D192  D(22,20,54,56)          5.3576         estimate D2E/DX2                !
 ! D193  D(19,21,23,1)          13.6579         estimate D2E/DX2                !
 ! D194  D(19,21,23,25)       -148.6556         estimate D2E/DX2                !
 ! D195  D(57,21,23,1)         130.5015         estimate D2E/DX2                !
 ! D196  D(57,21,23,25)        -31.8119         estimate D2E/DX2                !
 ! D197  D(97,21,23,1)        -107.6202         estimate D2E/DX2                !
 ! D198  D(97,21,23,25)         90.0663         estimate D2E/DX2                !
 ! D199  D(19,21,57,59)        143.1146         estimate D2E/DX2                !
 ! D200  D(19,21,57,83)        -27.1678         estimate D2E/DX2                !
 ! D201  D(23,21,57,59)         31.8889         estimate D2E/DX2                !
 ! D202  D(23,21,57,83)       -138.3934         estimate D2E/DX2                !
 ! D203  D(97,21,57,59)        -91.704          estimate D2E/DX2                !
 ! D204  D(97,21,57,83)         98.0136         estimate D2E/DX2                !
 ! D205  D(20,22,24,26)        -20.6036         estimate D2E/DX2                !
 ! D206  D(20,22,24,62)        138.3746         estimate D2E/DX2                !
 ! D207  D(58,22,24,26)       -136.1259         estimate D2E/DX2                !
 ! D208  D(58,22,24,62)         22.8524         estimate D2E/DX2                !
 ! D209  D(100,22,24,26)       104.8496         estimate D2E/DX2                !
 ! D210  D(100,22,24,62)       -96.1721         estimate D2E/DX2                !
 ! D211  D(20,22,58,60)       -132.3876         estimate D2E/DX2                !
 ! D212  D(20,22,58,84)         29.9373         estimate D2E/DX2                !
 ! D213  D(24,22,58,60)        -14.3733         estimate D2E/DX2                !
 ! D214  D(24,22,58,84)        147.9516         estimate D2E/DX2                !
 ! D215  D(100,22,58,60)       104.7266         estimate D2E/DX2                !
 ! D216  D(100,22,58,84)       -92.9485         estimate D2E/DX2                !
 ! D217  D(1,23,25,27)          -0.5301         estimate D2E/DX2                !
 ! D218  D(1,23,25,61)        -156.4523         estimate D2E/DX2                !
 ! D219  D(21,23,25,27)        160.0827         estimate D2E/DX2                !
 ! D220  D(21,23,25,61)          4.1605         estimate D2E/DX2                !
 ! D221  D(22,24,26,3)           0.7713         estimate D2E/DX2                !
 ! D222  D(22,24,26,28)        159.5074         estimate D2E/DX2                !
 ! D223  D(62,24,26,3)        -156.1041         estimate D2E/DX2                !
 ! D224  D(62,24,26,28)          2.632          estimate D2E/DX2                !
 ! D225  D(22,24,62,60)        -22.1754         estimate D2E/DX2                !
 ! D226  D(22,24,62,64)       -136.7545         estimate D2E/DX2                !
 ! D227  D(22,24,62,94)         98.0014         estimate D2E/DX2                !
 ! D228  D(26,24,62,60)        137.3083         estimate D2E/DX2                !
 ! D229  D(26,24,62,64)         22.7292         estimate D2E/DX2                !
 ! D230  D(26,24,62,94)       -102.5149         estimate D2E/DX2                !
 ! D231  D(23,25,27,29)        -22.5414         estimate D2E/DX2                !
 ! D232  D(23,25,27,65)       -137.1057         estimate D2E/DX2                !
 ! D233  D(23,25,27,93)        103.1309         estimate D2E/DX2                !
 ! D234  D(61,25,27,29)        135.5776         estimate D2E/DX2                !
 ! D235  D(61,25,27,65)         21.0133         estimate D2E/DX2                !
 ! D236  D(61,25,27,93)        -98.7501         estimate D2E/DX2                !
 ! D237  D(23,25,61,59)         22.5598         estimate D2E/DX2                !
 ! D238  D(23,25,61,63)        136.9235         estimate D2E/DX2                !
 ! D239  D(23,25,61,96)       -102.9063         estimate D2E/DX2                !
 ! D240  D(27,25,61,59)       -135.6352         estimate D2E/DX2                !
 ! D241  D(27,25,61,63)        -21.2715         estimate D2E/DX2                !
 ! D242  D(27,25,61,96)         98.8987         estimate D2E/DX2                !
 ! D243  D(3,26,28,30)          16.2713         estimate D2E/DX2                !
 ! D244  D(3,26,28,66)         131.5099         estimate D2E/DX2                !
 ! D245  D(3,26,28,85)        -105.2689         estimate D2E/DX2                !
 ! D246  D(24,26,28,30)       -144.5518         estimate D2E/DX2                !
 ! D247  D(24,26,28,66)        -29.3132         estimate D2E/DX2                !
 ! D248  D(24,26,28,85)         93.908          estimate D2E/DX2                !
 ! D249  D(25,27,29,5)          16.918          estimate D2E/DX2                !
 ! D250  D(25,27,29,31)       -147.2246         estimate D2E/DX2                !
 ! D251  D(65,27,29,5)         126.6922         estimate D2E/DX2                !
 ! D252  D(65,27,29,31)        -37.4503         estimate D2E/DX2                !
[...]
 Alpha virt. eigenvalues --    1.58482   1.59233   1.59624   1.59957   1.60276
 Alpha virt. eigenvalues --    1.60562   1.60645   1.61485   1.61778   1.61917
 Alpha virt. eigenvalues --    1.62252   1.62527   1.62873   1.63062   1.63340
 Alpha virt. eigenvalues --    1.63379   1.63550   1.63674   1.64072   1.64229
 Alpha virt. eigenvalues --    1.64304   1.64839   1.65034   1.65541   1.65678
 Alpha virt. eigenvalues --    1.65873   1.66089   1.66248   1.66737   1.66903
 Alpha virt. eigenvalues --    1.67065   1.67304   1.67458   1.67724   1.67930
 Alpha virt. eigenvalues --    1.68124   1.68246   1.68417   1.68796   1.68878
 Alpha virt. eigenvalues --    1.69168   1.69470   1.69712   1.69988   1.70169
 Alpha virt. eigenvalues --    1.70470   1.70846   1.70903   1.71112   1.71381
 Alpha virt. eigenvalues --    1.71649   1.71813   1.71939   1.72095   1.72331
 Alpha virt. eigenvalues --    1.72368   1.72783   1.73031   1.73314   1.73512
 Alpha virt. eigenvalues --    1.73630   1.74140   1.74202   1.74470   1.74727
 Alpha virt. eigenvalues --    1.75008   1.75087   1.75357   1.75524   1.75664
 Alpha virt. eigenvalues --    1.75992   1.76111   1.76207   1.76644   1.76729
 Alpha virt. eigenvalues --    1.76961   1.76979   1.77282   1.77443   1.77779
 Alpha virt. eigenvalues --    1.78032   1.78387   1.78663   1.78908   1.79151
 Alpha virt. eigenvalues --    1.79306   1.79596   1.79717   1.80070   1.80442
 Alpha virt. eigenvalues --    1.80722   1.80783   1.80930   1.81147   1.81458
 Alpha virt. eigenvalues --    1.81578   1.81964   1.82228   1.82446   1.82570
 Alpha virt. eigenvalues --    1.82811   1.83025   1.83199   1.83474   1.83507
 Alpha virt. eigenvalues --    1.83911   1.84282   1.84641   1.84805   1.85233
 Alpha virt. eigenvalues --    1.85642   1.85814   1.86152   1.86423   1.86803
 Alpha virt. eigenvalues --    1.86916   1.87398   1.87849   1.88183   1.88451
 Alpha virt. eigenvalues --    1.88751   1.88926   1.89590   1.89821   1.90179
 Alpha virt. eigenvalues --    1.90355   1.90423   1.90734   1.91489   1.91558
 Alpha virt. eigenvalues --    1.91914   1.92409   1.92573   1.92977   1.93364
 Alpha virt. eigenvalues --    1.93407   1.93936   1.94467   1.94642   1.95088
 Alpha virt. eigenvalues --    1.95547   1.96109   1.96316   1.96848   1.97220
 Alpha virt. eigenvalues --    1.97442   1.97830   1.98140   1.98239   1.98671
 Alpha virt. eigenvalues --    1.98994   1.99215   1.99701   2.00417   2.00614
 Alpha virt. eigenvalues --    2.00890   2.01020   2.01352   2.01825   2.02035
 Alpha virt. eigenvalues --    2.02230   2.02781   2.03186   2.03386   2.03506
 Alpha virt. eigenvalues --    2.03785   2.04441   2.04554   2.05133   2.05300
 Alpha virt. eigenvalues --    2.06051   2.06435   2.06893   2.07367   2.07679
 Alpha virt. eigenvalues --    2.08049   2.08445   2.08649   2.09011   2.09377
 Alpha virt. eigenvalues --    2.09563   2.10089   2.10365   2.10469   2.10727
 Alpha virt. eigenvalues --    2.11208   2.11579   2.12034   2.12850   2.13144
 Alpha virt. eigenvalues --    2.13179   2.13372   2.14022   2.14574   2.14873
 Alpha virt. eigenvalues --    2.15147   2.15352   2.15963   2.16569   2.16935
 Alpha virt. eigenvalues --    2.17199   2.17573   2.17889   2.18452   2.18721
 Alpha virt. eigenvalues --    2.18874   2.19298   2.20039   2.20439   2.20594
 Alpha virt. eigenvalues --    2.20962   2.21215   2.21510   2.21898   2.22155
 Alpha virt. eigenvalues --    2.22593   2.22892   2.22985   2.23617   2.24272
 Alpha virt. eigenvalues --    2.24551   2.25056   2.25657   2.25763   2.26321
 Alpha virt. eigenvalues --    2.26745   2.27386   2.27462   2.27657   2.28200
 Alpha virt. eigenvalues --    2.28532   2.28950   2.29286   2.29507   2.30385
 Alpha virt. eigenvalues --    2.30738   2.31003   2.31245   2.32022   2.32557
 Alpha virt. eigenvalues --    2.32858   2.33577   2.34361   2.34716   2.35232
 Alpha virt. eigenvalues --    2.35428   2.36355   2.37245   2.37676   2.38127
 Alpha virt. eigenvalues --    2.38451   2.38625   2.39063   2.39772   2.39826
 Alpha virt. eigenvalues --    2.40589   2.41293   2.41621   2.41858   2.42172
 Alpha virt. eigenvalues --    2.42956   2.43596   2.43789   2.44405   2.44653
 Alpha virt. eigenvalues --    2.44892   2.45504   2.45955   2.46488   2.46770
 Alpha virt. eigenvalues --    2.47838   2.48025   2.48270   2.48702   2.49004
 Alpha virt. eigenvalues --    2.49433   2.50056   2.50533   2.50983   2.51386
 Alpha virt. eigenvalues --    2.51746   2.52414   2.52695   2.53153   2.53454
 Alpha virt. eigenvalues --    2.53732   2.54108   2.54515   2.54960   2.55289
 Alpha virt. eigenvalues --    2.55588   2.55680   2.56125   2.56722   2.57277
 Alpha virt. eigenvalues --    2.57462   2.57705   2.57803   2.58256   2.58597
 Alpha virt. eigenvalues --    2.58919   2.59449   2.59579   2.60130   2.60569
 Alpha virt. eigenvalues --    2.60748   2.61025   2.61395   2.61545   2.62028
 Alpha virt. eigenvalues --    2.62372   2.62921   2.63028   2.63377   2.63775
 Alpha virt. eigenvalues --    2.64170   2.64567   2.65198   2.65587   2.65988
 Alpha virt. eigenvalues --    2.66631   2.66878   2.67021   2.67336   2.67642
 Alpha virt. eigenvalues --    2.68170   2.68195   2.68602   2.69369   2.69643
 Alpha virt. eigenvalues --    2.70150   2.70498   2.70565   2.71007   2.71294
 Alpha virt. eigenvalues --    2.71657   2.71937   2.72509   2.72679   2.72910
 Alpha virt. eigenvalues --    2.73349   2.73717   2.74149   2.74302   2.74725
 Alpha virt. eigenvalues --    2.74902   2.75143   2.75631   2.75893   2.76256
 Alpha virt. eigenvalues --    2.77011   2.77089   2.77354   2.78172   2.78441
 Alpha virt. eigenvalues --    2.78494   2.79647   2.79879   2.80606   2.81138
 Alpha virt. eigenvalues --    2.81378   2.81749   2.81803   2.82384   2.83110
 Alpha virt. eigenvalues --    2.83416   2.83871   2.84034   2.84727   2.85143
 Alpha virt. eigenvalues --    2.85496   2.86063   2.86280   2.87037   2.87762
 Alpha virt. eigenvalues --    2.88328   2.88570   2.88863   2.89553   2.90089
 Alpha virt. eigenvalues --    2.90421   2.91684   2.92260   2.92531   2.92702
 Alpha virt. eigenvalues --    2.94303   2.95051   2.95402   2.96520   2.97149
 Alpha virt. eigenvalues --    2.98306   2.99080   2.99833   3.01068   3.02339
 Alpha virt. eigenvalues --    3.05247   3.05606   3.05839   3.08319   3.08717
 Alpha virt. eigenvalues --    3.09418   3.09721   3.11183   3.12207   3.13926
 Alpha virt. eigenvalues --    3.14286   3.15598   3.16444   3.17264   3.18557
 Alpha virt. eigenvalues --    3.19202   3.20674   3.22699   3.23236   3.25189
 Alpha virt. eigenvalues --    3.26902   3.28580   3.29892   3.30744   3.34745
 Alpha virt. eigenvalues --    3.35536   3.36273   3.40381   3.40687   3.42090
 Alpha virt. eigenvalues --    3.43605   3.47490   3.47771   3.49870   3.53281
 Alpha virt. eigenvalues --    4.00332   4.01719   4.02712   4.03248   4.04353
 Alpha virt. eigenvalues --    4.04661   4.05585   4.05663   4.07067   4.07790
 Alpha virt. eigenvalues --    4.07932   4.08615   4.09534   4.09925   4.10881
 Alpha virt. eigenvalues --    4.11713   4.12423   4.13068   4.13743   4.14306
 Alpha virt. eigenvalues --    4.14746   4.15864   4.16670   4.17439   4.17879
 Alpha virt. eigenvalues --    4.18447   4.19179   4.19784   4.20271   4.20681
 Alpha virt. eigenvalues --    4.21971   4.22625   4.23159   4.23657   4.24922
 Alpha virt. eigenvalues --    4.25483   4.25556   4.26098   4.26326   4.27084
 Alpha virt. eigenvalues --    4.27270   4.27437   4.27898   4.28105   4.28771
 Alpha virt. eigenvalues --    4.29470   4.29734   4.30035   4.30417   4.30829
 Alpha virt. eigenvalues --    4.33741   4.34092   4.34242   4.35410   4.35865
 Alpha virt. eigenvalues --    4.37105   4.38236   4.39201   4.39961   4.40021
 Alpha virt. eigenvalues --    4.41304   4.41556   4.42024   4.42442   4.42977
 Alpha virt. eigenvalues --    4.43954   4.45350   4.45455   4.47476   4.47927
 Alpha virt. eigenvalues --    4.48701   4.50200   4.52274   4.52678   4.53881
 Alpha virt. eigenvalues --    4.54337   4.56792   4.58578   4.60016   4.60568
 Alpha virt. eigenvalues --    4.62668   4.63099   4.65920   4.67014   4.69015
 Alpha virt. eigenvalues --    4.69745   4.74528   4.78065   4.78720   4.79683
 Alpha virt. eigenvalues --    4.81667   4.82345   4.82872   4.89126   4.93213
 Alpha virt. eigenvalues --    4.94991   4.96789   5.02508   5.03831   5.07402
 Alpha virt. eigenvalues --    5.13230   5.19987
          Condensed to atoms (all electrons):
 Mulliken charges:
               1
     1  C   -0.354001
     2  C   -0.374221
     3  C   -0.359480
     4  C   -0.392364
     5  C    0.087411
     6  C    0.087458
     7  C    0.079144
     8  C    0.084696
     9  C    0.062635
    10  C    0.129689
    11  C    0.129275
    12  C    0.062636
    13  C   -0.006465
    14  C   -0.016746
    15  C    0.031582
    16  C    0.045492
    17  C    0.100083
    18  C    0.116595
    19  C    0.126226
    20  C    0.150217
    21  C   -0.379601
    22  C   -0.384153
    23  C    0.177875
    24  C    0.181038
    25  C    0.188245
    26  C    0.181366
    27  C   -0.377327
    28  C   -0.374564
    29  C    0.152902
    30  C    0.135654
    31  C    0.081436
    32  C    0.087993
    33  C    0.008672
    34  C   -0.009229
    35  C    0.033802
    36  C    0.063057
    37  C    0.043832
    38  C    0.095443
    39  C    0.060073
    40  C    0.041380
    41  C    0.077700
    42  C    0.151683
    43  C    0.054777
    44  C    0.124838
    45  C    0.155587
    46  C    0.085586
    47  C    0.123230
    48  C    0.118948
    49  C   -0.375399
    50  C   -0.374451
    51  C    0.179856
    52  C    0.186645
    53  C    0.115183
    54  C    0.108379
    55  C   -0.374614
    56  C   -0.380191
    57  C    0.123401
    58  C    0.116154
    59  C    0.144460
    60  C    0.117241
    61  C   -0.384173
    62  C   -0.382088
    63  C    0.115684
    64  C    0.144503
    65  C    0.118482
    66  C    0.123051
    67  C    0.140542
    68  C    0.124534
    69  C   -0.386014
    70  C   -0.381069
    71  C    0.094136
    72  C    0.093881
    73  C    0.013677
    74  C    0.040353
    75  C    0.021783
    76  C    0.067235
    77  C    0.004494
    78  C   -0.358339
    79  C   -0.007293
    80  C   -0.384803
    81  C    0.091667
    82  C    0.096117
    83  C    0.125587
    84  C    0.145589
    85  Cl   0.031221
    86  Cl   0.025736
    87  Cl   0.027174
    88  Cl   0.030418
    89  Cl   0.027050
    90  Cl   0.027976
    91  Cl   0.011600
    92  Cl   0.027745
    93  Cl   0.033300
    94  Cl   0.035238
    95  Cl   0.005836
    96  Cl   0.036572
    97  Cl   0.029516
    98  Cl   0.026283
    99  Cl   0.030791
   100  Cl   0.030780
   101  Cl   0.006279
   102  Cl   0.002181
 Sum of Mulliken charges =  -0.00000
 Mulliken charges with hydrogens summed into heavy atoms:
               1
     1  C   -0.354001
     2  C   -0.374221
     3  C   -0.359480
     4  C   -0.392364
     5  C    0.087411
     6  C    0.087458
     7  C    0.079144
     8  C    0.084696
     9  C    0.062635
    10  C    0.129689
    11  C    0.129275
    12  C    0.062636
    13  C   -0.006465
    14  C   -0.016746
    15  C    0.031582
    16  C    0.045492
    17  C    0.100083
    18  C    0.116595
    19  C    0.126226
    20  C    0.150217
    21  C   -0.379601
    22  C   -0.384153
    23  C    0.177875
    24  C    0.181038
    25  C    0.188245
    26  C    0.181366
    27  C   -0.377327
    28  C   -0.374564
    29  C    0.152902
    30  C    0.135654
    31  C    0.081436
    32  C    0.087993
    33  C    0.008672
    34  C   -0.009229
    35  C    0.033802
    36  C    0.063057
    37  C    0.043832
    38  C    0.095443
    39  C    0.060073
    40  C    0.041380
    41  C    0.077700
    42  C    0.151683
    43  C    0.054777
    44  C    0.124838
    45  C    0.155587
    46  C    0.085586
    47  C    0.123230
    48  C    0.118948
    49  C   -0.375399
    50  C   -0.374451
    51  C    0.179856
    52  C    0.186645
    53  C    0.115183
    54  C    0.108379
    55  C   -0.374614
    56  C   -0.380191
    57  C    0.123401
    58  C    0.116154
    59  C    0.144460
    60  C    0.117241
    61  C   -0.384173
    62  C   -0.382088
    63  C    0.115684
    64  C    0.144503
    65  C    0.118482
    66  C    0.123051
    67  C    0.140542
    68  C    0.124534
    69  C   -0.386014
    70  C   -0.381069
    71  C    0.094136
    72  C    0.093881
    73  C    0.013677
    74  C    0.040353
    75  C    0.021783
    76  C    0.067235
    77  C    0.004494
    78  C   -0.358339
    79  C   -0.007293
    80  C   -0.384803
    81  C    0.091667
    82  C    0.096117
    83  C    0.125587
    84  C    0.145589
    85  Cl   0.031221
    86  Cl   0.025736
    87  Cl   0.027174
    88  Cl   0.030418
    89  Cl   0.027050
    90  Cl   0.027976
    91  Cl   0.011600
    92  Cl   0.027745
    93  Cl   0.033300
    94  Cl   0.035238
    95  Cl   0.005836
    96  Cl   0.036572
    97  Cl   0.029516
    98  Cl   0.026283
    99  Cl   0.030791
   100  Cl   0.030780
   101  Cl   0.006279
   102  Cl   0.002181
 Electronic spatial extent (au):  <R**2>=          76564.2360
 Charge=              0.0000 electrons
 Dipole moment (field-independent basis, Debye):
    X=             -0.4560    Y=              3.3793    Z=             -3.4900  Tot=              4.8793
 Quadrupole moment (field-independent basis, Debye-Ang):
   XX=           -733.9468   YY=           -722.6658   ZZ=           -709.3200
   XY=             -5.7737   XZ=              1.7425   YZ=             -1.5596
 Traceless Quadrupole moment (field-independent basis, Debye-Ang):
   XX=            -11.9693   YY=             -0.6882   ZZ=             12.6576
   XY=             -5.7737   XZ=              1.7425   YZ=             -1.5596
 Octapole moment (field-independent basis, Debye-Ang**2):
  XXX=            -18.2027  YYY=            -53.5854  ZZZ=            -30.9564  XYY=            -15.9359
  XXY=             -7.4667  XXZ=             17.1847  XZZ=             11.8044  YZZ=              9.5284
  YYZ=             55.9857  XYZ=             27.7707
 Hexadecapole moment (field-independent basis, Debye-Ang**3):
 XXXX=         -39439.2257 YYYY=         -36469.2736 ZZZZ=         -31201.2963 XXXY=            223.3895
 XXXZ=            -53.8556 YYYX=            -17.1325 YYYZ=             84.8287 ZZZX=            129.5948
 ZZZY=           -139.5172 XXYY=         -12597.3801 XXZZ=         -11821.3030 YYZZ=         -11233.9664
 XXYZ=            -37.8910 YYXZ=            -39.4274 ZZXY=             22.2064
 N-N= 3.013022869402D+04 E-N=-8.733455147015D+04  KE= 1.142942897114D+04
 Leave Link  601 at Wed Jun 29 03:40:29 2022, MaxMem=  1342177280 cpu:              18.5 elap:               1.0
 (Enter /home/mkliu/g16/l9999.exe)
 1\1\GINC-NODE05\FOpt\RB3LYP\6-31G(d,p)\C84Cl18\MKLIU\29-Jun-2022\0\\#P
  opt b3lyp/6-31G(d, p) empiricaldispersion=GD3\\force\\0,1\C,8.4318163
 229,18.6409250956,10.7909078879\C,12.5817010021,19.9832636531,8.874394
 8717\C,8.2305811506,27.1199523278,10.5826283095\C,12.4935496007,25.743
 76333,8.8990533352\C,8.021044153,19.1432767164,9.406335108\C,12.062264
 9665,19.4976961397,10.2058592466\C,7.958618122,26.8065259609,9.1239884
 721\C,11.869999736,26.1479527607,10.213778868\C,8.9794242169,19.237589
 8539,8.3469684173\C,12.3160371857,20.157317758,11.3902369512\C,12.1179
 89835,25.4786442005,11.3891856119\C,8.9670253765,26.6029480127,8.14147
 46735\C,10.3770793865,19.0773401857,8.6515320503\C,10.3042185126,26.65
 56728076,8.5860964379\C,10.8212252292,18.8628403992,10.0245029772\C,10
 .6215426648,26.7481816615,10.0147218585\C,9.9017936964,18.7904816438,1
 1.0516632764\C,9.6302585363,26.73724017,11.0026168866\C,10.1712544567,
 19.4439570528,12.2613718516\C,9.8849902057,26.0436433342,12.2011543182
 \C,8.9018856102,19.8451809273,12.9581036682\C,8.7459735048,25.59901879
 77,13.0901396\C,7.8630154668,19.5028773502,11.9006838099\C,7.418845933
 7,25.5783634357,12.36321837\C,6.7426341866,20.1952037006,11.752916906\
 C,7.1785036012,26.2665049485,11.2524518883\C,5.9354679981,20.166552001
 3,10.4805814069\C,6.0596965862,25.9121807358,10.2883784885\C,6.7639450
 834,19.7639621746,9.2724507803\C,6.7048426159,26.245764785,8.971781649
 6\C,6.4139418074,20.34470084,8.0570992382\C,6.3723467483,25.5854578051
 ,7.7952231886\C,7.3260998209,20.3974562177,6.9912911879\C,7.3110673056
 ,25.4453359894,6.7748437722\C,8.6614165768,19.9408108828,7.1328323749\
 C,8.6726267326,25.8497185672,6.9510295174\C,9.7073104788,20.609119478,
 6.3639733689\C,9.7278712469,25.1224699086,6.2907002985\C,11.0609334169
 ,20.5777169304,6.8490103581\C,12.7227320856,22.1801461508,7.7608260836
 \C,12.7434487407,23.578885482,7.7493349842\C,11.0297036821,25.15226793
 77,6.8180912805\C,11.3647376762,19.7518841584,7.9670683321\C,12.929160
 0498,21.4580616743,8.9343372596\C,12.9019676975,24.285216124,8.9323500
 12\C,11.3134570931,25.9576675591,7.9378907223\C,13.1533407719,22.16151
 51023,10.1379524378\C,13.1253866714,23.5741254707,10.141151671\C,13.17
 60216594,21.3953484626,11.465343358\C,13.0832043988,24.3251129957,11.4
 736691461\C,12.4723709586,22.1722174776,12.5591485507\C,12.4376093909,
 23.4974975595,12.5620648172\C,11.3600776413,20.1300203079,12.425030236
 3\C,11.1283788027,25.4269961159,12.3811184584\C,11.4693319549,21.32825
 82011,13.3221279691\C,11.3866796719,24.2697733263,13.3252698676\C,8.90
 61969594,21.3411905158,13.2683518811\C,8.905210096,24.128410461,13.427
 2263407\C,7.6970169801,22.0487655469,13.1435439932\C,7.7119779135,23.4
 376495483,13.2408853865\C,6.4391424684,21.4157093862,12.5814717738\C,6
 .6151159997,24.3562117432,12.7304423309\C,5.8478666239,22.3300403651,1
 1.5238335801\C,5.9522806066,23.7202592632,11.5230615081\C,5.5588494979
 ,21.6348182661,10.3562106604\C,5.7232745531,24.4207053093,10.327116318
 9\C,5.3488675658,22.3052795078,9.1510817569\C,5.4132690521,23.71442735
 36,9.1322639251\C,5.3575873577,21.4496887733,7.894940114\C,5.362215615
 ,24.4523691242,7.7868890688\C,5.8982998216,22.219925807,6.7120004429\C
 ,5.901001272,23.5876879349,6.6593590019\C,6.9768030122,21.5016164444,6
 .1274758984\C,6.974287613,24.2634231376,5.9960868461\C,7.9790105564,22
 .1637918986,5.4334303151\C,7.9611051479,23.5776102492,5.329421703\C,9.
 3461527007,21.712289746,5.5375520987\C,9.3770501609,24.1092038889,5.19
 44854841\C,11.8794931675,21.7122239875,6.6555888344\C,12.0769711052,24
 .1051030706,6.4742139571\C,10.1914222456,22.8340410664,5.3679011212\C,
 11.4394549926,22.8378197174,5.9441295903\C,10.1237075188,22.0449700586
 ,13.4456645795\C,10.1205586401,23.4510982493,13.5059663784\Cl,4.544283
 4818,26.9054953629,10.6166418864\Cl,3.6438135217,25.0182070565,7.45781
 0104\Cl,13.3119199815,24.7999731613,5.3006510796\Cl,13.9268608444,26.8
 097222652,8.4634749243\Cl,14.7790682808,24.8813410685,11.9390062117\Cl
 ,14.9187303177,20.9910813424,11.9112585582\Cl,14.0472922607,19.0129379
 499,8.307471491\Cl,3.677631471,20.7898371041,7.5442708931\Cl,4.4616500
 985,19.07673821,10.6625972376\Cl,5.3617134574,24.7350458009,14.0259214
 47\Cl,7.9053603902,16.8669446043,10.9719084035\Cl,5.2393734085,21.0418
 258869,13.9269285699\Cl,8.6282001256,18.8921055115,14.5124558232\Cl,12
 .0872523195,20.8823627777,15.0043540355\Cl,12.0217107843,24.845323643,
 14.9591781907\Cl,8.663923301,26.6445280718,14.6071574423\Cl,7.96525311
 95,28.9292163269,10.9242878474\Cl,9.6463538301,24.8916164276,3.5367530
 915\\Version=ES64L-G16RevA.03\State=1-A\HF=-11484.6449675\RMSD=8.378e-
 09\RMSF=1.579e-05\Dipole=0.0432633,-0.3796188,-1.8812587\Quadrupole=-9
 .7577272,5.1747329,4.5829942,-1.8552683,2.6812556,4.829706\PG=C01 [X(C
 84Cl18)]\\@


 NOTHING MAKES A PERSON MORE PRODUCTIVE THAN THE LAST MINUTE.
 Job cpu time:       1 days 14 hours 55 minutes  6.9 seconds.
 Elapsed time:       0 days  1 hours 37 minutes 25.9 seconds.
 File lengths (MBytes):  RWF=   1574 Int=      0 D2E=      0 Chk=    196 Scr=      1
 Normal termination of Gaussian 16 at Wed Jun 29 03:40:32 2022.
