 Entering Gaussian System, Link 0=g16
 Input=18_addons_C84_11_Cl22_rank_3.gjf
 Output=18_addons_C84_11_Cl22_rank_3.log
 Initial command:
 /home/mkliu/g16/l1.exe "/data/scratch/Gau-58119.inp" -scrdir="/data/scratch/"
 Entering Link 1 = /home/mkliu/g16/l1.exe PID=     58120.
  
 Copyright (c) 1988,1990,1992,1993,1995,1998,2003,2009,2016,
            Gaussian, Inc.  All Rights Reserved.
  
 This is part of the Gaussian(R) 16 program.  It is based on
 the Gaussian(R) 09 system (copyright 2009, Gaussian, Inc.),
 the Gaussian(R) 03 system (copyright 2003, Gaussian, Inc.),
 the Gaussian(R) 98 system (copyright 1998, Gaussian, Inc.),
 the Gaussian(R) 94 system (copyright 1995, Gaussian, Inc.),
 the Gaussian 92(TM) system (copyright 1992, Gaussian, Inc.),
 the Gaussian 90(TM) system (copyright 1990, Gaussian, Inc.),
 the Gaussian 88(TM) system (copyright 1988, Gaussian, Inc.),
 the Gaussian 86(TM) system (copyright 1986, Carnegie Mellon
 University), and the Gaussian 82(TM) system (copyright 1983,
 Carnegie Mellon University). Gaussian is a federally registered
 trademark of Gaussian, Inc.
  
 This software contains proprietary and confidential information,
 including trade secrets, belonging to Gaussian, Inc.
  
 This software is provided under written license and may be
 used, copied, transmitted, or stored only in accord with that
 written license.
  
 The following legend is applicable only to US Government
 contracts under FAR:
  
                    RESTRICTED RIGHTS LEGEND
  
 Use, reproduction and disclosure by the US Government is
 subject to restrictions as set forth in subparagraphs (a)
 and (c) of the Commercial Computer Software - Restricted
 Rights clause in FAR 52.227-19.
  
 Gaussian, Inc.
 340 Quinnipiac St., Bldg. 40, Wallingford CT 06492
  
  
 ---------------------------------------------------------------
 Warning -- This program may not be used in any manner that
 competes with the business of Gaussian, Inc. or will provide
 assistance to any competitor of Gaussian, Inc.  The licensee
 of this program is prohibited from giving any competitor of
 Gaussian, Inc. access to this program.  By using this program,
 the user acknowledges that Gaussian, Inc. is engaged in the
 business of creating and licensing software in the field of
 computational chemistry and represents and warrants to the
 licensee that it is not a competitor of Gaussian, Inc. and that
 it will not use this program in any manner prohibited above.
 ---------------------------------------------------------------
  

 Cite this work as:
 Gaussian 16, Revision A.03,
 M. J. Frisch, G. W. Trucks, H. B. Schlegel, G. E. Scuseria, 
 M. A. Robb, J. R. Cheeseman, G. Scalmani, V. Barone, 
 G. A. Petersson, H. Nakatsuji, X. Li, M. Caricato, A. V. Marenich, 
 J. Bloino, B. G. Janesko, R. Gomperts, B. Mennucci, H. P. Hratchian, 
 J. V. Ortiz, A. F. Izmaylov, J. L. Sonnenberg, D. Williams-Young, 
 F. Ding, F. Lipparini, F. Egidi, J. Goings, B. Peng, A. Petrone, 
 T. Henderson, D. Ranasinghe, V. G. Zakrzewski, J. Gao, N. Rega, 
 G. Zheng, W. Liang, M. Hada, M. Ehara, K. Toyota, R. Fukuda, 
 J. Hasegawa, M. Ishida, T. Nakajima, Y. Honda, O. Kitao, H. Nakai, 
 T. Vreven, K. Throssell, J. A. Montgomery, Jr., J. E. Peralta, 
 F. Ogliaro, M. J. Bearpark, J. J. Heyd, E. N. Brothers, K. N. Kudin, 
 V. N. Staroverov, T. A. Keith, R. Kobayashi, J. Normand, 
 K. Raghavachari, A. P. Rendell, J. C. Burant, S. S. Iyengar, 
 J. Tomasi, M. Cossi, J. M. Millam, M. Klene, C. Adamo, R. Cammi, 
 J. W. Ochterski, R. L. Martin, K. Morokuma, O. Farkas, 
 J. B. Foresman, and D. J. Fox, Gaussian, Inc., Wallingford CT, 2016.
 
 ******************************************
 Gaussian 16:  ES64L-G16RevA.03 25-Dec-2016
                29-Jun-2022 
 ******************************************
 %mem=10GB
 %chk=18_addons_C84_11_Cl22_rank_3.chk
 %nprocshared=24
 Will use up to   24 processors via shared memory.
 ------------------------------------------------
 #P opt b3lyp/6-31G(d, p) empiricaldispersion=GD3
 ------------------------------------------------
 1/18=20,19=15,26=3,38=1/1,3;
 2/9=110,12=2,17=6,18=5,40=1/2;
 3/5=1,6=6,7=101,11=2,25=1,30=1,71=1,74=-5,124=31/1,2,3;
 4//1;
 5/5=2,38=5/2;
 6/7=2,8=2,9=2,10=2,28=1/1;
 7//1,2,3,16;
 1/18=20,19=15,26=3/3(2);
 2/9=110/2;
 99//99;
 2/9=110/2;
 3/5=1,6=6,7=101,11=2,25=1,30=1,71=1,74=-5,124=31/1,2,3;
 4/5=5,16=3,69=1/1;
 5/5=2,38=5/2;
 7//1,2,3,16;
 1/18=20,19=15,26=3/3(-5);
 2/9=110/2;
 6/7=2,8=2,9=2,10=2,19=2,28=1/1;
 99/9=1/99;
 Leave Link    1 at Wed Jun 29 03:22:03 2022, MaxMem=  1342177280 cpu:               0.6 elap:               0.0
 (Enter /home/mkliu/g16/l101.exe)
 -----
 force
 -----
 Symbolic Z-matrix:
 Charge =  0 Multiplicity = 1
 C                     8.43284   18.66974   10.78187 
 C                     12.57463   20.001    8.87073 
 C                     8.22997   27.10526   10.57337 
 C                     12.46679   25.73239   8.91299 
 C                     8.02963   19.19052   9.41775 
 C                     12.05083   19.52865   10.19383 
 C                     7.96548   26.81046   9.11873 
 C                     11.85197   26.13455   10.21605 
 C                     8.99306   19.30856   8.37129 
 C                     12.30364   20.17737   11.37557 
 C                     12.10009   25.46637   11.38321 
 C                     8.95412   26.61847   8.14377 
 C                     10.36111   19.1282   8.66589 
 C                     10.30248   26.66023   8.59252 
 C                     10.80998   18.89074   10.01768 
 C                     10.6013   26.73288   10.01257 
 C                     9.89604   18.80861   11.04197 
 C                     9.61584   26.71689   10.99249 
 C                     10.16724   19.45715   12.24937 
 C                     9.87325   26.02696   12.18519 
 C                     8.90233   19.86247   12.93576 
 C                     8.74624   25.58528   13.07214 
 C                     7.87247   19.5295   11.88284 
 C                     7.4278    25.56546   12.3476 
 C                     6.74779   20.2123   11.74031 
 C                     7.19014   26.24578   11.23591 
 C                     5.95036   20.19046   10.4689 
 C                     6.07059   25.90259   10.28711 
 C                     6.79488   19.80789   9.28455 
 C                     6.70171   26.2421   8.97571 
 C                     6.45179   20.39353   8.06418 
 C                     6.3705    25.583    7.82121 
 C                     7.34944   20.43215   7.00663 
 C                     7.32492   25.44137   6.80151 
 C                     8.69302   20.02067   7.16843 
 C                     8.66076   25.87716   6.95651 
 C                     9.72685   20.66197   6.42121 
 C                     9.71054   25.14348   6.29082 
 C                     11.03777   20.62548   6.88741 
 C                     12.72532   22.17368   7.76537 
 C                     12.6702   23.56965   7.78468 
 C                     11.03823   25.16303   6.82947 
 C                     11.35009   19.82245   7.98527 
 C                     12.91344   21.46608   8.93546 
 C                     12.84432   24.27734   8.96454 
 C                     11.31266   25.97525   7.95744 
 C                     13.11515   22.16779   10.13932 
 C                     13.08256   23.57059   10.15111 
 C                     13.15265   21.4093   11.45297 
 C                     13.06206   24.3207   11.47116 
 C                     12.44529   22.17757   12.53578 
 C                     12.41468   23.50025   12.54788 
 C                     11.35062   20.14097   12.40796 
 C                     11.10785   25.41576   12.36887 
 C                     11.4542   21.33748   13.29543 
 C                     11.36894   24.26625   13.3057 
 C                     8.91419   21.34958   13.21681 
 C                     8.91181   24.12104   13.37861 
 C                     7.70976   22.0519   13.09565 
 C                     7.72195   23.43191   13.19306 
 C                     6.44926   21.4297   12.56246 
 C                     6.62763   24.34876   12.7124 
 C                     5.88556   22.34236   11.50572 
 C                     5.98774   23.72301   11.50414 
 C                     5.60107   21.65038   10.33827 
 C                     5.75824   24.41926   10.31369 
 C                     5.39468   22.31978   9.14302 
 C                     5.45068   23.72105   9.13229 
 C                     5.39001   21.466    7.9 
 C                     5.36985   24.45814   7.80614 
 C                     5.92094   22.2365   6.72636 
 C                     5.90821   23.60193   6.68825 
 C                     6.99512   21.52237   6.12743 
 C                     6.98635   24.26907   6.05123 
 C                     7.97705   22.15278   5.40476 
 C                     7.99546   23.56329   5.41789 
 C                     9.37283   21.61025   5.28835 
 C                     9.35571   24.01287   5.51664 
 C                     12.07986   21.64257   6.50373 
 C                     11.85135   24.02667   6.67634 
 C                     10.18569   22.8772   5.40475 
 C                     11.42894   22.88813   5.97599 
 C                     10.11919   22.04662   13.39086 
 C                     10.11725   23.44554   13.45416 
 Cl                    13.99103   19.05325   8.29583 
 Cl                    14.87254   21.05959   11.87444 
 Cl                    14.73908   24.82621   11.89196 
 Cl                    13.27492   20.93101   5.36233 
 Cl                    4.57043   26.83584   10.63792 
 Cl                    3.67404   24.99674   7.54293 
 Cl                    13.91399   26.71682   8.47283 
 Cl                    3.74396   20.79669   7.6178 
 Cl                    4.4948    19.13759   10.59321 
 Cl                    5.39398   24.67749   13.9818 
 Cl                    5.28158   21.11223   13.89475 
 Cl                    7.87926   16.9484   10.9239 
 Cl                    8.60556   18.97441   14.47641 
 Cl                    12.02706   20.93959   14.95983 
 Cl                    11.95034   24.81643   14.92175 
 Cl                    8.68043   26.5845   14.5715 
 Cl                    7.96756   28.86642   10.93446 
 Cl                    9.64069   20.74319   3.72281 
 
 ITRead=  0  0  0  0  0  0  0  0  0  0  0  0  0  0  0  0  0  0  0  0
 ITRead=  0  0  0  0  0  0  0  0  0  0  0  0  0  0  0  0  0  0  0  0
 ITRead=  0  0  0  0  0  0  0  0  0  0  0  0  0  0  0  0  0  0  0  0
 ITRead=  0  0  0  0  0  0  0  0  0  0  0  0  0  0  0  0  0  0  0  0
 ITRead=  0  0  0  0  0  0  0  0  0  0  0  0  0  0  0  0  0  0  0  0
 ITRead=  0  0
 MicOpt= -1 -1 -1 -1 -1 -1 -1 -1 -1 -1 -1 -1 -1 -1 -1 -1 -1 -1 -1 -1
 MicOpt= -1 -1 -1 -1 -1 -1 -1 -1 -1 -1 -1 -1 -1 -1 -1 -1 -1 -1 -1 -1
 MicOpt= -1 -1 -1 -1 -1 -1 -1 -1 -1 -1 -1 -1 -1 -1 -1 -1 -1 -1 -1 -1
 MicOpt= -1 -1 -1 -1 -1 -1 -1 -1 -1 -1 -1 -1 -1 -1 -1 -1 -1 -1 -1 -1
 MicOpt= -1 -1 -1 -1 -1 -1 -1 -1 -1 -1 -1 -1 -1 -1 -1 -1 -1 -1 -1 -1
 MicOpt= -1 -1
 NAtoms=    102 NQM=      102 NQMF=       0 NMMI=      0 NMMIF=      0
                NMic=       0 NMicF=      0.
                    Isotopes and Nuclear Properties:
 (Nuclear quadrupole moments (NQMom) in fm**2, nuclear magnetic moments (NMagM)
  in nuclear magnetons)

  Atom         1           2           3           4           5           6           7           8           9          10
 IAtWgt=          12          12          12          12          12          12          12          12          12          12
 AtmWgt=  12.0000000  12.0000000  12.0000000  12.0000000  12.0000000  12.0000000  12.0000000  12.0000000  12.0000000  12.0000000
 NucSpn=           0           0           0           0           0           0           0           0           0           0
 AtZEff=  -0.0000000  -0.0000000  -0.0000000  -0.0000000  -0.0000000  -0.0000000  -0.0000000  -0.0000000  -0.0000000  -0.0000000
 NQMom=    0.0000000   0.0000000   0.0000000   0.0000000   0.0000000   0.0000000   0.0000000   0.0000000   0.0000000   0.0000000
 NMagM=    0.0000000   0.0000000   0.0000000   0.0000000   0.0000000   0.0000000   0.0000000   0.0000000   0.0000000   0.0000000
 AtZNuc=   6.0000000   6.0000000   6.0000000   6.0000000   6.0000000   6.0000000   6.0000000   6.0000000   6.0000000   6.0000000

  Atom        11          12          13          14          15          16          17          18          19          20
 IAtWgt=          12          12          12          12          12          12          12          12          12          12
 AtmWgt=  12.0000000  12.0000000  12.0000000  12.0000000  12.0000000  12.0000000  12.0000000  12.0000000  12.0000000  12.0000000
 NucSpn=           0           0           0           0           0           0           0           0           0           0
 AtZEff=  -0.0000000  -0.0000000  -0.0000000  -0.0000000  -0.0000000  -0.0000000  -0.0000000  -0.0000000  -0.0000000  -0.0000000
 NQMom=    0.0000000   0.0000000   0.0000000   0.0000000   0.0000000   0.0000000   0.0000000   0.0000000   0.0000000   0.0000000
 NMagM=    0.0000000   0.0000000   0.0000000   0.0000000   0.0000000   0.0000000   0.0000000   0.0000000   0.0000000   0.0000000
 AtZNuc=   6.0000000   6.0000000   6.0000000   6.0000000   6.0000000   6.0000000   6.0000000   6.0000000   6.0000000   6.0000000

  Atom        21          22          23          24          25          26          27          28          29          30
 IAtWgt=          12          12          12          12          12          12          12          12          12          12
 AtmWgt=  12.0000000  12.0000000  12.0000000  12.0000000  12.0000000  12.0000000  12.0000000  12.0000000  12.0000000  12.0000000
 NucSpn=           0           0           0           0           0           0           0           0           0           0
 AtZEff=  -0.0000000  -0.0000000  -0.0000000  -0.0000000  -0.0000000  -0.0000000  -0.0000000  -0.0000000  -0.0000000  -0.0000000
 NQMom=    0.0000000   0.0000000   0.0000000   0.0000000   0.0000000   0.0000000   0.0000000   0.0000000   0.0000000   0.0000000
 NMagM=    0.0000000   0.0000000   0.0000000   0.0000000   0.0000000   0.0000000   0.0000000   0.0000000   0.0000000   0.0000000
 AtZNuc=   6.0000000   6.0000000   6.0000000   6.0000000   6.0000000   6.0000000   6.0000000   6.0000000   6.0000000   6.0000000

  Atom        31          32          33          34          35          36          37          38          39          40
 IAtWgt=          12          12          12          12          12          12          12          12          12          12
 AtmWgt=  12.0000000  12.0000000  12.0000000  12.0000000  12.0000000  12.0000000  12.0000000  12.0000000  12.0000000  12.0000000
 NucSpn=           0           0           0           0           0           0           0           0           0           0
 AtZEff=  -0.0000000  -0.0000000  -0.0000000  -0.0000000  -0.0000000  -0.0000000  -0.0000000  -0.0000000  -0.0000000  -0.0000000
 NQMom=    0.0000000   0.0000000   0.0000000   0.0000000   0.0000000   0.0000000   0.0000000   0.0000000   0.0000000   0.0000000
 NMagM=    0.0000000   0.0000000   0.0000000   0.0000000   0.0000000   0.0000000   0.0000000   0.0000000   0.0000000   0.0000000
 AtZNuc=   6.0000000   6.0000000   6.0000000   6.0000000   6.0000000   6.0000000   6.0000000   6.0000000   6.0000000   6.0000000

  Atom        41          42          43          44          45          46          47          48          49          50
 IAtWgt=          12          12          12          12          12          12          12          12          12          12
 AtmWgt=  12.0000000  12.0000000  12.0000000  12.0000000  12.0000000  12.0000000  12.0000000  12.0000000  12.0000000  12.0000000
 NucSpn=           0           0           0           0           0           0           0           0           0           0
 AtZEff=  -0.0000000  -0.0000000  -0.0000000  -0.0000000  -0.0000000  -0.0000000  -0.0000000  -0.0000000  -0.0000000  -0.0000000
 NQMom=    0.0000000   0.0000000   0.0000000   0.0000000   0.0000000   0.0000000   0.0000000   0.0000000   0.0000000   0.0000000
 NMagM=    0.0000000   0.0000000   0.0000000   0.0000000   0.0000000   0.0000000   0.0000000   0.0000000   0.0000000   0.0000000
 AtZNuc=   6.0000000   6.0000000   6.0000000   6.0000000   6.0000000   6.0000000   6.0000000   6.0000000   6.0000000   6.0000000

  Atom        51          52          53          54          55          56          57          58          59          60
 IAtWgt=          12          12          12          12          12          12          12          12          12          12
 AtmWgt=  12.0000000  12.0000000  12.0000000  12.0000000  12.0000000  12.0000000  12.0000000  12.0000000  12.0000000  12.0000000
 NucSpn=           0           0           0           0           0           0           0           0           0           0
 AtZEff=  -0.0000000  -0.0000000  -0.0000000  -0.0000000  -0.0000000  -0.0000000  -0.0000000  -0.0000000  -0.0000000  -0.0000000
 NQMom=    0.0000000   0.0000000   0.0000000   0.0000000   0.0000000   0.0000000   0.0000000   0.0000000   0.0000000   0.0000000
 NMagM=    0.0000000   0.0000000   0.0000000   0.0000000   0.0000000   0.0000000   0.0000000   0.0000000   0.0000000   0.0000000
 AtZNuc=   6.0000000   6.0000000   6.0000000   6.0000000   6.0000000   6.0000000   6.0000000   6.0000000   6.0000000   6.0000000

  Atom        61          62          63          64          65          66          67          68          69          70
 IAtWgt=          12          12          12          12          12          12          12          12          12          12
 AtmWgt=  12.0000000  12.0000000  12.0000000  12.0000000  12.0000000  12.0000000  12.0000000  12.0000000  12.0000000  12.0000000
 NucSpn=           0           0           0           0           0           0           0           0           0           0
 AtZEff=  -0.0000000  -0.0000000  -0.0000000  -0.0000000  -0.0000000  -0.0000000  -0.0000000  -0.0000000  -0.0000000  -0.0000000
 NQMom=    0.0000000   0.0000000   0.0000000   0.0000000   0.0000000   0.0000000   0.0000000   0.0000000   0.0000000   0.0000000
 NMagM=    0.0000000   0.0000000   0.0000000   0.0000000   0.0000000   0.0000000   0.0000000   0.0000000   0.0000000   0.0000000
 AtZNuc=   6.0000000   6.0000000   6.0000000   6.0000000   6.0000000   6.0000000   6.0000000   6.0000000   6.0000000   6.0000000

  Atom        71          72          73          74          75          76          77          78          79          80
 IAtWgt=          12          12          12          12          12          12          12          12          12          12
 AtmWgt=  12.0000000  12.0000000  12.0000000  12.0000000  12.0000000  12.0000000  12.0000000  12.0000000  12.0000000  12.0000000
 NucSpn=           0           0           0           0           0           0           0           0           0           0
 AtZEff=  -0.0000000  -0.0000000  -0.0000000  -0.0000000  -0.0000000  -0.0000000  -0.0000000  -0.0000000  -0.0000000  -0.0000000
 NQMom=    0.0000000   0.0000000   0.0000000   0.0000000   0.0000000   0.0000000   0.0000000   0.0000000   0.0000000   0.0000000
 NMagM=    0.0000000   0.0000000   0.0000000   0.0000000   0.0000000   0.0000000   0.0000000   0.0000000   0.0000000   0.0000000
 AtZNuc=   6.0000000   6.0000000   6.0000000   6.0000000   6.0000000   6.0000000   6.0000000   6.0000000   6.0000000   6.0000000

  Atom        81          82          83          84          85          86          87          88          89          90
 IAtWgt=          12          12          12          12          35          35          35          35          35          35
 AtmWgt=  12.0000000  12.0000000  12.0000000  12.0000000  34.9688527  34.9688527  34.9688527  34.9688527  34.9688527  34.9688527
 NucSpn=           0           0           0           0           3           3           3           3           3           3
 AtZEff=  -0.0000000  -0.0000000  -0.0000000  -0.0000000  -0.0000000  -0.0000000  -0.0000000  -0.0000000  -0.0000000  -0.0000000
 NQMom=    0.0000000   0.0000000   0.0000000   0.0000000  -8.1650000  -8.1650000  -8.1650000  -8.1650000  -8.1650000  -8.1650000
 NMagM=    0.0000000   0.0000000   0.0000000   0.0000000   0.8218740   0.8218740   0.8218740   0.8218740   0.8218740   0.8218740
 AtZNuc=   6.0000000   6.0000000   6.0000000   6.0000000  17.0000000  17.0000000  17.0000000  17.0000000  17.0000000  17.0000000

  Atom        91          92          93          94          95          96          97          98          99         100
 IAtWgt=          35          35          35          35          35          35          35          35          35          35
 AtmWgt=  34.9688527  34.9688527  34.9688527  34.9688527  34.9688527  34.9688527  34.9688527  34.9688527  34.9688527  34.9688527
 NucSpn=           3           3           3           3           3           3           3           3           3           3
 AtZEff=  -0.0000000  -0.0000000  -0.0000000  -0.0000000  -0.0000000  -0.0000000  -0.0000000  -0.0000000  -0.0000000  -0.0000000
 NQMom=   -8.1650000  -8.1650000  -8.1650000  -8.1650000  -8.1650000  -8.1650000  -8.1650000  -8.1650000  -8.1650000  -8.1650000
 NMagM=    0.8218740   0.8218740   0.8218740   0.8218740   0.8218740   0.8218740   0.8218740   0.8218740   0.8218740   0.8218740
 AtZNuc=  17.0000000  17.0000000  17.0000000  17.0000000  17.0000000  17.0000000  17.0000000  17.0000000  17.0000000  17.0000000

  Atom       101         102
 IAtWgt=          35          35
 AtmWgt=  34.9688527  34.9688527
 NucSpn=           3           3
 AtZEff=  -0.0000000  -0.0000000
 NQMom=   -8.1650000  -8.1650000
 NMagM=    0.8218740   0.8218740
 AtZNuc=  17.0000000  17.0000000
 Leave Link  101 at Wed Jun 29 03:22:04 2022, MaxMem=  1342177280 cpu:               6.7 elap:               0.3
 (Enter /home/mkliu/g16/l103.exe)

 GradGradGradGradGradGradGradGradGradGradGradGradGradGradGradGradGradGrad
 Berny optimization.
 Initialization pass.
                           ----------------------------
                           !    Initial Parameters    !
                           ! (Angstroms and Degrees)  !
 --------------------------                            --------------------------
 ! Name  Definition              Value          Derivative Info.                !
 --------------------------------------------------------------------------------
 ! R1    R(1,5)                  1.5148         estimate D2E/DX2                !
 ! R2    R(1,17)                 1.4926         estimate D2E/DX2                !
 ! R3    R(1,23)                 1.5051         estimate D2E/DX2                !
 ! R4    R(1,96)                 1.8137         estimate D2E/DX2                !
 ! R5    R(2,6)                  1.4994         estimate D2E/DX2                !
 ! R6    R(2,43)                 1.5217         estimate D2E/DX2                !
 ! R7    R(2,44)                 1.5051         estimate D2E/DX2                !
 ! R8    R(2,85)                 1.7986         estimate D2E/DX2                !
 ! R9    R(3,7)                  1.5076         estimate D2E/DX2                !
 ! R10   R(3,18)                 1.499          estimate D2E/DX2                !
 ! R11   R(3,26)                 1.503          estimate D2E/DX2                !
 ! R12   R(3,101)                1.8168         estimate D2E/DX2                !
 ! R13   R(4,8)                  1.4959         estimate D2E/DX2                !
 ! R14   R(4,45)                 1.5041         estimate D2E/DX2                !
 ! R15   R(4,46)                 1.5179         estimate D2E/DX2                !
 ! R16   R(4,91)                 1.8048         estimate D2E/DX2                !
 ! R17   R(5,9)                  1.4273         estimate D2E/DX2                !
 ! R18   R(5,29)                 1.3869         estimate D2E/DX2                !
 ! R19   R(6,10)                 1.3716         estimate D2E/DX2                !
 ! R20   R(6,15)                 1.4063         estimate D2E/DX2                !
 ! R21   R(7,12)                 1.4017         estimate D2E/DX2                !
 ! R22   R(7,30)                 1.3931         estimate D2E/DX2                !
 ! R23   R(8,11)                 1.3676         estimate D2E/DX2                !
 ! R24   R(8,16)                 1.4013         estimate D2E/DX2                !
 ! R25   R(9,13)                 1.411          estimate D2E/DX2                !
 ! R26   R(9,35)                 1.4297         estimate D2E/DX2                !
 ! R27   R(10,49)                1.4982         estimate D2E/DX2                !
 ! R28   R(10,53)                1.4055         estimate D2E/DX2                !
 ! R29   R(11,50)                1.4986         estimate D2E/DX2                !
 ! R30   R(11,54)                1.3995         estimate D2E/DX2                !
 ! R31   R(12,14)                1.4217         estimate D2E/DX2                !
 ! R32   R(12,36)                1.4301         estimate D2E/DX2                !
 ! R33   R(13,15)                1.444          estimate D2E/DX2                !
 ! R34   R(13,43)                1.3868         estimate D2E/DX2                !
 ! R35   R(14,16)                1.453          estimate D2E/DX2                !
 ! R36   R(14,46)                1.3759         estimate D2E/DX2                !
 ! R37   R(15,17)                1.3752         estimate D2E/DX2                !
 ! R38   R(16,18)                1.3898         estimate D2E/DX2                !
 ! R39   R(17,19)                1.3971         estimate D2E/DX2                !
 ! R40   R(18,20)                1.4017         estimate D2E/DX2                !
 ! R41   R(19,21)                1.4951         estimate D2E/DX2                !
 ! R42   R(19,53)                1.3759         estimate D2E/DX2                !
 ! R43   R(20,22)                1.5006         estimate D2E/DX2                !
 ! R44   R(20,54)                1.3898         estimate D2E/DX2                !
 ! R45   R(21,23)                1.51           estimate D2E/DX2                !
 ! R46   R(21,57)                1.5135         estimate D2E/DX2                !
 ! R47   R(21,97)                1.8029         estimate D2E/DX2                !
 ! R48   R(22,24)                1.5045         estimate D2E/DX2                !
 ! R49   R(22,58)                1.5051         estimate D2E/DX2                !
 ! R50   R(22,100)               1.803          estimate D2E/DX2                !
 ! R51   R(23,25)                1.3234         estimate D2E/DX2                !
 ! R52   R(24,26)                1.3248         estimate D2E/DX2                !
 ! R53   R(24,62)                1.5012         estimate D2E/DX2                !
 ! R54   R(25,27)                1.501          estimate D2E/DX2                !
 ! R55   R(25,61)                1.499          estimate D2E/DX2                !
 ! R56   R(26,28)                1.5071         estimate D2E/DX2                !
 ! R57   R(27,29)                1.5041         estimate D2E/DX2                !
 ! R58   R(27,65)                1.5068         estimate D2E/DX2                !
 ! R59   R(27,93)                1.8007         estimate D2E/DX2                !
 ! R60   R(28,30)                1.4944         estimate D2E/DX2                !
 ! R61   R(28,66)                1.5161         estimate D2E/DX2                !
 ! R62   R(28,89)                1.8013         estimate D2E/DX2                !
 ! R63   R(29,31)                1.3964         estimate D2E/DX2                !
 ! R64   R(30,32)                1.37           estimate D2E/DX2                !
 ! R65   R(31,33)                1.3877         estimate D2E/DX2                !
 ! R66   R(31,69)                1.5181         estimate D2E/DX2                !
 ! R67   R(32,34)                1.4038         estimate D2E/DX2                !
 ! R68   R(32,70)                1.5056         estimate D2E/DX2                !
 ! R69   R(33,35)                1.4145         estimate D2E/DX2                !
 ! R70   R(33,73)                1.4447         estimate D2E/DX2                !
 ! R71   R(34,36)                1.4136         estimate D2E/DX2                !
 ! R72   R(34,74)                1.4324         estimate D2E/DX2                !
 ! R73   R(35,37)                1.4277         estimate D2E/DX2                !
 ! R74   R(36,38)                1.4434         estimate D2E/DX2                !
 ! R75   R(37,39)                1.3918         estimate D2E/DX2                !
 ! R76   R(37,77)                1.5192         estimate D2E/DX2                !
 ! R77   R(38,42)                1.4329         estimate D2E/DX2                !
 ! R78   R(38,78)                1.4155         estimate D2E/DX2                !
 ! R79   R(39,43)                1.3956         estimate D2E/DX2                !
 ! R80   R(39,79)                1.5059         estimate D2E/DX2                !
 ! R81   R(40,41)                1.3972         estimate D2E/DX2                !
 ! R82   R(40,44)                1.3803         estimate D2E/DX2                !
 ! R83   R(40,79)                1.5134         estimate D2E/DX2                !
 ! R84   R(41,45)                1.3868         estimate D2E/DX2                !
 ! R85   R(41,80)                1.4518         estimate D2E/DX2                !
 ! R86   R(42,46)                1.4168         estimate D2E/DX2                !
 ! R87   R(42,80)                1.4057         estimate D2E/DX2                !
 ! R88   R(44,47)                1.408          estimate D2E/DX2                !
 ! R89   R(45,48)                1.4015         estimate D2E/DX2                !
 ! R90   R(47,48)                1.4032         estimate D2E/DX2                !
 ! R91   R(47,49)                1.5174         estimate D2E/DX2                !
 ! R92   R(48,50)                1.5184         estimate D2E/DX2                !
 ! R93   R(49,51)                1.5044         estimate D2E/DX2                !
 ! R94   R(49,86)                1.805          estimate D2E/DX2                !
 ! R95   R(50,52)                1.5005         estimate D2E/DX2                !
 ! R96   R(50,87)                1.8014         estimate D2E/DX2                !
 ! R97   R(51,52)                1.3231         estimate D2E/DX2                !
 ! R98   R(51,55)                1.505          estimate D2E/DX2                !
 ! R99   R(52,56)                1.5015         estimate D2E/DX2                !
 ! R100  R(53,55)                1.4933         estimate D2E/DX2                !
 ! R101  R(54,56)                1.5057         estimate D2E/DX2                !
 ! R102  R(55,83)                1.5147         estimate D2E/DX2                !
 ! R103  R(55,98)                1.8046         estimate D2E/DX2                !
 ! R104  R(56,84)                1.5041         estimate D2E/DX2                !
 ! R105  R(56,99)                1.8034         estimate D2E/DX2                !
 ! R106  R(57,59)                1.3995         estimate D2E/DX2                !
 ! R107  R(57,83)                1.4029         estimate D2E/DX2                !
 ! R108  R(58,60)                1.3875         estimate D2E/DX2                !
 ! R109  R(58,84)                1.3839         estimate D2E/DX2                !
 ! R110  R(59,60)                1.3835         estimate D2E/DX2                !
 ! R111  R(59,61)                1.5034         estimate D2E/DX2                !
 ! R112  R(60,62)                1.5064         estimate D2E/DX2                !
 ! R113  R(61,63)                1.5058         estimate D2E/DX2                !
 ! R114  R(61,95)                1.7998         estimate D2E/DX2                !
 ! R115  R(62,64)                1.5036         estimate D2E/DX2                !
 ! R116  R(62,94)                1.8004         estimate D2E/DX2                !
 ! R117  R(63,64)                1.3844         estimate D2E/DX2                !
 ! R118  R(63,65)                1.3866         estimate D2E/DX2                !
 ! R119  R(64,66)                1.3981         estimate D2E/DX2                !
 ! R120  R(65,67)                1.3854         estimate D2E/DX2                !
 ! R121  R(66,68)                1.4063         estimate D2E/DX2                !
 ! R122  R(67,68)                1.4024         estimate D2E/DX2                !
 ! R123  R(67,69)                1.508          estimate D2E/DX2                !
 ! R124  R(68,70)                1.5194         estimate D2E/DX2                !
 ! R125  R(69,71)                1.501          estimate D2E/DX2                !
 ! R126  R(69,92)                1.7992         estimate D2E/DX2                !
 ! R127  R(70,72)                1.5075         estimate D2E/DX2                !
 ! R128  R(70,90)                1.7987         estimate D2E/DX2                !
 ! R129  R(71,72)                1.366          estimate D2E/DX2                !
 ! R130  R(71,73)                1.4222         estimate D2E/DX2                !
 ! R131  R(72,74)                1.4189         estimate D2E/DX2                !
 ! R132  R(73,75)                1.3725         estimate D2E/DX2                !
 ! R133  R(74,76)                1.3848         estimate D2E/DX2                !
 ! R134  R(75,76)                1.4107         estimate D2E/DX2                !
 ! R135  R(75,77)                1.502          estimate D2E/DX2                !
 ! R136  R(76,78)                1.436          estimate D2E/DX2                !
 ! R137  R(77,81)                1.5098         estimate D2E/DX2                !
 ! R138  R(77,102)               1.8095         estimate D2E/DX2                !
 ! R139  R(78,81)                1.4111         estimate D2E/DX2                !
 ! R140  R(79,82)                1.5012         estimate D2E/DX2                !
 ! R141  R(79,88)                1.7992         estimate D2E/DX2                !
 ! R142  R(80,82)                1.4019         estimate D2E/DX2                !
 ! R143  R(81,82)                1.3682         estimate D2E/DX2                !
 ! R144  R(83,84)                1.4003         estimate D2E/DX2                !
 ! A1    A(5,1,17)             112.6982         estimate D2E/DX2                !
 ! A2    A(5,1,23)             111.2993         estimate D2E/DX2                !
 ! A3    A(5,1,96)             108.3946         estimate D2E/DX2                !
 ! A4    A(17,1,23)            100.6238         estimate D2E/DX2                !
 ! A5    A(17,1,96)            111.9536         estimate D2E/DX2                !
 ! A6    A(23,1,96)            111.7902         estimate D2E/DX2                !
 ! A7    A(6,2,43)             101.268          estimate D2E/DX2                !
 ! A8    A(6,2,44)             110.3248         estimate D2E/DX2                !
 ! A9    A(6,2,85)             113.0278         estimate D2E/DX2                !
 ! A10   A(43,2,44)            108.6865         estimate D2E/DX2                !
 ! A11   A(43,2,85)            112.7001         estimate D2E/DX2                !
 ! A12   A(44,2,85)            110.4501         estimate D2E/DX2                !
 ! A13   A(7,3,18)             112.4147         estimate D2E/DX2                !
 ! A14   A(7,3,26)             101.0773         estimate D2E/DX2                !
 ! A15   A(7,3,101)            110.8532         estimate D2E/DX2                !
 ! A16   A(18,3,26)            111.6052         estimate D2E/DX2                !
 ! A17   A(18,3,101)           109.2144         estimate D2E/DX2                !
 ! A18   A(26,3,101)           111.5177         estimate D2E/DX2                !
 ! A19   A(8,4,45)             109.4746         estimate D2E/DX2                !
 ! A20   A(8,4,46)             101.1188         estimate D2E/DX2                !
 ! A21   A(8,4,91)             113.2895         estimate D2E/DX2                !
 ! A22   A(45,4,46)            111.5427         estimate D2E/DX2                !
 ! A23   A(45,4,91)            109.5577         estimate D2E/DX2                !
 ! A24   A(46,4,91)            111.647          estimate D2E/DX2                !
 ! A25   A(1,5,9)              120.5968         estimate D2E/DX2                !
 ! A26   A(1,5,29)             118.4577         estimate D2E/DX2                !
 ! A27   A(9,5,29)             119.5855         estimate D2E/DX2                !
 ! A28   A(2,6,10)             123.1551         estimate D2E/DX2                !
 ! A29   A(2,6,15)             109.915          estimate D2E/DX2                !
 ! A30   A(10,6,15)            119.0188         estimate D2E/DX2                !
 ! A31   A(3,7,12)             125.0406         estimate D2E/DX2                !
 ! A32   A(3,7,30)             109.7551         estimate D2E/DX2                !
 ! A33   A(12,7,30)            120.8345         estimate D2E/DX2                !
 ! A34   A(4,8,11)             122.5138         estimate D2E/DX2                !
 ! A35   A(4,8,16)             110.8019         estimate D2E/DX2                !
 ! A36   A(11,8,16)            119.6354         estimate D2E/DX2                !
 ! A37   A(5,9,13)             119.3941         estimate D2E/DX2                !
 ! A38   A(5,9,35)             121.0898         estimate D2E/DX2                !
 ! A39   A(13,9,35)            116.2835         estimate D2E/DX2                !
 ! A40   A(6,10,49)            122.5397         estimate D2E/DX2                !
 ! A41   A(6,10,53)            119.7117         estimate D2E/DX2                !
 ! A42   A(49,10,53)           111.5686         estimate D2E/DX2                !
 ! A43   A(8,11,50)            122.6894         estimate D2E/DX2                !
 ! A44   A(8,11,54)            119.3475         estimate D2E/DX2                !
 ! A45   A(50,11,54)           112.7146         estimate D2E/DX2                !
 ! A46   A(7,12,14)            116.4466         estimate D2E/DX2                !
 ! A47   A(7,12,36)            120.2488         estimate D2E/DX2                !
 ! A48   A(14,12,36)           118.1525         estimate D2E/DX2                !
 ! A49   A(9,13,15)            121.1887         estimate D2E/DX2                !
 ! A50   A(9,13,43)            121.6656         estimate D2E/DX2                !
 ! A51   A(15,13,43)           108.6676         estimate D2E/DX2                !
 ! A52   A(12,14,16)           120.3324         estimate D2E/DX2                !
 ! A53   A(12,14,46)           122.414          estimate D2E/DX2                !
 ! A54   A(16,14,46)           108.9669         estimate D2E/DX2                !
 ! A55   A(6,15,13)            108.4777         estimate D2E/DX2                !
 ! A56   A(6,15,17)            121.3454         estimate D2E/DX2                !
 ! A57   A(13,15,17)           120.0322         estimate D2E/DX2                !
 ! A58   A(8,16,14)            107.7056         estimate D2E/DX2                !
 ! A59   A(8,16,18)            121.7049         estimate D2E/DX2                !
 ! A60   A(14,16,18)           122.8669         estimate D2E/DX2                !
 ! A61   A(1,17,15)            121.8201         estimate D2E/DX2                !
 ! A62   A(1,17,19)            112.5862         estimate D2E/DX2                !
 ! A63   A(15,17,19)           119.1402         estimate D2E/DX2                !
 ! A64   A(3,18,16)            117.0908         estimate D2E/DX2                !
 ! A65   A(3,18,20)            122.3576         estimate D2E/DX2                !
 ! A66   A(16,18,20)           118.3846         estimate D2E/DX2                !
 ! A67   A(17,19,21)           110.9995         estimate D2E/DX2                !
 ! A68   A(17,19,53)           119.8191         estimate D2E/DX2                !
 ! A69   A(21,19,53)           122.6824         estimate D2E/DX2                !
 ! A70   A(18,20,22)           120.655          estimate D2E/DX2                !
 ! A71   A(18,20,54)           119.4753         estimate D2E/DX2                !
 ! A72   A(22,20,54)           117.3612         estimate D2E/DX2                !
 ! A73   A(19,21,23)           101.3678         estimate D2E/DX2                !
 ! A74   A(19,21,57)           110.1812         estimate D2E/DX2                !
 ! A75   A(19,21,97)           113.4558         estimate D2E/DX2                !
 ! A76   A(23,21,57)           110.5788         estimate D2E/DX2                !
 ! A77   A(23,21,97)           112.0239         estimate D2E/DX2                !
 ! A78   A(57,21,97)           109.0627         estimate D2E/DX2                !
 ! A79   A(20,22,24)           112.1711         estimate D2E/DX2                !
 ! A80   A(20,22,58)           108.9095         estimate D2E/DX2                !
 ! A81   A(20,22,100)          110.8428         estimate D2E/DX2                !
 ! A82   A(24,22,58)           100.4652         estimate D2E/DX2                !
 ! A83   A(24,22,100)          112.0723         estimate D2E/DX2                !
 ! A84   A(58,22,100)          111.9524         estimate D2E/DX2                !
 ! A85   A(1,23,21)            112.4639         estimate D2E/DX2                !
 ! A86   A(1,23,25)            122.1632         estimate D2E/DX2                !
 ! A87   A(21,23,25)           122.7476         estimate D2E/DX2                !
 ! A88   A(22,24,26)           123.6778         estimate D2E/DX2                !
 ! A89   A(22,24,62)           111.1454         estimate D2E/DX2                !
 ! A90   A(26,24,62)           121.6334         estimate D2E/DX2                !
 ! A91   A(23,25,27)           122.3595         estimate D2E/DX2                !
 ! A92   A(23,25,61)           121.9493         estimate D2E/DX2                !
 ! A93   A(27,25,61)           111.7521         estimate D2E/DX2                !
 ! A94   A(3,26,24)            122.6464         estimate D2E/DX2                !
 ! A95   A(3,26,28)            111.5085         estimate D2E/DX2                !
 ! A96   A(24,26,28)           122.9962         estimate D2E/DX2                !
 ! A97   A(25,27,29)           111.8632         estimate D2E/DX2                !
 ! A98   A(25,27,65)           100.5148         estimate D2E/DX2                !
 ! A99   A(25,27,93)           112.3013         estimate D2E/DX2                !
 ! A100  A(29,27,65)           107.9587         estimate D2E/DX2                !
 ! A101  A(29,27,93)           111.0697         estimate D2E/DX2                !
 ! A102  A(65,27,93)           112.6508         estimate D2E/DX2                !
 ! A103  A(26,28,30)           100.7777         estimate D2E/DX2                !
 ! A104  A(26,28,66)           111.3952         estimate D2E/DX2                !
 ! A105  A(26,28,89)           112.2148         estimate D2E/DX2                !
 ! A106  A(30,28,66)           108.9452         estimate D2E/DX2                !
 ! A107  A(30,28,89)           113.886          estimate D2E/DX2                !
 ! A108  A(66,28,89)           109.3851         estimate D2E/DX2                !
 ! A109  A(5,29,27)            122.5127         estimate D2E/DX2                !
 ! A110  A(5,29,31)            119.2985         estimate D2E/DX2                !
 ! A111  A(27,29,31)           116.3291         estimate D2E/DX2                !
 ! A112  A(7,30,28)            112.6881         estimate D2E/DX2                !
 ! A113  A(7,30,32)            120.1396         estimate D2E/DX2                !
 ! A114  A(28,30,32)           121.8761         estimate D2E/DX2                !
 ! A115  A(29,31,33)           121.249          estimate D2E/DX2                !
 ! A116  A(29,31,69)           124.2389         estimate D2E/DX2                !
 ! A117  A(33,31,69)           110.5091         estimate D2E/DX2                !
 ! A118  A(30,32,34)           119.7538         estimate D2E/DX2                !
 ! A119  A(30,32,70)           121.9062         estimate D2E/DX2                !
 ! A120  A(34,32,70)           111.6665         estimate D2E/DX2                !
 ! A121  A(31,33,35)           121.2769         estimate D2E/DX2                !
 ! A122  A(31,33,73)           109.0351         estimate D2E/DX2                !
 ! A123  A(35,33,73)           121.474          estimate D2E/DX2                !
 ! A124  A(32,34,36)           122.1204         estimate D2E/DX2                !
 ! A125  A(32,34,74)           107.5978         estimate D2E/DX2                !
 ! A126  A(36,34,74)           122.2136         estimate D2E/DX2                !
 ! A127  A(9,35,33)            116.1352         estimate D2E/DX2                !
 ! A128  A(9,35,37)            120.8035         estimate D2E/DX2                !
 ! A129  A(33,35,37)           119.8204         estimate D2E/DX2                !
 ! A130  A(12,36,34)           116.4019         estimate D2E/DX2                !
 ! A131  A(12,36,38)           119.8123         estimate D2E/DX2                !
 ! A132  A(34,36,38)           118.6851         estimate D2E/DX2                !
 ! A133  A(35,37,39)           119.6656         estimate D2E/DX2                !
 ! A134  A(35,37,77)           120.1264         estimate D2E/DX2                !
 ! A135  A(39,37,77)           119.0534         estimate D2E/DX2                !
 ! A136  A(36,38,42)           119.576          estimate D2E/DX2                !
 ! A137  A(36,38,78)           118.4194         estimate D2E/DX2                !
 ! A138  A(42,38,78)           116.6648         estimate D2E/DX2                !
 ! A139  A(37,39,43)           119.2985         estimate D2E/DX2                !
 ! A140  A(37,39,79)           123.2809         estimate D2E/DX2                !
 ! A141  A(43,39,79)           115.7344         estimate D2E/DX2                !
 ! A142  A(41,40,44)           120.3887         estimate D2E/DX2                !
 ! A143  A(41,40,79)           110.2016         estimate D2E/DX2                !
 ! A144  A(44,40,79)           125.7963         estimate D2E/DX2                !
 ! A145  A(40,41,45)           121.1087         estimate D2E/DX2                !
 ! A146  A(40,41,80)           109.0388         estimate D2E/DX2                !
 ! A147  A(45,41,80)           124.0334         estimate D2E/DX2                !
 ! A148  A(38,42,46)           119.115          estimate D2E/DX2                !
 ! A149  A(38,42,80)           118.9465         estimate D2E/DX2                !
 ! A150  A(46,42,80)           115.9846         estimate D2E/DX2                !
 ! A151  A(2,43,13)            110.3059         estimate D2E/DX2                !
 ! A152  A(2,43,39)            124.774          estimate D2E/DX2                !
 ! A153  A(13,43,39)           120.966          estimate D2E/DX2                !
 ! A154  A(2,44,40)            115.5864         estimate D2E/DX2                !
 ! A155  A(2,44,47)            123.6515         estimate D2E/DX2                !
 ! A156  A(40,44,47)           119.2651         estimate D2E/DX2                !
 ! A157  A(4,45,41)            115.6573         estimate D2E/DX2                !
 ! A158  A(4,45,48)            124.0219         estimate D2E/DX2                !
 ! A159  A(41,45,48)           118.9676         estimate D2E/DX2                !
 ! A160  A(4,46,14)            110.3243         estimate D2E/DX2                !
 ! A161  A(4,46,42)            123.83           estimate D2E/DX2                !
 ! A162  A(14,46,42)           120.7092         estimate D2E/DX2                !
 ! A163  A(44,47,48)           120.1383         estimate D2E/DX2                !
 ! A164  A(44,47,49)           119.6468         estimate D2E/DX2                !
 ! A165  A(48,47,49)           119.5396         estimate D2E/DX2                !
 ! A166  A(45,48,47)           120.0636         estimate D2E/DX2                !
 ! A167  A(45,48,50)           118.9881         estimate D2E/DX2                !
 ! A168  A(47,48,50)           120.0971         estimate D2E/DX2                !
 ! A169  A(10,49,47)           110.6292         estimate D2E/DX2                !
 ! A170  A(10,49,51)           100.9913         estimate D2E/DX2                !
 ! A171  A(10,49,86)           113.1248         estimate D2E/DX2                !
 ! A172  A(47,49,51)           110.8696         estimate D2E/DX2                !
 ! A173  A(47,49,86)           108.8175         estimate D2E/DX2                !
 ! A174  A(51,49,86)           112.2665         estimate D2E/DX2                !
 ! A175  A(11,50,48)           109.5915         estimate D2E/DX2                !
 ! A176  A(11,50,52)           100.5552         estimate D2E/DX2                !
 ! A177  A(11,50,87)           113.3767         estimate D2E/DX2                !
 ! A178  A(48,50,52)           111.0715         estimate D2E/DX2                !
 ! A179  A(48,50,87)           109.2169         estimate D2E/DX2                !
 ! A180  A(52,50,87)           112.797          estimate D2E/DX2                !
 ! A181  A(49,51,52)           121.8704         estimate D2E/DX2                !
 ! A182  A(49,51,55)           112.8232         estimate D2E/DX2                !
 ! A183  A(52,51,55)           122.5591         estimate D2E/DX2                !
 ! A184  A(50,52,51)           122.0099         estimate D2E/DX2                !
 ! A185  A(50,52,56)           112.5621         estimate D2E/DX2                !
 ! A186  A(51,52,56)           122.0537         estimate D2E/DX2                !
 ! A187  A(10,53,19)           120.7565         estimate D2E/DX2                !
 ! A188  A(10,53,55)           111.6386         estimate D2E/DX2                !
 ! A189  A(19,53,55)           121.7609         estimate D2E/DX2                !
 ! A190  A(11,54,20)           121.3884         estimate D2E/DX2                !
 ! A191  A(11,54,56)           110.0511         estimate D2E/DX2                !
 ! A192  A(20,54,56)           124.8904         estimate D2E/DX2                !
 ! A193  A(51,55,53)           101.1253         estimate D2E/DX2                !
 ! A194  A(51,55,83)           110.5411         estimate D2E/DX2                !
 ! A195  A(51,55,98)           112.3062         estimate D2E/DX2                !
 ! A196  A(53,55,83)           110.5749         estimate D2E/DX2                !
 ! A197  A(53,55,98)           113.1707         estimate D2E/DX2                !
 ! A198  A(83,55,98)           108.9601         estimate D2E/DX2                !
 ! A199  A(52,56,54)           101.3157         estimate D2E/DX2                !
 ! A200  A(52,56,84)           110.5499         estimate D2E/DX2                !
 ! A201  A(52,56,99)           112.5424         estimate D2E/DX2                !
 ! A202  A(54,56,84)           109.4917         estimate D2E/DX2                !
 ! A203  A(54,56,99)           112.3671         estimate D2E/DX2                !
 ! A204  A(84,56,99)           110.2609         estimate D2E/DX2                !
 ! A205  A(21,57,59)           118.0519         estimate D2E/DX2                !
 ! A206  A(21,57,83)           121.1955         estimate D2E/DX2                !
 ! A207  A(59,57,83)           120.0404         estimate D2E/DX2                !
 ! A208  A(22,58,60)           111.2003         estimate D2E/DX2                !
 ! A209  A(22,58,84)           125.5782         estimate D2E/DX2                !
 ! A210  A(60,58,84)           120.7872         estimate D2E/DX2                !
 ! A211  A(57,59,60)           119.1363         estimate D2E/DX2                !
 ! A212  A(57,59,61)           122.9954         estimate D2E/DX2                !
 ! A213  A(60,59,61)           116.4347         estimate D2E/DX2                !
 ! A214  A(58,60,59)           120.8241         estimate D2E/DX2                !
 ! A215  A(58,60,62)           111.3064         estimate D2E/DX2                !
 ! A216  A(59,60,62)           125.3268         estimate D2E/DX2                !
 ! A217  A(25,61,59)           111.3241         estimate D2E/DX2                !
 ! A218  A(25,61,63)           100.4793         estimate D2E/DX2                !
 ! A219  A(25,61,95)           113.0755         estimate D2E/DX2                !
 ! A220  A(59,61,63)           108.1746         estimate D2E/DX2                !
 ! A221  A(59,61,95)           110.7582         estimate D2E/DX2                !
 ! A222  A(63,61,95)           112.5524         estimate D2E/DX2                !
 ! A223  A(24,62,60)           100.5806         estimate D2E/DX2                !
 ! A224  A(24,62,64)           111.6445         estimate D2E/DX2                !
 ! A225  A(24,62,94)           112.8658         estimate D2E/DX2                !
 ! A226  A(60,62,64)           108.196          estimate D2E/DX2                !
 ! A227  A(60,62,94)           112.5776         estimate D2E/DX2                !
 ! A228  A(64,62,94)           110.5455         estimate D2E/DX2                !
 ! A229  A(61,63,64)           125.2832         estimate D2E/DX2                !
 ! A230  A(61,63,65)           111.4199         estimate D2E/DX2                !
 ! A231  A(64,63,65)           120.7876         estimate D2E/DX2                !
 ! A232  A(62,64,63)           116.456          estimate D2E/DX2                !
 ! A233  A(62,64,66)           123.1504         estimate D2E/DX2                !
 ! A234  A(63,64,66)           119.0455         estimate D2E/DX2                !
 ! A235  A(27,65,63)           111.2826         estimate D2E/DX2                !
 ! A236  A(27,65,67)           125.2733         estimate D2E/DX2                !
 ! A237  A(63,65,67)           121.0529         estimate D2E/DX2                !
 ! A238  A(28,66,64)           117.9273         estimate D2E/DX2                !
 ! A239  A(28,66,68)           121.0692         estimate D2E/DX2                !
 ! A240  A(64,66,68)           120.2621         estimate D2E/DX2                !
 ! A241  A(65,67,68)           118.9097         estimate D2E/DX2                !
 ! A242  A(65,67,69)           115.9797         estimate D2E/DX2                !
 ! A243  A(68,67,69)           124.0225         estimate D2E/DX2                !
 ! A244  A(66,68,67)           119.8921         estimate D2E/DX2                !
 ! A245  A(66,68,70)           120.2649         estimate D2E/DX2                !
 ! A246  A(67,68,70)           119.2932         estimate D2E/DX2                !
 ! A247  A(31,69,67)           107.9791         estimate D2E/DX2                !
 ! A248  A(31,69,71)           101.5259         estimate D2E/DX2                !
 ! A249  A(31,69,92)           113.2067         estimate D2E/DX2                !
 ! A250  A(67,69,71)           110.6579         estimate D2E/DX2                !
 ! A251  A(67,69,92)           110.0434         estimate D2E/DX2                !
 ! A252  A(71,69,92)           113.075          estimate D2E/DX2                !
 ! A253  A(32,70,68)           108.5636         estimate D2E/DX2                !
 ! A254  A(32,70,72)           101.2102         estimate D2E/DX2                !
 ! A255  A(32,70,90)           113.851          estimate D2E/DX2                !
 ! A256  A(68,70,72)           110.6528         estimate D2E/DX2                !
 ! A257  A(68,70,90)           108.8537         estimate D2E/DX2                !
 ! A258  A(72,70,90)           113.4693         estimate D2E/DX2                !
 ! A259  A(69,71,72)           122.115          estimate D2E/DX2                !
 ! A260  A(69,71,73)           109.7973         estimate D2E/DX2                !
 ! A261  A(72,71,73)           119.8161         estimate D2E/DX2                !
 ! A262  A(70,72,71)           123.3915         estimate D2E/DX2                !
 ! A263  A(70,72,74)           109.708          estimate D2E/DX2                !
 ! A264  A(71,72,74)           118.3872         estimate D2E/DX2                !
 ! A265  A(33,73,71)           107.9322         estimate D2E/DX2                !
 ! A266  A(33,73,75)           119.4444         estimate D2E/DX2                !
 ! A267  A(71,73,75)           122.1043         estimate D2E/DX2                !
 ! A268  A(34,74,72)           109.2229         estimate D2E/DX2                !
 ! A269  A(34,74,76)           118.9758         estimate D2E/DX2                !
 ! A270  A(72,74,76)           121.2928         estimate D2E/DX2                !
 ! A271  A(73,75,76)           117.6246         estimate D2E/DX2                !
 ! A272  A(73,75,77)           122.6647         estimate D2E/DX2                !
 ! A273  A(76,75,77)           110.4717         estimate D2E/DX2                !
 ! A274  A(74,76,75)           120.289          estimate D2E/DX2                !
 ! A275  A(74,76,78)           119.9513         estimate D2E/DX2                !
 ! A276  A(75,76,78)           109.0279         estimate D2E/DX2                !
 ! A277  A(37,77,75)           112.5945         estimate D2E/DX2                !
 ! A278  A(37,77,81)           109.9283         estimate D2E/DX2                !
 ! A279  A(37,77,102)          108.1534         estimate D2E/DX2                !
 ! A280  A(75,77,81)           101.025          estimate D2E/DX2                !
 ! A281  A(75,77,102)          112.19           estimate D2E/DX2                !
 ! A282  A(81,77,102)          112.8987         estimate D2E/DX2                !
 ! A283  A(38,78,76)           121.6772         estimate D2E/DX2                !
 ! A284  A(38,78,81)           122.6            estimate D2E/DX2                !
 ! A285  A(76,78,81)           107.442          estimate D2E/DX2                !
 ! A286  A(39,79,40)           108.6488         estimate D2E/DX2                !
 ! A287  A(39,79,82)           110.4814         estimate D2E/DX2                !
 ! A288  A(39,79,88)           110.7419         estimate D2E/DX2                !
 ! A289  A(40,79,82)           100.7671         estimate D2E/DX2                !
 ! A290  A(40,79,88)           112.6038         estimate D2E/DX2                !
 ! A291  A(82,79,88)           113.1483         estimate D2E/DX2                !
 ! A292  A(41,80,42)           119.839          estimate D2E/DX2                !
 ! A293  A(41,80,82)           107.1986         estimate D2E/DX2                !
 ! A294  A(42,80,82)           122.4582         estimate D2E/DX2                !
 ! A295  A(77,81,78)           111.3957         estimate D2E/DX2                !
 ! A296  A(77,81,82)           121.8773         estimate D2E/DX2                !
 ! A297  A(78,81,82)           119.665          estimate D2E/DX2                !
 ! A298  A(79,82,80)           111.5661         estimate D2E/DX2                !
 ! A299  A(79,82,81)           122.285          estimate D2E/DX2                !
 ! A300  A(80,82,81)           119.2656         estimate D2E/DX2                !
 ! A301  A(55,83,57)           121.1053         estimate D2E/DX2                !
 ! A302  A(55,83,84)           118.1493         estimate D2E/DX2                !
 ! A303  A(57,83,84)           120.05           estimate D2E/DX2                !
 ! A304  A(56,84,58)           116.9457         estimate D2E/DX2                !
 ! A305  A(56,84,83)           122.6478         estimate D2E/DX2                !
 ! A306  A(58,84,83)           119.1023         estimate D2E/DX2                !
 ! D1    D(17,1,5,9)            21.6576         estimate D2E/DX2                !
 ! D2    D(17,1,5,29)         -144.9753         estimate D2E/DX2                !
 ! D3    D(23,1,5,9)           133.8402         estimate D2E/DX2                !
 ! D4    D(23,1,5,29)          -32.7928         estimate D2E/DX2                !
 ! D5    D(96,1,5,9)          -102.8251         estimate D2E/DX2                !
 ! D6    D(96,1,5,29)           90.5419         estimate D2E/DX2                !
 ! D7    D(5,1,17,15)          -23.6942         estimate D2E/DX2                !
 ! D8    D(5,1,17,19)          127.8038         estimate D2E/DX2                !
 ! D9    D(23,1,17,15)        -142.3182         estimate D2E/DX2                !
 ! D10   D(23,1,17,19)           9.1799         estimate D2E/DX2                !
 ! D11   D(96,1,17,15)          98.8121         estimate D2E/DX2                !
 ! D12   D(96,1,17,19)        -109.6899         estimate D2E/DX2                !
 ! D13   D(5,1,23,21)         -133.7023         estimate D2E/DX2                !
 ! D14   D(5,1,23,25)           28.3766         estimate D2E/DX2                !
 ! D15   D(17,1,23,21)         -14.0642         estimate D2E/DX2                !
 ! D16   D(17,1,23,25)         148.0147         estimate D2E/DX2                !
 ! D17   D(96,1,23,21)         104.9242         estimate D2E/DX2                !
 ! D18   D(96,1,23,25)         -92.9969         estimate D2E/DX2                !
 ! D19   D(43,2,6,10)         -136.7802         estimate D2E/DX2                !
 ! D20   D(43,2,6,15)           11.7548         estimate D2E/DX2                !
 ! D21   D(44,2,6,10)          -21.8082         estimate D2E/DX2                !
 ! D22   D(44,2,6,15)          126.7268         estimate D2E/DX2                !
 ! D23   D(85,2,6,10)          102.4061         estimate D2E/DX2                !
 ! D24   D(85,2,6,15)         -109.059          estimate D2E/DX2                !
 ! D25   D(6,2,43,13)           -9.2845         estimate D2E/DX2                !
 ! D26   D(6,2,43,39)          148.3589         estimate D2E/DX2                !
 ! D27   D(44,2,43,13)        -125.469          estimate D2E/DX2                !
 ! D28   D(44,2,43,39)          32.1744         estimate D2E/DX2                !
 ! D29   D(85,2,43,13)         111.7599         estimate D2E/DX2                !
 ! D30   D(85,2,43,39)         -90.5967         estimate D2E/DX2                !
 ! D31   D(6,2,44,40)         -147.3255         estimate D2E/DX2                !
 ! D32   D(6,2,44,47)           18.5731         estimate D2E/DX2                !
 ! D33   D(43,2,44,40)         -37.1288         estimate D2E/DX2                !
 ! D34   D(43,2,44,47)         128.7698         estimate D2E/DX2                !
 ! D35   D(85,2,44,40)          86.9894         estimate D2E/DX2                !
 ! D36   D(85,2,44,47)        -107.1119         estimate D2E/DX2                !
 ! D37   D(18,3,7,12)          -19.8312         estimate D2E/DX2                !
 ! D38   D(18,3,7,30)          136.6644         estimate D2E/DX2                !
 ! D39   D(26,3,7,12)         -138.9497         estimate D2E/DX2                !
 ! D40   D(26,3,7,30)           17.5459         estimate D2E/DX2                !
 ! D41   D(101,3,7,12)         102.7216         estimate D2E/DX2                !
 ! D42   D(101,3,7,30)        -100.7828         estimate D2E/DX2                !
 ! D43   D(7,3,18,16)           27.9089         estimate D2E/DX2                !
 ! D44   D(7,3,18,20)         -135.0741         estimate D2E/DX2                !
 ! D45   D(26,3,18,16)         140.6702         estimate D2E/DX2                !
 ! D46   D(26,3,18,20)         -22.3128         estimate D2E/DX2                !
 ! D47   D(101,3,18,16)        -95.5637         estimate D2E/DX2                !
 ! D48   D(101,3,18,20)        101.4533         estimate D2E/DX2                !
 ! D49   D(7,3,26,24)          140.4388         estimate D2E/DX2                !
 ! D50   D(7,3,26,28)          -20.9394         estimate D2E/DX2                !
 ! D51   D(18,3,26,24)          20.7398         estimate D2E/DX2                !
 ! D52   D(18,3,26,28)        -140.6384         estimate D2E/DX2                !
 ! D53   D(101,3,26,24)       -101.7151         estimate D2E/DX2                !
 ! D54   D(101,3,26,28)         96.9068         estimate D2E/DX2                !
 ! D55   D(45,4,8,11)           23.9392         estimate D2E/DX2                !
 ! D56   D(45,4,8,16)         -126.4535         estimate D2E/DX2                !
 ! D57   D(46,4,8,11)          141.7417         estimate D2E/DX2                !
 ! D58   D(46,4,8,16)           -8.6511         estimate D2E/DX2                !
 ! D59   D(91,4,8,11)          -98.6616         estimate D2E/DX2                !
 ! D60   D(91,4,8,16)          110.9456         estimate D2E/DX2                !
 ! D61   D(8,4,45,41)          143.4092         estimate D2E/DX2                !
 ! D62   D(8,4,45,48)          -23.1295         estimate D2E/DX2                !
 ! D63   D(46,4,45,41)          32.3393         estimate D2E/DX2                !
 ! D64   D(46,4,45,48)        -134.1993         estimate D2E/DX2                !
 ! D65   D(91,4,45,41)         -91.7938         estimate D2E/DX2                !
 ! D66   D(91,4,45,48)         101.6676         estimate D2E/DX2                !
 ! D67   D(8,4,46,14)           10.5177         estimate D2E/DX2                !
 ! D68   D(8,4,46,42)         -144.147          estimate D2E/DX2                !
 ! D69   D(45,4,46,14)         126.8048         estimate D2E/DX2                !
 ! D70   D(45,4,46,42)         -27.86           estimate D2E/DX2                !
 ! D71   D(91,4,46,14)        -110.247          estimate D2E/DX2                !
 ! D72   D(91,4,46,42)          95.0882         estimate D2E/DX2                !
 ! D73   D(1,5,9,13)            -9.407          estimate D2E/DX2                !
 ! D74   D(1,5,9,35)          -168.3431         estimate D2E/DX2                !
 ! D75   D(29,5,9,13)          157.0764         estimate D2E/DX2                !
 ! D76   D(29,5,9,35)           -1.8597         estimate D2E/DX2                !
 ! D77   D(1,5,29,27)           10.7741         estimate D2E/DX2                !
 ! D78   D(1,5,29,31)          174.6715         estimate D2E/DX2                !
 ! D79   D(9,5,29,27)         -155.9974         estimate D2E/DX2                !
 ! D80   D(9,5,29,31)            7.9            estimate D2E/DX2                !
 ! D81   D(2,6,10,49)           -1.1868         estimate D2E/DX2                !
 ! D82   D(2,6,10,53)          148.8315         estimate D2E/DX2                !
 ! D83   D(15,6,10,49)        -147.0466         estimate D2E/DX2                !
 ! D84   D(15,6,10,53)           2.9717         estimate D2E/DX2                !
 ! D85   D(2,6,15,13)          -10.3403         estimate D2E/DX2                !
 ! D86   D(2,6,15,17)         -155.5664         estimate D2E/DX2                !
 ! D87   D(10,6,15,13)         139.6774         estimate D2E/DX2                !
 ! D88   D(10,6,15,17)          -5.5487         estimate D2E/DX2                !
 ! D89   D(3,7,12,14)            2.4397         estimate D2E/DX2                !
 ! D90   D(3,7,12,36)          156.6102         estimate D2E/DX2                !
 ! D91   D(30,7,12,14)        -151.639          estimate D2E/DX2                !
 ! D92   D(30,7,12,36)           2.5315         estimate D2E/DX2                !
 ! D93   D(3,7,30,28)           -8.6008         estimate D2E/DX2                !
 ! D94   D(3,7,30,32)         -163.3684         estimate D2E/DX2                !
 ! D95   D(12,7,30,28)         149.0479         estimate D2E/DX2                !
 ! D96   D(12,7,30,32)          -5.7197         estimate D2E/DX2                !
 ! D97   D(4,8,11,50)            3.2648         estimate D2E/DX2                !
 ! D98   D(4,8,11,54)         -149.2566         estimate D2E/DX2                !
 ! D99   D(16,8,11,50)         151.1679         estimate D2E/DX2                !
 ! D100  D(16,8,11,54)          -1.3535         estimate D2E/DX2                !
 ! D101  D(4,8,16,14)            4.0821         estimate D2E/DX2                !
 ! D102  D(4,8,16,18)          154.1722         estimate D2E/DX2                !
 ! D103  D(11,8,16,14)        -147.2773         estimate D2E/DX2                !
 ! D104  D(11,8,16,18)           2.8128         estimate D2E/DX2                !
 ! D105  D(5,9,13,15)           -3.0405         estimate D2E/DX2                !
 ! D106  D(5,9,13,43)         -147.4277         estimate D2E/DX2                !
 ! D107  D(35,9,13,15)         156.8831         estimate D2E/DX2                !
 ! D108  D(35,9,13,43)          12.4959         estimate D2E/DX2                !
 ! D109  D(5,9,35,33)           -8.3211         estimate D2E/DX2                !
 ! D110  D(5,9,35,37)          151.302          estimate D2E/DX2                !
 ! D111  D(13,9,35,33)        -167.8798         estimate D2E/DX2                !
 ! D112  D(13,9,35,37)          -8.2567         estimate D2E/DX2                !
 ! D113  D(6,10,49,47)          26.9074         estimate D2E/DX2                !
 ! D114  D(6,10,49,51)         144.3512         estimate D2E/DX2                !
 ! D115  D(6,10,49,86)         -95.4725         estimate D2E/DX2                !
 ! D116  D(53,10,49,47)       -125.272          estimate D2E/DX2                !
 ! D117  D(53,10,49,51)         -7.8282         estimate D2E/DX2                !
 ! D118  D(53,10,49,86)        112.348          estimate D2E/DX2                !
 ! D119  D(6,10,53,19)           0.2489         estimate D2E/DX2                !
 ! D120  D(6,10,53,55)        -153.2654         estimate D2E/DX2                !
 ! D121  D(49,10,53,19)        153.3129         estimate D2E/DX2                !
 ! D122  D(49,10,53,55)         -0.2015         estimate D2E/DX2                !
 ! D123  D(8,11,50,48)         -31.0562         estimate D2E/DX2                !
 ! D124  D(8,11,50,52)        -148.0899         estimate D2E/DX2                !
 ! D125  D(8,11,50,87)          91.2511         estimate D2E/DX2                !
 ! D126  D(54,11,50,48)        123.0937         estimate D2E/DX2                !
 ! D127  D(54,11,50,52)          6.06           estimate D2E/DX2                !
 ! D128  D(54,11,50,87)       -114.599          estimate D2E/DX2                !
 ! D129  D(8,11,54,20)           0.2007         estimate D2E/DX2                !
 ! D130  D(8,11,54,56)         159.589          estimate D2E/DX2                !
 ! D131  D(50,11,54,20)       -154.9025         estimate D2E/DX2                !
 ! D132  D(50,11,54,56)          4.4858         estimate D2E/DX2                !
 ! D133  D(7,12,14,16)           7.3149         estimate D2E/DX2                !
 ! D134  D(7,12,14,46)         152.1595         estimate D2E/DX2                !
 ! D135  D(36,12,14,16)       -147.4158         estimate D2E/DX2                !
 ! D136  D(36,12,14,46)         -2.5711         estimate D2E/DX2                !
 ! D137  D(7,12,36,34)           3.8477         estimate D2E/DX2                !
 ! D138  D(7,12,36,38)        -150.5861         estimate D2E/DX2                !
 ! D139  D(14,12,36,34)        157.5879         estimate D2E/DX2                !
 ! D140  D(14,12,36,38)          3.1541         estimate D2E/DX2                !
 ! D141  D(9,13,15,6)         -144.3784         estimate D2E/DX2                !
 ! D142  D(9,13,15,17)           1.3836         estimate D2E/DX2                !
 ! D143  D(43,13,15,6)           4.0788         estimate D2E/DX2                !
 ! D144  D(43,13,15,17)        149.8407         estimate D2E/DX2                !
 ! D145  D(9,13,43,2)          151.966          estimate D2E/DX2                !
 ! D146  D(9,13,43,39)          -6.6651         estimate D2E/DX2                !
 ! D147  D(15,13,43,2)           3.6884         estimate D2E/DX2                !
 ! D148  D(15,13,43,39)       -154.9427         estimate D2E/DX2                !
 ! D149  D(12,14,16,8)         152.0312         estimate D2E/DX2                !
 ! D150  D(12,14,16,18)          2.3672         estimate D2E/DX2                !
 ! D151  D(46,14,16,8)           2.9613         estimate D2E/DX2                !
 ! D152  D(46,14,16,18)       -146.7028         estimate D2E/DX2                !
 ! D153  D(12,14,46,4)        -157.0435         estimate D2E/DX2                !
 ! D154  D(12,14,46,42)         -1.4647         estimate D2E/DX2                !
 ! D155  D(16,14,46,4)          -8.7458         estimate D2E/DX2                !
 ! D156  D(16,14,46,42)        146.8329         estimate D2E/DX2                !
 ! D157  D(6,15,17,1)          154.4495         estimate D2E/DX2                !
 ! D158  D(6,15,17,19)           4.7434         estimate D2E/DX2                !
 ! D159  D(13,15,17,1)          13.1187         estimate D2E/DX2                !
 ! D160  D(13,15,17,19)       -136.5874         estimate D2E/DX2                !
 ! D161  D(8,16,18,3)         -166.673          estimate D2E/DX2                !
 ! D162  D(8,16,18,20)          -2.9926         estimate D2E/DX2                !
 ! D163  D(14,16,18,3)         -21.113          estimate D2E/DX2                !
 ! D164  D(14,16,18,20)        142.5674         estimate D2E/DX2                !
 ! D165  D(1,17,19,21)          -1.2942         estimate D2E/DX2                !
 ! D166  D(1,17,19,53)        -153.7517         estimate D2E/DX2                !
 ! D167  D(15,17,19,21)        151.0456         estimate D2E/DX2                !
 ! D168  D(15,17,19,53)         -1.412          estimate D2E/DX2                !
 ! D169  D(3,18,20,22)           2.982          estimate D2E/DX2                !
 ! D170  D(3,18,20,54)         164.5474         estimate D2E/DX2                !
 ! D171  D(16,18,20,22)       -159.7915         estimate D2E/DX2                !
 ! D172  D(16,18,20,54)          1.774          estimate D2E/DX2                !
 ! D173  D(17,19,21,23)         -7.232          estimate D2E/DX2                !
 ! D174  D(17,19,21,57)       -124.3534         estimate D2E/DX2                !
 ! D175  D(17,19,21,97)        113.0453         estimate D2E/DX2                !
 ! D176  D(53,19,21,23)        144.3014         estimate D2E/DX2                !
 ! D177  D(53,19,21,57)         27.18           estimate D2E/DX2                !
 ! D178  D(53,19,21,97)        -95.4213         estimate D2E/DX2                !
 ! D179  D(17,19,53,10)         -1.068          estimate D2E/DX2                !
 ! D180  D(17,19,53,55)        149.7519         estimate D2E/DX2                !
 ! D181  D(21,19,53,10)       -150.211          estimate D2E/DX2                !
 ! D182  D(21,19,53,55)          0.6089         estimate D2E/DX2                !
 ! D183  D(18,20,22,24)         18.2406         estimate D2E/DX2                !
 ! D184  D(18,20,22,58)        128.54           estimate D2E/DX2                !
 ! D185  D(18,20,22,100)      -107.8695         estimate D2E/DX2                !
 ! D186  D(54,20,22,24)       -143.702          estimate D2E/DX2                !
 ! D187  D(54,20,22,58)        -33.4027         estimate D2E/DX2                !
 ! D188  D(54,20,22,100)        90.1879         estimate D2E/DX2                !
 ! D189  D(18,20,54,11)         -0.4174         estimate D2E/DX2                !
 ! D190  D(18,20,54,56)       -156.6413         estimate D2E/DX2                !
 ! D191  D(22,20,54,11)        161.7464         estimate D2E/DX2                !
 ! D192  D(22,20,54,56)          5.5225         estimate D2E/DX2                !
 ! D193  D(19,21,23,1)          13.4961         estimate D2E/DX2                !
 ! D194  D(19,21,23,25)       -148.4621         estimate D2E/DX2                !
 ! D195  D(57,21,23,1)         130.3272         estimate D2E/DX2                !
 ! D196  D(57,21,23,25)        -31.631          estimate D2E/DX2                !
 ! D197  D(97,21,23,1)        -107.7888         estimate D2E/DX2                !
 ! D198  D(97,21,23,25)         90.253          estimate D2E/DX2                !
 ! D199  D(19,21,57,59)        143.0711         estimate D2E/DX2                !
 ! D200  D(19,21,57,83)        -27.2613         estimate D2E/DX2                !
 ! D201  D(23,21,57,59)         31.8288         estimate D2E/DX2                !
 ! D202  D(23,21,57,83)       -138.5036         estimate D2E/DX2                !
 ! D203  D(97,21,57,59)        -91.7808         estimate D2E/DX2                !
 ! D204  D(97,21,57,83)         97.8868         estimate D2E/DX2                !
 ! D205  D(20,22,24,26)        -20.5402         estimate D2E/DX2                !
 ! D206  D(20,22,24,62)        138.4456         estimate D2E/DX2                !
 ! D207  D(58,22,24,26)       -136.0801         estimate D2E/DX2                !
 ! D208  D(58,22,24,62)         22.9056         estimate D2E/DX2                !
 ! D209  D(100,22,24,26)       104.8992         estimate D2E/DX2                !
 ! D210  D(100,22,24,62)       -96.115          estimate D2E/DX2                !
 ! D211  D(20,22,58,60)       -132.3353         estimate D2E/DX2                !
 ! D212  D(20,22,58,84)         29.9324         estimate D2E/DX2                !
 ! D213  D(24,22,58,60)        -14.3707         estimate D2E/DX2                !
 ! D214  D(24,22,58,84)        147.897          estimate D2E/DX2                !
 ! D215  D(100,22,58,60)       104.7372         estimate D2E/DX2                !
 ! D216  D(100,22,58,84)       -92.9951         estimate D2E/DX2                !
 ! D217  D(1,23,25,27)          -0.4544         estimate D2E/DX2                !
 ! D218  D(1,23,25,61)        -156.2659         estimate D2E/DX2                !
 ! D219  D(21,23,25,27)        159.7847         estimate D2E/DX2                !
 ! D220  D(21,23,25,61)          3.9732         estimate D2E/DX2                !
 ! D221  D(22,24,26,3)           0.5764         estimate D2E/DX2                !
 ! D222  D(22,24,26,28)        159.8309         estimate D2E/DX2                !
 ! D223  D(62,24,26,3)        -156.2936         estimate D2E/DX2                !
 ! D224  D(62,24,26,28)          2.961          estimate D2E/DX2                !
 ! D225  D(22,24,62,60)        -22.2608         estimate D2E/DX2                !
 ! D226  D(22,24,62,64)       -136.8363         estimate D2E/DX2                !
 ! D227  D(22,24,62,94)         97.9153         estimate D2E/DX2                !
 ! D228  D(26,24,62,60)        137.2218         estimate D2E/DX2                !
 ! D229  D(26,24,62,64)         22.6463         estimate D2E/DX2                !
 ! D230  D(26,24,62,94)       -102.6021         estimate D2E/DX2                !
 ! D231  D(23,25,27,29)        -22.7608         estimate D2E/DX2                !
 ! D232  D(23,25,27,65)       -137.1149         estimate D2E/DX2                !
 ! D233  D(23,25,27,93)        102.9191         estimate D2E/DX2                !
 ! D234  D(61,25,27,29)        135.2567         estimate D2E/DX2                !
 ! D235  D(61,25,27,65)         20.9025         estimate D2E/DX2                !
 ! D236  D(61,25,27,93)        -99.0634         estimate D2E/DX2                !
 ! D237  D(23,25,61,59)         22.6213         estimate D2E/DX2                !
 ! D238  D(23,25,61,63)        136.9972         estimate D2E/DX2                !
 ! D239  D(23,25,61,95)       -102.8202         estimate D2E/DX2                !
 ! D240  D(27,25,61,59)       -135.4999         estimate D2E/DX2                !
 ! D241  D(27,25,61,63)        -21.124          estimate D2E/DX2                !
 ! D242  D(27,25,61,95)         99.0585         estimate D2E/DX2                !
 ! D243  D(3,26,28,30)          16.2404         estimate D2E/DX2                !
 ! D244  D(3,26,28,66)         131.6786         estimate D2E/DX2                !
 ! D245  D(3,26,28,89)        -105.2918         estimate D2E/DX2                !
 ! D246  D(24,26,28,30)       -145.0616         estimate D2E/DX2                !
 ! D247  D(24,26,28,66)        -29.6234         estimate D2E/DX2                !
 ! D248  D(24,26,28,89)         93.4062         estimate D2E/DX2                !
 ! D249  D(25,27,29,5)          17.0975         estimate D2E/DX2                !
 ! D250  D(25,27,29,31)       -147.2456         estimate D2E/DX2                !
 ! D251  D(65,27,29,5)         126.7769         estimate D2E/DX2                !
 ! D252  D(65,27,29,31)        -37.5662         estimate D2E/DX2                !
[...]
 Alpha virt. eigenvalues --    1.60569   1.60829   1.61096   1.61487   1.61989
 Alpha virt. eigenvalues --    1.62069   1.62464   1.62604   1.63006   1.63218
 Alpha virt. eigenvalues --    1.63407   1.63607   1.63947   1.64115   1.64383
 Alpha virt. eigenvalues --    1.64535   1.64755   1.65147   1.65609   1.65809
 Alpha virt. eigenvalues --    1.66065   1.66232   1.66535   1.66588   1.66630
 Alpha virt. eigenvalues --    1.67003   1.67139   1.67556   1.67691   1.67789
 Alpha virt. eigenvalues --    1.67866   1.68205   1.68508   1.68672   1.69014
 Alpha virt. eigenvalues --    1.69058   1.69420   1.69711   1.69900   1.70239
 Alpha virt. eigenvalues --    1.70560   1.70741   1.70820   1.71400   1.71518
 Alpha virt. eigenvalues --    1.71624   1.71733   1.71952   1.72240   1.72321
 Alpha virt. eigenvalues --    1.72506   1.72713   1.73016   1.73256   1.73496
 Alpha virt. eigenvalues --    1.73673   1.73962   1.74253   1.74350   1.74597
 Alpha virt. eigenvalues --    1.74738   1.74818   1.75274   1.75440   1.75730
 Alpha virt. eigenvalues --    1.75843   1.76161   1.76341   1.76668   1.76737
 Alpha virt. eigenvalues --    1.76829   1.77100   1.77466   1.77867   1.77970
 Alpha virt. eigenvalues --    1.78165   1.78527   1.78657   1.78938   1.79010
 Alpha virt. eigenvalues --    1.79403   1.79567   1.79872   1.79976   1.80362
 Alpha virt. eigenvalues --    1.80598   1.80786   1.80892   1.81162   1.81554
 Alpha virt. eigenvalues --    1.81660   1.81892   1.82199   1.82399   1.82593
 Alpha virt. eigenvalues --    1.82949   1.83073   1.83258   1.83604   1.83968
 Alpha virt. eigenvalues --    1.84048   1.84441   1.84657   1.84807   1.85612
 Alpha virt. eigenvalues --    1.85623   1.85804   1.86194   1.86461   1.86717
 Alpha virt. eigenvalues --    1.86868   1.87144   1.87542   1.88032   1.88102
 Alpha virt. eigenvalues --    1.88804   1.89217   1.89744   1.90001   1.90233
 Alpha virt. eigenvalues --    1.90343   1.90568   1.91143   1.91388   1.91751
 Alpha virt. eigenvalues --    1.91954   1.92173   1.92529   1.93063   1.93211
 Alpha virt. eigenvalues --    1.93559   1.93890   1.94203   1.95224   1.95420
 Alpha virt. eigenvalues --    1.95781   1.96125   1.96393   1.96672   1.96946
 Alpha virt. eigenvalues --    1.97058   1.97368   1.97841   1.98258   1.98863
 Alpha virt. eigenvalues --    1.99072   1.99311   1.99728   2.00265   2.00355
 Alpha virt. eigenvalues --    2.00829   2.00993   2.01490   2.02012   2.02161
 Alpha virt. eigenvalues --    2.02532   2.02751   2.03108   2.03361   2.03769
 Alpha virt. eigenvalues --    2.03854   2.04189   2.05112   2.05213   2.05606
 Alpha virt. eigenvalues --    2.05963   2.06421   2.06533   2.07219   2.07525
 Alpha virt. eigenvalues --    2.07721   2.08376   2.08778   2.08882   2.09286
 Alpha virt. eigenvalues --    2.09604   2.10055   2.10150   2.10561   2.11285
 Alpha virt. eigenvalues --    2.11665   2.12027   2.12452   2.12652   2.12873
 Alpha virt. eigenvalues --    2.13372   2.13867   2.13897   2.14061   2.14936
 Alpha virt. eigenvalues --    2.15357   2.15999   2.16179   2.16554   2.16754
 Alpha virt. eigenvalues --    2.17194   2.17568   2.17999   2.18290   2.18925
 Alpha virt. eigenvalues --    2.19156   2.19332   2.19589   2.20343   2.20600
 Alpha virt. eigenvalues --    2.20665   2.21065   2.21391   2.21784   2.22078
 Alpha virt. eigenvalues --    2.22490   2.22806   2.23351   2.23709   2.24004
 Alpha virt. eigenvalues --    2.24517   2.24853   2.25452   2.25636   2.25811
 Alpha virt. eigenvalues --    2.26773   2.26892   2.27648   2.28281   2.28446
 Alpha virt. eigenvalues --    2.28695   2.29100   2.29649   2.29973   2.30189
 Alpha virt. eigenvalues --    2.30592   2.30937   2.31427   2.32234   2.32580
 Alpha virt. eigenvalues --    2.32729   2.33411   2.34244   2.34579   2.35395
 Alpha virt. eigenvalues --    2.36166   2.36267   2.36589   2.37368   2.38073
 Alpha virt. eigenvalues --    2.38438   2.38797   2.39070   2.39865   2.40200
 Alpha virt. eigenvalues --    2.40288   2.40838   2.41293   2.42106   2.42650
 Alpha virt. eigenvalues --    2.42721   2.43600   2.43852   2.44363   2.44670
 Alpha virt. eigenvalues --    2.45197   2.45581   2.46134   2.46596   2.46979
 Alpha virt. eigenvalues --    2.47572   2.47679   2.47849   2.48622   2.49541
 Alpha virt. eigenvalues --    2.49856   2.50011   2.50814   2.51119   2.51254
 Alpha virt. eigenvalues --    2.51560   2.52081   2.52716   2.53043   2.53384
 Alpha virt. eigenvalues --    2.53723   2.53880   2.54501   2.54847   2.55060
 Alpha virt. eigenvalues --    2.55726   2.56026   2.56326   2.56803   2.57108
 Alpha virt. eigenvalues --    2.57238   2.57735   2.57888   2.58192   2.58461
 Alpha virt. eigenvalues --    2.58825   2.59535   2.59831   2.60053   2.60532
 Alpha virt. eigenvalues --    2.61001   2.61330   2.61622   2.61771   2.62094
 Alpha virt. eigenvalues --    2.62394   2.62843   2.63053   2.63491   2.63728
 Alpha virt. eigenvalues --    2.64491   2.65138   2.65407   2.65569   2.66009
 Alpha virt. eigenvalues --    2.66201   2.66564   2.67065   2.67382   2.67641
 Alpha virt. eigenvalues --    2.68128   2.68624   2.68744   2.69020   2.69574
 Alpha virt. eigenvalues --    2.70091   2.70287   2.70757   2.71100   2.71263
 Alpha virt. eigenvalues --    2.71843   2.72240   2.72290   2.72513   2.72871
 Alpha virt. eigenvalues --    2.73166   2.73530   2.73924   2.74258   2.74745
 Alpha virt. eigenvalues --    2.75005   2.75371   2.75514   2.76124   2.76185
 Alpha virt. eigenvalues --    2.76657   2.77554   2.77785   2.78080   2.78317
 Alpha virt. eigenvalues --    2.78870   2.79596   2.79913   2.80463   2.81046
 Alpha virt. eigenvalues --    2.81379   2.81671   2.82213   2.82369   2.82953
 Alpha virt. eigenvalues --    2.83178   2.83684   2.84277   2.84611   2.85553
 Alpha virt. eigenvalues --    2.85680   2.85994   2.86376   2.87124   2.87518
 Alpha virt. eigenvalues --    2.87711   2.88311   2.88924   2.89623   2.89944
 Alpha virt. eigenvalues --    2.91204   2.91289   2.92234   2.92875   2.93547
 Alpha virt. eigenvalues --    2.94140   2.94673   2.95851   2.95995   2.97326
 Alpha virt. eigenvalues --    2.98523   2.98906   2.99664   3.00990   3.01870
 Alpha virt. eigenvalues --    3.03976   3.05787   3.07371   3.08391   3.08533
 Alpha virt. eigenvalues --    3.08974   3.09927   3.10936   3.12308   3.13968
 Alpha virt. eigenvalues --    3.14861   3.15583   3.15966   3.18218   3.18546
 Alpha virt. eigenvalues --    3.19391   3.19811   3.22371   3.23617   3.24999
 Alpha virt. eigenvalues --    3.26534   3.28273   3.29026   3.31436   3.33801
 Alpha virt. eigenvalues --    3.35677   3.38124   3.39975   3.40720   3.42623
 Alpha virt. eigenvalues --    3.43159   3.47203   3.49105   3.50002   3.54058
 Alpha virt. eigenvalues --    4.00096   4.01720   4.02924   4.03115   4.04287
 Alpha virt. eigenvalues --    4.04835   4.05349   4.05901   4.07021   4.07530
 Alpha virt. eigenvalues --    4.08322   4.08902   4.09320   4.10160   4.10391
 Alpha virt. eigenvalues --    4.11415   4.12371   4.13271   4.13774   4.14226
 Alpha virt. eigenvalues --    4.14930   4.16107   4.16818   4.17456   4.17978
 Alpha virt. eigenvalues --    4.18179   4.18561   4.19921   4.20507   4.21005
 Alpha virt. eigenvalues --    4.21954   4.22688   4.23055   4.23735   4.24703
 Alpha virt. eigenvalues --    4.25317   4.25873   4.26137   4.26648   4.26937
 Alpha virt. eigenvalues --    4.27193   4.27609   4.27820   4.28124   4.29013
 Alpha virt. eigenvalues --    4.29540   4.29970   4.30166   4.30465   4.30621
 Alpha virt. eigenvalues --    4.33319   4.34237   4.34558   4.35409   4.35860
 Alpha virt. eigenvalues --    4.37175   4.38563   4.39234   4.39815   4.40464
 Alpha virt. eigenvalues --    4.40788   4.41422   4.41976   4.42662   4.42981
 Alpha virt. eigenvalues --    4.43776   4.44790   4.46333   4.47586   4.47942
 Alpha virt. eigenvalues --    4.48923   4.50281   4.52061   4.53033   4.53118
 Alpha virt. eigenvalues --    4.54816   4.56453   4.58431   4.59674   4.60773
 Alpha virt. eigenvalues --    4.63173   4.63737   4.65825   4.66618   4.68818
 Alpha virt. eigenvalues --    4.70146   4.74699   4.77985   4.79103   4.79310
 Alpha virt. eigenvalues --    4.81138   4.81936   4.84706   4.88865   4.93292
 Alpha virt. eigenvalues --    4.95116   4.96412   5.02771   5.03242   5.06397
 Alpha virt. eigenvalues --    5.15256   5.20305
          Condensed to atoms (all electrons):
 Mulliken charges:
               1
     1  C   -0.356019
     2  C   -0.389887
     3  C   -0.358262
     4  C   -0.376240
     5  C    0.092094
     6  C    0.085929
     7  C    0.073839
     8  C    0.086381
     9  C    0.065355
    10  C    0.129812
    11  C    0.129308
    12  C    0.061858
    13  C   -0.016088
    14  C   -0.007926
    15  C    0.035042
    16  C    0.040937
    17  C    0.100706
    18  C    0.117070
    19  C    0.125977
    20  C    0.149994
    21  C   -0.379135
    22  C   -0.384481
    23  C    0.178224
    24  C    0.181979
    25  C    0.188784
    26  C    0.180128
    27  C   -0.377894
    28  C   -0.374232
    29  C    0.154199
    30  C    0.134456
    31  C    0.085859
    32  C    0.083106
    33  C   -0.013420
    34  C    0.011775
    35  C    0.056766
    36  C    0.037995
    37  C    0.094971
    38  C    0.038227
    39  C    0.154567
    40  C    0.079163
    41  C    0.039896
    42  C    0.063879
    43  C    0.087108
    44  C    0.154261
    45  C    0.127388
    46  C    0.052647
    47  C    0.113594
    48  C    0.128725
    49  C   -0.373652
    50  C   -0.375952
    51  C    0.180161
    52  C    0.186251
    53  C    0.116064
    54  C    0.107206
    55  C   -0.374950
    56  C   -0.379668
    57  C    0.122763
    58  C    0.116471
    59  C    0.144248
    60  C    0.117294
    61  C   -0.384120
    62  C   -0.382524
    63  C    0.115978
    64  C    0.144764
    65  C    0.116880
    66  C    0.124388
    67  C    0.140640
    68  C    0.124731
    69  C   -0.384314
    70  C   -0.383036
    71  C    0.089154
    72  C    0.099020
    73  C    0.042714
    74  C    0.011393
    75  C    0.067432
    76  C    0.021644
    77  C   -0.359377
    78  C    0.007934
    79  C   -0.384576
    80  C   -0.010821
    81  C    0.092139
    82  C    0.094468
    83  C    0.125592
    84  C    0.145636
    85  Cl   0.029665
    86  Cl   0.025144
    87  Cl   0.029963
    88  Cl   0.028104
    89  Cl   0.031461
    90  Cl   0.025992
    91  Cl   0.013930
    92  Cl   0.026957
    93  Cl   0.034536
    94  Cl   0.035718
    95  Cl   0.036009
    96  Cl   0.009303
    97  Cl   0.029892
    98  Cl   0.027431
    99  Cl   0.029482
   100  Cl   0.030233
   101  Cl   0.003376
   102  Cl   0.002420
 Sum of Mulliken charges =  -0.00000
 Mulliken charges with hydrogens summed into heavy atoms:
               1
     1  C   -0.356019
     2  C   -0.389887
     3  C   -0.358262
     4  C   -0.376240
     5  C    0.092094
     6  C    0.085929
     7  C    0.073839
     8  C    0.086381
     9  C    0.065355
    10  C    0.129812
    11  C    0.129308
    12  C    0.061858
    13  C   -0.016088
    14  C   -0.007926
    15  C    0.035042
    16  C    0.040937
    17  C    0.100706
    18  C    0.117070
    19  C    0.125977
    20  C    0.149994
    21  C   -0.379135
    22  C   -0.384481
    23  C    0.178224
    24  C    0.181979
    25  C    0.188784
    26  C    0.180128
    27  C   -0.377894
    28  C   -0.374232
    29  C    0.154199
    30  C    0.134456
    31  C    0.085859
    32  C    0.083106
    33  C   -0.013420
    34  C    0.011775
    35  C    0.056766
    36  C    0.037995
    37  C    0.094971
    38  C    0.038227
    39  C    0.154567
    40  C    0.079163
    41  C    0.039896
    42  C    0.063879
    43  C    0.087108
    44  C    0.154261
    45  C    0.127388
    46  C    0.052647
    47  C    0.113594
    48  C    0.128725
    49  C   -0.373652
    50  C   -0.375952
    51  C    0.180161
    52  C    0.186251
    53  C    0.116064
    54  C    0.107206
    55  C   -0.374950
    56  C   -0.379668
    57  C    0.122763
    58  C    0.116471
    59  C    0.144248
    60  C    0.117294
    61  C   -0.384120
    62  C   -0.382524
    63  C    0.115978
    64  C    0.144764
    65  C    0.116880
    66  C    0.124388
    67  C    0.140640
    68  C    0.124731
    69  C   -0.384314
    70  C   -0.383036
    71  C    0.089154
    72  C    0.099020
    73  C    0.042714
    74  C    0.011393
    75  C    0.067432
    76  C    0.021644
    77  C   -0.359377
    78  C    0.007934
    79  C   -0.384576
    80  C   -0.010821
    81  C    0.092139
    82  C    0.094468
    83  C    0.125592
    84  C    0.145636
    85  Cl   0.029665
    86  Cl   0.025144
    87  Cl   0.029963
    88  Cl   0.028104
    89  Cl   0.031461
    90  Cl   0.025992
    91  Cl   0.013930
    92  Cl   0.026957
    93  Cl   0.034536
    94  Cl   0.035718
    95  Cl   0.036009
    96  Cl   0.009303
    97  Cl   0.029892
    98  Cl   0.027431
    99  Cl   0.029482
   100  Cl   0.030233
   101  Cl   0.003376
   102  Cl   0.002420
 Electronic spatial extent (au):  <R**2>=          76516.6540
 Charge=              0.0000 electrons
 Dipole moment (field-independent basis, Debye):
    X=              0.2550    Y=              3.8499    Z=             -2.9897  Tot=              4.8811
 Quadrupole moment (field-independent basis, Debye-Ang):
   XX=           -733.7286   YY=           -723.1247   ZZ=           -708.4813
   XY=              3.5945   XZ=             -5.7002   YZ=             -4.3648
 Traceless Quadrupole moment (field-independent basis, Debye-Ang):
   XX=            -11.9504   YY=             -1.3465   ZZ=             13.2969
   XY=              3.5945   XZ=             -5.7002   YZ=             -4.3648
 Octapole moment (field-independent basis, Debye-Ang**2):
  XXX=             10.6095  YYY=            -62.4121  ZZZ=            -31.8194  XYY=             21.5419
  XXY=             -4.2740  XXZ=             30.4314  XZZ=            -10.0056  YZZ=             19.8708
  YYZ=             41.6282  XYZ=            -31.5031
 Hexadecapole moment (field-independent basis, Debye-Ang**3):
 XXXX=         -39594.4291 YYYY=         -35637.2633 ZZZZ=         -31839.1850 XXXY=           -157.5211
 XXXZ=            164.5372 YYYX=             63.9302 YYYZ=             93.7119 ZZZX=            -37.3129
 ZZZY=           -130.8493 XXYY=         -12556.2696 XXZZ=         -11903.1353 YYZZ=         -11135.1399
 XXYZ=            -41.9521 YYXZ=             36.0184 ZZXY=              1.5268
 N-N= 3.013542094964D+04 E-N=-8.734499981716D+04  KE= 1.142942985341D+04
 Leave Link  601 at Wed Jun 29 04:59:20 2022, MaxMem=  1342177280 cpu:              18.7 elap:               1.1
 (Enter /home/mkliu/g16/l9999.exe)
 1\1\GINC-NODE01\FOpt\RB3LYP\6-31G(d,p)\C84Cl18\MKLIU\29-Jun-2022\0\\#P
  opt b3lyp/6-31G(d, p) empiricaldispersion=GD3\\force\\0,1\C,8.4294387
 228,18.6480568785,10.7914558763\C,12.5892347712,19.9860542456,8.868508
 6094\C,8.2299503032,27.1254222915,10.5797341101\C,12.4863525777,25.747
 0704361,8.9086602558\C,8.0185368151,19.1633356069,9.4121725428\C,12.05
 5349503,19.5130157163,10.1995936111\C,7.9597913146,26.8249601042,9.117
 1164804\C,11.8729025574,26.1628428646,10.2230030492\C,8.9918285996,19.
 2753573488,8.3529742921\C,12.3112754941,20.1666070475,11.3877204147\C,
 12.118282399,25.4881922539,11.3945938711\C,8.957242512,26.6366584461,8
 .134948943\C,10.3678909313,19.102226193,8.6540458415\C,10.313604174,26
 .6791603773,8.5837201258\C,10.8172253741,18.8754355171,10.0211731407\C
 ,10.6221751614,26.7591887782,10.0179317853\C,9.8997472831,18.797083361
 1,11.0513141832\C,9.6286545395,26.7430450048,11.0014103787\C,10.168935
 7442,19.4482628891,12.2603576032\C,9.8824730314,26.047326654,12.201584
 2852\C,8.8995851444,19.8480923023,12.9595661763\C,8.7432175345,25.6020
 867626,13.0891141296\C,7.8588583794,19.504272187,11.9043675178\C,7.418
 2649044,25.5804348866,12.3597840605\C,6.7392261817,20.1972267532,11.75
 30978467\C,7.1802180667,26.2672556534,11.2475399231\C,5.9383885059,20.
 1719842216,10.4748856665\C,6.0572121199,25.9177950231,10.2887720156\C,
 6.776230395,19.7775629949,9.2719944708\C,6.6922449211,26.2591960058,8.
 9685611376\C,6.430133343,20.3622186632,8.0400345783\C,6.3560262927,25.
 6028697191,7.8070807052\C,7.332149216,20.4117149932,6.9823583275\C,7.3
 076262995,25.4576762249,6.7813835638\C,8.6828880085,19.9916768093,7.14
 44580661\C,8.6552103439,25.8956517732,6.93816229\C,9.7267181956,20.645
 7902137,6.393841765\C,9.7136415273,25.155776357,6.2614141781\C,11.0459
 958546,20.602352294,6.8618531179\C,12.7603225205,22.17424183,7.7453376
 1\C,12.7032332436,23.5719534987,7.7648786325\C,11.0515776111,25.178542
 7377,6.8048419626\C,11.359011826,19.7881821091,7.962844511\C,12.949967
 8036,21.458399286,8.9195135216\C,12.8795109067,24.2846806528,8.9484701
 484\C,11.3223140807,25.9970508323,7.9424713827\C,13.1537123863,22.1626
 66461,10.1350991231\C,13.1199590812,23.5752923627,10.1453432333\C,13.1
 729553588,21.4008700484,11.46251708\C,13.0812416689,24.330294723,11.47
 86616071\C,12.4694204735,22.178327826,12.5575565081\C,12.4348210218,23
 .503555738,12.5656645819\C,11.358452899,20.1355440074,12.4231113335\C,
 11.1247247821,25.4323061895,12.3844861705\C,11.4672939134,21.333069435
 7,13.3209409806\C,11.3826081501,24.2744448467,13.3280295572\C,8.903315
 2275,21.3445567564,13.2682135981\C,8.901825987,24.1316735956,13.427729
 4403\C,7.6937700601,22.0518246265,13.1427209908\C,7.7088213495,23.4408
 231939,13.2403291085\C,6.4357455583,21.4190914049,12.5792827138\C,6.61
 28210831,24.3596610546,12.7284700065\C,5.8474475614,22.3333925392,11.5
 199842742\C,5.9501269294,23.7236427594,11.5214113086\C,5.5623483912,21
 .6387599684,10.3503751582\C,5.7198802451,24.4251217725,10.3268330529\C
 ,5.3531464699,22.3099395323,9.1448533431\C,5.4091069794,23.7195165687,
 9.1328390623\C,5.3684298392,21.4602628017,7.8828430448\C,5.3516956708,
 24.4633398276,7.7933870192\C,5.9067626097,22.2354622061,6.7031183135\C
 ,5.8932566222,23.6033454686,6.6621329795\C,6.9818463609,21.515806063,6
 .0989796059\C,6.9712935672,24.2794697795,6.0193697209\C,7.9601326114,2
 2.1519539648,5.3734208157\C,7.9801904132,23.5702647569,5.3837701535\C,
 9.3689254804,21.6085109774,5.2577260088\C,9.3521891647,24.0197812122,5
 .4781126601\C,12.0861850631,21.6410236087,6.4793265305\C,11.8670611625
 ,24.0346609271,6.6502940276\C,10.1907891232,22.8870641526,5.366579641\
 C,11.4366716213,22.8999568479,5.9463247834\C,10.120834324,22.048672288
 9,13.4454872516\C,10.1171694393,23.454697919,13.5069614064\Cl,14.02937
 03916,18.9776606623,8.3326654339\Cl,14.9137652537,20.9882594561,11.918
 566656\Cl,14.7806385006,24.8758643295,11.9335006251\Cl,13.2983600183,2
 0.9479141025,5.2835700555\Cl,4.5441396979,26.9092202848,10.6327166306\
 Cl,3.6312936621,25.0222419055,7.4658087946\Cl,13.9507513655,26.7788870
 128,8.4584951786\Cl,3.6901564256,20.7949066441,7.5306148285\Cl,4.46637
 77779,19.0780650169,10.6415526987\Cl,5.3589792635,24.7414405179,14.022
 3461986\Cl,5.233008758,21.0483551784,13.9232492129\Cl,7.907432068,16.8
 730858316,10.9529912125\Cl,8.6316865339,18.8957824454,14.5150483402\Cl
 ,12.0861919352,20.8865835764,15.0019802444\Cl,12.0154540864,24.8488096
 375,14.9639409132\Cl,8.6567136768,26.6480298895,14.6059715868\Cl,7.955
 1126473,28.9317005846,10.9397543201\Cl,9.6190512954,20.74741545,3.6356
 771614\\Version=ES64L-G16RevA.03\State=1-A\HF=-11484.6458731\RMSD=9.93
 0e-09\RMSF=1.610e-05\Dipole=0.0694937,0.2792076,-1.8987016\Quadrupole=
 -9.6510391,4.7866966,4.8643425,0.4900254,2.3588102,-6.9862305\PG=C01 [
 X(C84Cl18)]\\@


 THERE'S NOTHING SO GREAT AS THE GREAT OUTDOORS.

                                       -- ZIGGY
 Job cpu time:       1 days 14 hours 50 minutes 38.6 seconds.
 Elapsed time:       0 days  1 hours 37 minutes 15.5 seconds.
 File lengths (MBytes):  RWF=   1574 Int=      0 D2E=      0 Chk=    196 Scr=      1
 Normal termination of Gaussian 16 at Wed Jun 29 04:59:21 2022.
