 Entering Gaussian System, Link 0=g16
 Input=18_addons_C84_11_Cl22_rank_1.gjf
 Output=18_addons_C84_11_Cl22_rank_1.log
 Initial command:
 /home/mkliu/g16/l1.exe "/data/scratch/Gau-29614.inp" -scrdir="/data/scratch/"
 Entering Link 1 = /home/mkliu/g16/l1.exe PID=     29615.
  
 Copyright (c) 1988,1990,1992,1993,1995,1998,2003,2009,2016,
            Gaussian, Inc.  All Rights Reserved.
  
 This is part of the Gaussian(R) 16 program.  It is based on
 the Gaussian(R) 09 system (copyright 2009, Gaussian, Inc.),
 the Gaussian(R) 03 system (copyright 2003, Gaussian, Inc.),
 the Gaussian(R) 98 system (copyright 1998, Gaussian, Inc.),
 the Gaussian(R) 94 system (copyright 1995, Gaussian, Inc.),
 the Gaussian 92(TM) system (copyright 1992, Gaussian, Inc.),
 the Gaussian 90(TM) system (copyright 1990, Gaussian, Inc.),
 the Gaussian 88(TM) system (copyright 1988, Gaussian, Inc.),
 the Gaussian 86(TM) system (copyright 1986, Carnegie Mellon
 University), and the Gaussian 82(TM) system (copyright 1983,
 Carnegie Mellon University). Gaussian is a federally registered
 trademark of Gaussian, Inc.
  
 This software contains proprietary and confidential information,
 including trade secrets, belonging to Gaussian, Inc.
  
 This software is provided under written license and may be
 used, copied, transmitted, or stored only in accord with that
 written license.
  
 The following legend is applicable only to US Government
 contracts under FAR:
  
                    RESTRICTED RIGHTS LEGEND
  
 Use, reproduction and disclosure by the US Government is
 subject to restrictions as set forth in subparagraphs (a)
 and (c) of the Commercial Computer Software - Restricted
 Rights clause in FAR 52.227-19.
  
 Gaussian, Inc.
 340 Quinnipiac St., Bldg. 40, Wallingford CT 06492
  
  
 ---------------------------------------------------------------
 Warning -- This program may not be used in any manner that
 competes with the business of Gaussian, Inc. or will provide
 assistance to any competitor of Gaussian, Inc.  The licensee
 of this program is prohibited from giving any competitor of
 Gaussian, Inc. access to this program.  By using this program,
 the user acknowledges that Gaussian, Inc. is engaged in the
 business of creating and licensing software in the field of
 computational chemistry and represents and warrants to the
 licensee that it is not a competitor of Gaussian, Inc. and that
 it will not use this program in any manner prohibited above.
 ---------------------------------------------------------------
  

 Cite this work as:
 Gaussian 16, Revision A.03,
 M. J. Frisch, G. W. Trucks, H. B. Schlegel, G. E. Scuseria, 
 M. A. Robb, J. R. Cheeseman, G. Scalmani, V. Barone, 
 G. A. Petersson, H. Nakatsuji, X. Li, M. Caricato, A. V. Marenich, 
 J. Bloino, B. G. Janesko, R. Gomperts, B. Mennucci, H. P. Hratchian, 
 J. V. Ortiz, A. F. Izmaylov, J. L. Sonnenberg, D. Williams-Young, 
 F. Ding, F. Lipparini, F. Egidi, J. Goings, B. Peng, A. Petrone, 
 T. Henderson, D. Ranasinghe, V. G. Zakrzewski, J. Gao, N. Rega, 
 G. Zheng, W. Liang, M. Hada, M. Ehara, K. Toyota, R. Fukuda, 
 J. Hasegawa, M. Ishida, T. Nakajima, Y. Honda, O. Kitao, H. Nakai, 
 T. Vreven, K. Throssell, J. A. Montgomery, Jr., J. E. Peralta, 
 F. Ogliaro, M. J. Bearpark, J. J. Heyd, E. N. Brothers, K. N. Kudin, 
 V. N. Staroverov, T. A. Keith, R. Kobayashi, J. Normand, 
 K. Raghavachari, A. P. Rendell, J. C. Burant, S. S. Iyengar, 
 J. Tomasi, M. Cossi, J. M. Millam, M. Klene, C. Adamo, R. Cammi, 
 J. W. Ochterski, R. L. Martin, K. Morokuma, O. Farkas, 
 J. B. Foresman, and D. J. Fox, Gaussian, Inc., Wallingford CT, 2016.
 
 ******************************************
 Gaussian 16:  ES64L-G16RevA.03 25-Dec-2016
                28-Jun-2022 
 ******************************************
 %mem=10GB
 %chk=18_addons_C84_11_Cl22_rank_1.chk
 %nprocshared=24
 Will use up to   24 processors via shared memory.
 ------------------------------------------------
 #P opt b3lyp/6-31G(d, p) empiricaldispersion=GD3
 ------------------------------------------------
 1/18=20,19=15,26=3,38=1/1,3;
 2/9=110,12=2,17=6,18=5,40=1/2;
 3/5=1,6=6,7=101,11=2,25=1,30=1,71=1,74=-5,124=31/1,2,3;
 4//1;
 5/5=2,38=5/2;
 6/7=2,8=2,9=2,10=2,28=1/1;
 7//1,2,3,16;
 1/18=20,19=15,26=3/3(2);
 2/9=110/2;
 99//99;
 2/9=110/2;
 3/5=1,6=6,7=101,11=2,25=1,30=1,71=1,74=-5,124=31/1,2,3;
 4/5=5,16=3,69=1/1;
 5/5=2,38=5/2;
 7//1,2,3,16;
 1/18=20,19=15,26=3/3(-5);
 2/9=110/2;
 6/7=2,8=2,9=2,10=2,19=2,28=1/1;
 99/9=1/99;
 Leave Link    1 at Tue Jun 28 22:49:20 2022, MaxMem=  1342177280 cpu:               0.6 elap:               0.0
 (Enter /home/mkliu/g16/l101.exe)
 -----
 force
 -----
 Symbolic Z-matrix:
 Charge =  0 Multiplicity = 1
 C                     8.43176   18.63482   10.82793 
 C                     12.57925   19.98107   8.91405 
 C                     8.27543   26.82488   10.5355 
 C                     12.48221   25.73259   8.93562 
 C                     8.02859   19.15586   9.46518 
 C                     12.07859   19.49112   10.24108 
 C                     7.8943    27.08653   9.10162 
 C                     11.9088   26.19813   10.23974 
 C                     8.9982    19.272    8.42523 
 C                     12.35377   20.13804   11.40619 
 C                     12.12573   25.5165   11.36904 
 C                     8.97024   26.56436   8.18688 
 C                     10.36899   19.09139   8.72279 
 C                     10.27069   26.60862   8.65639 
 C                     10.81983   18.83743   10.07058 
 C                     10.68247   27.04555   10.03424 
 C                     9.90559   18.73665   11.08244 
 C                     9.57003   26.74783   10.99769 
 C                     10.15594   19.4594   12.27593 
 C                     9.83539   26.00677   12.18329 
 C                     8.94863   20.02005   12.75565 
 C                     8.75439   25.3763   12.8341 
 C                     7.87996   19.53346   11.90917 
 C                     7.43348   25.49974   12.3564 
 C                     6.72295   20.18549   11.78983 
 C                     7.20297   26.19942   11.21082 
 C                     5.93341   20.16035   10.51635 
 C                     6.0608    25.88438   10.29564 
 C                     6.79004   19.77351   9.33639 
 C                     6.6473    26.2631   8.96785 
 C                     6.45584   20.36606   8.11719 
 C                     6.356     25.60497   7.85751 
 C                     7.3637    20.40956   7.06853 
 C                     7.23791   25.63878   6.63859 
 C                     8.70128   19.98849   7.22551 
 C                     8.68801   25.81486   7.03819 
 C                     9.73377   20.63076   6.47745 
 C                     9.70833   25.08872   6.40589 
 C                     11.04138   20.5903   6.93834 
 C                     12.68291   22.17006   7.80657 
 C                     12.67118   23.5572   7.80592 
 C                     11.0082   25.10654   6.92552 
 C                     11.35417   19.78927   8.0388 
 C                     12.88576   21.45609   8.97632 
 C                     12.84635   24.26953   8.98065 
 C                     11.27934   25.88363   8.03745 
 C                     13.10837   22.15932   10.16849 
 C                     13.07781   23.56434   10.16723 
 C                     13.18295   21.39373   11.48187 
 C                     13.06724   24.34165   11.46913 
 C                     12.44571   22.17129   12.54092 
 C                     12.39994   23.52075   12.53128 
 C                     11.35954   20.15299   12.42703 
 C                     11.10333   25.41881   12.38398 
 C                     11.34822   21.41605   13.06113 
 C                     11.24752   24.18802   13.04308 
 C                     8.90408   21.30669   13.31557 
 C                     8.89343   24.10648   13.46066 
 C                     7.6658    22.03224   13.21893 
 C                     7.66995   23.39324   13.33118 
 C                     6.43701   21.40716   12.61117 
 C                     6.60685   24.31974   12.76971 
 C                     5.88314   22.32001   11.54909 
 C                     5.98585   23.69865   11.54741 
 C                     5.59654   21.62547   10.38308 
 C                     5.76024   24.39786   10.35278 
 C                     5.3974    22.29797   9.18969 
 C                     5.45921   23.69936   9.17563 
 C                     5.40506   21.45053   7.94694 
 C                     5.40105   24.44321   7.85387 
 C                     5.96597   22.2316   6.79636 
 C                     5.97541   23.60267   6.75502 
 C                     7.03109   21.52406   6.21238 
 C                     7.0089    24.27314   6.07918 
 C                     8.01851   22.17274   5.50777 
 C                     8.01211   23.56878   5.45395 
 C                     9.39001   21.60097   5.36645 
 C                     9.3985    24.10623   5.29697 
 C                     12.06951   21.61609   6.5466 
 C                     12.05643   24.09928   6.54213 
 C                     10.22311   22.85139   5.45452 
 C                     11.43648   22.85428   5.98287 
 C                     10.14561   22.02243   13.48335 
 C                     10.12724   23.45056   13.52265 
 Cl                    4.46189   19.12348   10.60881 
 Cl                    7.83077   16.93449   10.99145 
 Cl                    3.7611    20.79948   7.62256 
 Cl                    3.69821   24.95167   7.54862 
 Cl                    4.56087   26.80635   10.68249 
 Cl                    14.01824   19.07555   8.32268 
 Cl                    14.91132   21.0892   11.87581 
 Cl                    14.74638   24.83805   11.87974 
 Cl                    13.29632   20.90778   5.43431 
 Cl                    9.61208   20.75481   3.77753 
 Cl                    13.88812   26.70859   8.37231 
 Cl                    13.27563   24.83268   5.43986 
 Cl                    9.68072   24.90614   3.706 
 Cl                    6.77949   26.95965   5.4975 
 Cl                    7.60168   28.83737   8.78246 
 Cl                    11.0885   28.81324   10.07102 
 Cl                    5.33613   24.71719   13.9797 
 Cl                    5.20571   21.07963   13.9017 
 
 ITRead=  0  0  0  0  0  0  0  0  0  0  0  0  0  0  0  0  0  0  0  0
 ITRead=  0  0  0  0  0  0  0  0  0  0  0  0  0  0  0  0  0  0  0  0
 ITRead=  0  0  0  0  0  0  0  0  0  0  0  0  0  0  0  0  0  0  0  0
 ITRead=  0  0  0  0  0  0  0  0  0  0  0  0  0  0  0  0  0  0  0  0
 ITRead=  0  0  0  0  0  0  0  0  0  0  0  0  0  0  0  0  0  0  0  0
 ITRead=  0  0
 MicOpt= -1 -1 -1 -1 -1 -1 -1 -1 -1 -1 -1 -1 -1 -1 -1 -1 -1 -1 -1 -1
 MicOpt= -1 -1 -1 -1 -1 -1 -1 -1 -1 -1 -1 -1 -1 -1 -1 -1 -1 -1 -1 -1
 MicOpt= -1 -1 -1 -1 -1 -1 -1 -1 -1 -1 -1 -1 -1 -1 -1 -1 -1 -1 -1 -1
 MicOpt= -1 -1 -1 -1 -1 -1 -1 -1 -1 -1 -1 -1 -1 -1 -1 -1 -1 -1 -1 -1
 MicOpt= -1 -1 -1 -1 -1 -1 -1 -1 -1 -1 -1 -1 -1 -1 -1 -1 -1 -1 -1 -1
 MicOpt= -1 -1
 NAtoms=    102 NQM=      102 NQMF=       0 NMMI=      0 NMMIF=      0
                NMic=       0 NMicF=      0.
                    Isotopes and Nuclear Properties:
 (Nuclear quadrupole moments (NQMom) in fm**2, nuclear magnetic moments (NMagM)
  in nuclear magnetons)

  Atom         1           2           3           4           5           6           7           8           9          10
 IAtWgt=          12          12          12          12          12          12          12          12          12          12
 AtmWgt=  12.0000000  12.0000000  12.0000000  12.0000000  12.0000000  12.0000000  12.0000000  12.0000000  12.0000000  12.0000000
 NucSpn=           0           0           0           0           0           0           0           0           0           0
 AtZEff=  -0.0000000  -0.0000000  -0.0000000  -0.0000000  -0.0000000  -0.0000000  -0.0000000  -0.0000000  -0.0000000  -0.0000000
 NQMom=    0.0000000   0.0000000   0.0000000   0.0000000   0.0000000   0.0000000   0.0000000   0.0000000   0.0000000   0.0000000
 NMagM=    0.0000000   0.0000000   0.0000000   0.0000000   0.0000000   0.0000000   0.0000000   0.0000000   0.0000000   0.0000000
 AtZNuc=   6.0000000   6.0000000   6.0000000   6.0000000   6.0000000   6.0000000   6.0000000   6.0000000   6.0000000   6.0000000

  Atom        11          12          13          14          15          16          17          18          19          20
 IAtWgt=          12          12          12          12          12          12          12          12          12          12
 AtmWgt=  12.0000000  12.0000000  12.0000000  12.0000000  12.0000000  12.0000000  12.0000000  12.0000000  12.0000000  12.0000000
 NucSpn=           0           0           0           0           0           0           0           0           0           0
 AtZEff=  -0.0000000  -0.0000000  -0.0000000  -0.0000000  -0.0000000  -0.0000000  -0.0000000  -0.0000000  -0.0000000  -0.0000000
 NQMom=    0.0000000   0.0000000   0.0000000   0.0000000   0.0000000   0.0000000   0.0000000   0.0000000   0.0000000   0.0000000
 NMagM=    0.0000000   0.0000000   0.0000000   0.0000000   0.0000000   0.0000000   0.0000000   0.0000000   0.0000000   0.0000000
 AtZNuc=   6.0000000   6.0000000   6.0000000   6.0000000   6.0000000   6.0000000   6.0000000   6.0000000   6.0000000   6.0000000

  Atom        21          22          23          24          25          26          27          28          29          30
 IAtWgt=          12          12          12          12          12          12          12          12          12          12
 AtmWgt=  12.0000000  12.0000000  12.0000000  12.0000000  12.0000000  12.0000000  12.0000000  12.0000000  12.0000000  12.0000000
 NucSpn=           0           0           0           0           0           0           0           0           0           0
 AtZEff=  -0.0000000  -0.0000000  -0.0000000  -0.0000000  -0.0000000  -0.0000000  -0.0000000  -0.0000000  -0.0000000  -0.0000000
 NQMom=    0.0000000   0.0000000   0.0000000   0.0000000   0.0000000   0.0000000   0.0000000   0.0000000   0.0000000   0.0000000
 NMagM=    0.0000000   0.0000000   0.0000000   0.0000000   0.0000000   0.0000000   0.0000000   0.0000000   0.0000000   0.0000000
 AtZNuc=   6.0000000   6.0000000   6.0000000   6.0000000   6.0000000   6.0000000   6.0000000   6.0000000   6.0000000   6.0000000

  Atom        31          32          33          34          35          36          37          38          39          40
 IAtWgt=          12          12          12          12          12          12          12          12          12          12
 AtmWgt=  12.0000000  12.0000000  12.0000000  12.0000000  12.0000000  12.0000000  12.0000000  12.0000000  12.0000000  12.0000000
 NucSpn=           0           0           0           0           0           0           0           0           0           0
 AtZEff=  -0.0000000  -0.0000000  -0.0000000  -0.0000000  -0.0000000  -0.0000000  -0.0000000  -0.0000000  -0.0000000  -0.0000000
 NQMom=    0.0000000   0.0000000   0.0000000   0.0000000   0.0000000   0.0000000   0.0000000   0.0000000   0.0000000   0.0000000
 NMagM=    0.0000000   0.0000000   0.0000000   0.0000000   0.0000000   0.0000000   0.0000000   0.0000000   0.0000000   0.0000000
 AtZNuc=   6.0000000   6.0000000   6.0000000   6.0000000   6.0000000   6.0000000   6.0000000   6.0000000   6.0000000   6.0000000

  Atom        41          42          43          44          45          46          47          48          49          50
 IAtWgt=          12          12          12          12          12          12          12          12          12          12
 AtmWgt=  12.0000000  12.0000000  12.0000000  12.0000000  12.0000000  12.0000000  12.0000000  12.0000000  12.0000000  12.0000000
 NucSpn=           0           0           0           0           0           0           0           0           0           0
 AtZEff=  -0.0000000  -0.0000000  -0.0000000  -0.0000000  -0.0000000  -0.0000000  -0.0000000  -0.0000000  -0.0000000  -0.0000000
 NQMom=    0.0000000   0.0000000   0.0000000   0.0000000   0.0000000   0.0000000   0.0000000   0.0000000   0.0000000   0.0000000
 NMagM=    0.0000000   0.0000000   0.0000000   0.0000000   0.0000000   0.0000000   0.0000000   0.0000000   0.0000000   0.0000000
 AtZNuc=   6.0000000   6.0000000   6.0000000   6.0000000   6.0000000   6.0000000   6.0000000   6.0000000   6.0000000   6.0000000

  Atom        51          52          53          54          55          56          57          58          59          60
 IAtWgt=          12          12          12          12          12          12          12          12          12          12
 AtmWgt=  12.0000000  12.0000000  12.0000000  12.0000000  12.0000000  12.0000000  12.0000000  12.0000000  12.0000000  12.0000000
 NucSpn=           0           0           0           0           0           0           0           0           0           0
 AtZEff=  -0.0000000  -0.0000000  -0.0000000  -0.0000000  -0.0000000  -0.0000000  -0.0000000  -0.0000000  -0.0000000  -0.0000000
 NQMom=    0.0000000   0.0000000   0.0000000   0.0000000   0.0000000   0.0000000   0.0000000   0.0000000   0.0000000   0.0000000
 NMagM=    0.0000000   0.0000000   0.0000000   0.0000000   0.0000000   0.0000000   0.0000000   0.0000000   0.0000000   0.0000000
 AtZNuc=   6.0000000   6.0000000   6.0000000   6.0000000   6.0000000   6.0000000   6.0000000   6.0000000   6.0000000   6.0000000

  Atom        61          62          63          64          65          66          67          68          69          70
 IAtWgt=          12          12          12          12          12          12          12          12          12          12
 AtmWgt=  12.0000000  12.0000000  12.0000000  12.0000000  12.0000000  12.0000000  12.0000000  12.0000000  12.0000000  12.0000000
 NucSpn=           0           0           0           0           0           0           0           0           0           0
 AtZEff=  -0.0000000  -0.0000000  -0.0000000  -0.0000000  -0.0000000  -0.0000000  -0.0000000  -0.0000000  -0.0000000  -0.0000000
 NQMom=    0.0000000   0.0000000   0.0000000   0.0000000   0.0000000   0.0000000   0.0000000   0.0000000   0.0000000   0.0000000
 NMagM=    0.0000000   0.0000000   0.0000000   0.0000000   0.0000000   0.0000000   0.0000000   0.0000000   0.0000000   0.0000000
 AtZNuc=   6.0000000   6.0000000   6.0000000   6.0000000   6.0000000   6.0000000   6.0000000   6.0000000   6.0000000   6.0000000

  Atom        71          72          73          74          75          76          77          78          79          80
 IAtWgt=          12          12          12          12          12          12          12          12          12          12
 AtmWgt=  12.0000000  12.0000000  12.0000000  12.0000000  12.0000000  12.0000000  12.0000000  12.0000000  12.0000000  12.0000000
 NucSpn=           0           0           0           0           0           0           0           0           0           0
 AtZEff=  -0.0000000  -0.0000000  -0.0000000  -0.0000000  -0.0000000  -0.0000000  -0.0000000  -0.0000000  -0.0000000  -0.0000000
 NQMom=    0.0000000   0.0000000   0.0000000   0.0000000   0.0000000   0.0000000   0.0000000   0.0000000   0.0000000   0.0000000
 NMagM=    0.0000000   0.0000000   0.0000000   0.0000000   0.0000000   0.0000000   0.0000000   0.0000000   0.0000000   0.0000000
 AtZNuc=   6.0000000   6.0000000   6.0000000   6.0000000   6.0000000   6.0000000   6.0000000   6.0000000   6.0000000   6.0000000

  Atom        81          82          83          84          85          86          87          88          89          90
 IAtWgt=          12          12          12          12          35          35          35          35          35          35
 AtmWgt=  12.0000000  12.0000000  12.0000000  12.0000000  34.9688527  34.9688527  34.9688527  34.9688527  34.9688527  34.9688527
 NucSpn=           0           0           0           0           3           3           3           3           3           3
 AtZEff=  -0.0000000  -0.0000000  -0.0000000  -0.0000000  -0.0000000  -0.0000000  -0.0000000  -0.0000000  -0.0000000  -0.0000000
 NQMom=    0.0000000   0.0000000   0.0000000   0.0000000  -8.1650000  -8.1650000  -8.1650000  -8.1650000  -8.1650000  -8.1650000
 NMagM=    0.0000000   0.0000000   0.0000000   0.0000000   0.8218740   0.8218740   0.8218740   0.8218740   0.8218740   0.8218740
 AtZNuc=   6.0000000   6.0000000   6.0000000   6.0000000  17.0000000  17.0000000  17.0000000  17.0000000  17.0000000  17.0000000

  Atom        91          92          93          94          95          96          97          98          99         100
 IAtWgt=          35          35          35          35          35          35          35          35          35          35
 AtmWgt=  34.9688527  34.9688527  34.9688527  34.9688527  34.9688527  34.9688527  34.9688527  34.9688527  34.9688527  34.9688527
 NucSpn=           3           3           3           3           3           3           3           3           3           3
 AtZEff=  -0.0000000  -0.0000000  -0.0000000  -0.0000000  -0.0000000  -0.0000000  -0.0000000  -0.0000000  -0.0000000  -0.0000000
 NQMom=   -8.1650000  -8.1650000  -8.1650000  -8.1650000  -8.1650000  -8.1650000  -8.1650000  -8.1650000  -8.1650000  -8.1650000
 NMagM=    0.8218740   0.8218740   0.8218740   0.8218740   0.8218740   0.8218740   0.8218740   0.8218740   0.8218740   0.8218740
 AtZNuc=  17.0000000  17.0000000  17.0000000  17.0000000  17.0000000  17.0000000  17.0000000  17.0000000  17.0000000  17.0000000

  Atom       101         102
 IAtWgt=          35          35
 AtmWgt=  34.9688527  34.9688527
 NucSpn=           3           3
 AtZEff=  -0.0000000  -0.0000000
 NQMom=   -8.1650000  -8.1650000
 NMagM=    0.8218740   0.8218740
 AtZNuc=  17.0000000  17.0000000
 Leave Link  101 at Tue Jun 28 22:49:21 2022, MaxMem=  1342177280 cpu:               6.8 elap:               0.3
 (Enter /home/mkliu/g16/l103.exe)

 GradGradGradGradGradGradGradGradGradGradGradGradGradGradGradGradGradGrad
 Berny optimization.
 Initialization pass.
                           ----------------------------
                           !    Initial Parameters    !
                           ! (Angstroms and Degrees)  !
 --------------------------                            --------------------------
 ! Name  Definition              Value          Derivative Info.                !
 --------------------------------------------------------------------------------
 ! R1    R(1,5)                  1.5136         estimate D2E/DX2                !
 ! R2    R(1,17)                 1.4991         estimate D2E/DX2                !
 ! R3    R(1,23)                 1.5103         estimate D2E/DX2                !
 ! R4    R(1,86)                 1.8108         estimate D2E/DX2                !
 ! R5    R(2,6)                  1.5006         estimate D2E/DX2                !
 ! R6    R(2,43)                 1.5178         estimate D2E/DX2                !
 ! R7    R(2,44)                 1.5078         estimate D2E/DX2                !
 ! R8    R(2,90)                 1.8001         estimate D2E/DX2                !
 ! R9    R(3,7)                  1.5066         estimate D2E/DX2                !
 ! R10   R(3,18)                 1.3768         estimate D2E/DX2                !
 ! R11   R(3,26)                 1.4133         estimate D2E/DX2                !
 ! R12   R(4,8)                  1.4988         estimate D2E/DX2                !
 ! R13   R(4,45)                 1.5084         estimate D2E/DX2                !
 ! R14   R(4,46)                 1.5088         estimate D2E/DX2                !
 ! R15   R(4,95)                 1.8018         estimate D2E/DX2                !
 ! R16   R(5,9)                  1.4266         estimate D2E/DX2                !
 ! R17   R(5,29)                 1.39           estimate D2E/DX2                !
 ! R18   R(6,10)                 1.3608         estimate D2E/DX2                !
 ! R19   R(6,15)                 1.4286         estimate D2E/DX2                !
 ! R20   R(7,12)                 1.5057         estimate D2E/DX2                !
 ! R21   R(7,30)                 1.5003         estimate D2E/DX2                !
 ! R22   R(7,99)                 1.8036         estimate D2E/DX2                !
 ! R23   R(8,11)                 1.3368         estimate D2E/DX2                !
 ! R24   R(8,16)                 1.5047         estimate D2E/DX2                !
 ! R25   R(9,13)                 1.4143         estimate D2E/DX2                !
 ! R26   R(9,35)                 1.4286         estimate D2E/DX2                !
 ! R27   R(10,49)                1.5067         estimate D2E/DX2                !
 ! R28   R(10,53)                1.4251         estimate D2E/DX2                !
 ! R29   R(11,50)                1.5089         estimate D2E/DX2                !
 ! R30   R(11,54)                1.4439         estimate D2E/DX2                !
 ! R31   R(12,14)                1.3833         estimate D2E/DX2                !
 ! R32   R(12,36)                1.4003         estimate D2E/DX2                !
 ! R33   R(13,15)                1.4437         estimate D2E/DX2                !
 ! R34   R(13,43)                1.3876         estimate D2E/DX2                !
 ! R35   R(14,16)                1.503          estimate D2E/DX2                !
 ! R36   R(14,46)                1.3878         estimate D2E/DX2                !
 ! R37   R(15,17)                1.3674         estimate D2E/DX2                !
 ! R38   R(16,18)                1.5015         estimate D2E/DX2                !
 ! R39   R(16,100)               1.8141         estimate D2E/DX2                !
 ! R40   R(17,19)                1.4176         estimate D2E/DX2                !
 ! R41   R(18,20)                1.4231         estimate D2E/DX2                !
 ! R42   R(19,21)                1.4149         estimate D2E/DX2                !
 ! R43   R(19,53)                1.3973         estimate D2E/DX2                !
 ! R44   R(20,22)                1.4105         estimate D2E/DX2                !
 ! R45   R(20,54)                1.412          estimate D2E/DX2                !
 ! R46   R(21,23)                1.4475         estimate D2E/DX2                !
 ! R47   R(21,57)                1.4039         estimate D2E/DX2                !
 ! R48   R(22,24)                1.4101         estimate D2E/DX2                !
 ! R49   R(22,58)                1.4228         estimate D2E/DX2                !
 ! R50   R(23,25)                1.3334         estimate D2E/DX2                !
 ! R51   R(24,26)                1.362          estimate D2E/DX2                !
 ! R52   R(24,62)                1.4989         estimate D2E/DX2                !
 ! R53   R(25,27)                1.4986         estimate D2E/DX2                !
 ! R54   R(25,61)                1.4996         estimate D2E/DX2                !
 ! R55   R(26,28)                1.4971         estimate D2E/DX2                !
 ! R56   R(27,29)                1.5086         estimate D2E/DX2                !
 ! R57   R(27,65)                1.5092         estimate D2E/DX2                !
 ! R58   R(27,85)                1.8025         estimate D2E/DX2                !
 ! R59   R(28,30)                1.5002         estimate D2E/DX2                !
 ! R60   R(28,66)                1.5177         estimate D2E/DX2                !
 ! R61   R(28,89)                1.8026         estimate D2E/DX2                !
 ! R62   R(29,31)                1.3962         estimate D2E/DX2                !
 ! R63   R(30,32)                1.3232         estimate D2E/DX2                !
 ! R64   R(31,33)                1.3877         estimate D2E/DX2                !
 ! R65   R(31,69)                1.5196         estimate D2E/DX2                !
 ! R66   R(32,34)                1.5049         estimate D2E/DX2                !
 ! R67   R(32,70)                1.5039         estimate D2E/DX2                !
 ! R68   R(33,35)                1.4111         estimate D2E/DX2                !
 ! R69   R(33,73)                1.4442         estimate D2E/DX2                !
 ! R70   R(34,36)                1.5144         estimate D2E/DX2                !
 ! R71   R(34,74)                1.4934         estimate D2E/DX2                !
 ! R72   R(34,98)                1.8047         estimate D2E/DX2                !
 ! R73   R(35,37)                1.4276         estimate D2E/DX2                !
 ! R74   R(36,38)                1.4029         estimate D2E/DX2                !
 ! R75   R(37,39)                1.387          estimate D2E/DX2                !
 ! R76   R(37,77)                1.5145         estimate D2E/DX2                !
 ! R77   R(38,42)                1.4            estimate D2E/DX2                !
 ! R78   R(38,78)                1.5136         estimate D2E/DX2                !
 ! R79   R(39,43)                1.3966         estimate D2E/DX2                !
 ! R80   R(39,79)                1.5042         estimate D2E/DX2                !
 ! R81   R(40,41)                1.3872         estimate D2E/DX2                !
 ! R82   R(40,44)                1.3854         estimate D2E/DX2                !
 ! R83   R(40,79)                1.5069         estimate D2E/DX2                !
 ! R84   R(41,45)                1.385          estimate D2E/DX2                !
 ! R85   R(41,80)                1.5063         estimate D2E/DX2                !
 ! R86   R(42,46)                1.3834         estimate D2E/DX2                !
 ! R87   R(42,80)                1.5034         estimate D2E/DX2                !
 ! R88   R(44,47)                1.4019         estimate D2E/DX2                !
 ! R89   R(45,48)                1.3996         estimate D2E/DX2                !
 ! R90   R(47,48)                1.4054         estimate D2E/DX2                !
 ! R91   R(47,49)                1.5221         estimate D2E/DX2                !
 ! R92   R(48,50)                1.5163         estimate D2E/DX2                !
 ! R93   R(49,51)                1.5066         estimate D2E/DX2                !
 ! R94   R(49,91)                1.7987         estimate D2E/DX2                !
 ! R95   R(50,52)                1.4991         estimate D2E/DX2                !
 ! R96   R(50,92)                1.7985         estimate D2E/DX2                !
 ! R97   R(51,52)                1.3503         estimate D2E/DX2                !
 ! R98   R(51,55)                1.4302         estimate D2E/DX2                !
 ! R99   R(52,56)                1.4266         estimate D2E/DX2                !
 ! R100  R(53,55)                1.4133         estimate D2E/DX2                !
 ! R101  R(54,56)                1.4036         estimate D2E/DX2                !
 ! R102  R(55,83)                1.4115         estimate D2E/DX2                !
 ! R103  R(56,84)                1.4244         estimate D2E/DX2                !
 ! R104  R(57,59)                1.4384         estimate D2E/DX2                !
 ! R105  R(57,83)                1.4429         estimate D2E/DX2                !
 ! R106  R(58,60)                1.4221         estimate D2E/DX2                !
 ! R107  R(58,84)                1.3987         estimate D2E/DX2                !
 ! R108  R(59,60)                1.3656         estimate D2E/DX2                !
 ! R109  R(59,61)                1.5067         estimate D2E/DX2                !
 ! R110  R(60,62)                1.5178         estimate D2E/DX2                !
 ! R111  R(61,63)                1.506          estimate D2E/DX2                !
 ! R112  R(61,102)               1.8135         estimate D2E/DX2                !
 ! R113  R(62,64)                1.5051         estimate D2E/DX2                !
 ! R114  R(62,101)               1.7991         estimate D2E/DX2                !
 ! R115  R(63,64)                1.3825         estimate D2E/DX2                !
 ! R116  R(63,65)                1.3871         estimate D2E/DX2                !
 ! R117  R(64,66)                1.4025         estimate D2E/DX2                !
 ! R118  R(65,67)                1.3842         estimate D2E/DX2                !
 ! R119  R(66,68)                1.4015         estimate D2E/DX2                !
 ! R120  R(67,68)                1.4028         estimate D2E/DX2                !
 ! R121  R(67,69)                1.5042         estimate D2E/DX2                !
 ! R122  R(68,70)                1.5178         estimate D2E/DX2                !
 ! R123  R(69,71)                1.4995         estimate D2E/DX2                !
 ! R124  R(69,87)                1.7977         estimate D2E/DX2                !
 ! R125  R(70,72)                1.498          estimate D2E/DX2                !
 ! R126  R(70,88)                1.8032         estimate D2E/DX2                !
 ! R127  R(71,72)                1.3717         estimate D2E/DX2                !
 ! R128  R(71,73)                1.4058         estimate D2E/DX2                !
 ! R129  R(72,74)                1.4051         estimate D2E/DX2                !
 ! R130  R(73,75)                1.3756         estimate D2E/DX2                !
 ! R131  R(74,76)                1.376          estimate D2E/DX2                !
 ! R132  R(75,76)                1.3971         estimate D2E/DX2                !
 ! R133  R(75,77)                1.4926         estimate D2E/DX2                !
 ! R134  R(76,78)                1.4952         estimate D2E/DX2                !
 ! R135  R(77,81)                1.5051         estimate D2E/DX2                !
 ! R136  R(77,94)                1.8138         estimate D2E/DX2                !
 ! R137  R(78,81)                1.5098         estimate D2E/DX2                !
 ! R138  R(78,97)                1.803          estimate D2E/DX2                !
 ! R139  R(79,82)                1.5005         estimate D2E/DX2                !
 ! R140  R(79,93)                1.8011         estimate D2E/DX2                !
 ! R141  R(80,82)                1.499          estimate D2E/DX2                !
 ! R142  R(80,96)                1.7998         estimate D2E/DX2                !
 ! R143  R(81,82)                1.3234         estimate D2E/DX2                !
 ! R144  R(83,84)                1.4288         estimate D2E/DX2                !
 ! A1    A(5,1,17)             113.0377         estimate D2E/DX2                !
 ! A2    A(5,1,23)             110.0232         estimate D2E/DX2                !
 ! A3    A(5,1,86)             108.4285         estimate D2E/DX2                !
 ! A4    A(17,1,23)            101.3753         estimate D2E/DX2                !
 ! A5    A(17,1,86)            112.0086         estimate D2E/DX2                !
 ! A6    A(23,1,86)            111.8875         estimate D2E/DX2                !
 ! A7    A(6,2,43)             101.5024         estimate D2E/DX2                !
 ! A8    A(6,2,44)             110.5305         estimate D2E/DX2                !
 ! A9    A(6,2,90)             113.1408         estimate D2E/DX2                !
 ! A10   A(43,2,44)            108.1507         estimate D2E/DX2                !
 ! A11   A(43,2,90)            113.0923         estimate D2E/DX2                !
 ! A12   A(44,2,90)            110.0698         estimate D2E/DX2                !
 ! A13   A(7,3,18)             124.5485         estimate D2E/DX2                !
 ! A14   A(7,3,26)             109.857          estimate D2E/DX2                !
 ! A15   A(18,3,26)            121.8941         estimate D2E/DX2                !
 ! A16   A(8,4,45)             111.5723         estimate D2E/DX2                !
 ! A17   A(8,4,46)             100.4788         estimate D2E/DX2                !
 ! A18   A(8,4,95)             113.7225         estimate D2E/DX2                !
 ! A19   A(45,4,46)            107.8993         estimate D2E/DX2                !
 ! A20   A(45,4,95)            110.2655         estimate D2E/DX2                !
 ! A21   A(46,4,95)            112.4415         estimate D2E/DX2                !
 ! A22   A(1,5,9)              120.2183         estimate D2E/DX2                !
 ! A23   A(1,5,29)             118.276          estimate D2E/DX2                !
 ! A24   A(9,5,29)             120.1257         estimate D2E/DX2                !
 ! A25   A(2,6,10)             122.3098         estimate D2E/DX2                !
 ! A26   A(2,6,15)             109.7455         estimate D2E/DX2                !
 ! A27   A(10,6,15)            119.8616         estimate D2E/DX2                !
 ! A28   A(3,7,12)             109.7075         estimate D2E/DX2                !
 ! A29   A(3,7,30)             101.5261         estimate D2E/DX2                !
 ! A30   A(3,7,99)             112.2136         estimate D2E/DX2                !
 ! A31   A(12,7,30)            110.4526         estimate D2E/DX2                !
 ! A32   A(12,7,99)            110.1869         estimate D2E/DX2                !
 ! A33   A(30,7,99)            112.4669         estimate D2E/DX2                !
 ! A34   A(4,8,11)             120.9714         estimate D2E/DX2                !
 ! A35   A(4,8,16)             111.5864         estimate D2E/DX2                !
 ! A36   A(11,8,16)            122.3293         estimate D2E/DX2                !
 ! A37   A(5,9,13)             119.6699         estimate D2E/DX2                !
 ! A38   A(5,9,35)             120.7815         estimate D2E/DX2                !
 ! A39   A(13,9,35)            116.2433         estimate D2E/DX2                !
 ! A40   A(6,10,49)            123.4021         estimate D2E/DX2                !
 ! A41   A(6,10,53)            118.5053         estimate D2E/DX2                !
 ! A42   A(49,10,53)           109.8299         estimate D2E/DX2                !
 ! A43   A(8,11,50)            123.6634         estimate D2E/DX2                !
 ! A44   A(8,11,54)            120.8903         estimate D2E/DX2                !
 ! A45   A(50,11,54)           110.0301         estimate D2E/DX2                !
 ! A46   A(7,12,14)            117.0317         estimate D2E/DX2                !
 ! A47   A(7,12,36)            122.6806         estimate D2E/DX2                !
 ! A48   A(14,12,36)           119.0137         estimate D2E/DX2                !
 ! A49   A(9,13,15)            121.4361         estimate D2E/DX2                !
 ! A50   A(9,13,43)            121.3465         estimate D2E/DX2                !
 ! A51   A(15,13,43)           109.0829         estimate D2E/DX2                !
 ! A52   A(12,14,16)           125.3112         estimate D2E/DX2                !
 ! A53   A(12,14,46)           121.0083         estimate D2E/DX2                !
 ! A54   A(16,14,46)           111.1978         estimate D2E/DX2                !
 ! A55   A(6,15,13)            107.8231         estimate D2E/DX2                !
 ! A56   A(6,15,17)            122.3111         estimate D2E/DX2                !
 ! A57   A(13,15,17)           119.6693         estimate D2E/DX2                !
 ! A58   A(8,16,14)            100.6474         estimate D2E/DX2                !
 ! A59   A(8,16,18)            113.8609         estimate D2E/DX2                !
 ! A60   A(8,16,100)           111.3204         estimate D2E/DX2                !
 ! A61   A(14,16,18)           109.1246         estimate D2E/DX2                !
 ! A62   A(14,16,100)          111.2956         estimate D2E/DX2                !
 ! A63   A(18,16,100)          110.245          estimate D2E/DX2                !
 ! A64   A(1,17,15)            122.4587         estimate D2E/DX2                !
 ! A65   A(1,17,19)            110.5608         estimate D2E/DX2                !
 ! A66   A(15,17,19)           117.863          estimate D2E/DX2                !
 ! A67   A(3,18,16)            118.0448         estimate D2E/DX2                !
 ! A68   A(3,18,20)            118.9567         estimate D2E/DX2                !
 ! A69   A(16,18,20)           119.9795         estimate D2E/DX2                !
 ! A70   A(17,19,21)           109.6807         estimate D2E/DX2                !
 ! A71   A(17,19,53)           119.7516         estimate D2E/DX2                !
 ! A72   A(21,19,53)           120.1066         estimate D2E/DX2                !
 ! A73   A(18,20,22)           118.3101         estimate D2E/DX2                !
 ! A74   A(18,20,54)           120.1785         estimate D2E/DX2                !
 ! A75   A(22,20,54)           115.8811         estimate D2E/DX2                !
 ! A76   A(19,21,23)           107.3665         estimate D2E/DX2                !
 ! A77   A(19,21,57)           121.6978         estimate D2E/DX2                !
 ! A78   A(23,21,57)           121.1894         estimate D2E/DX2                !
 ! A79   A(20,22,24)           121.4992         estimate D2E/DX2                !
 ! A80   A(20,22,58)           121.8166         estimate D2E/DX2                !
 ! A81   A(24,22,58)           108.5944         estimate D2E/DX2                !
 ! A82   A(1,23,21)            110.4209         estimate D2E/DX2                !
 ! A83   A(1,23,25)            122.9483         estimate D2E/DX2                !
 ! A84   A(21,23,25)           121.9078         estimate D2E/DX2                !
 ! A85   A(22,24,26)           119.24           estimate D2E/DX2                !
 ! A86   A(22,24,62)           110.7507         estimate D2E/DX2                !
 ! A87   A(26,24,62)           122.8903         estimate D2E/DX2                !
 ! A88   A(23,25,27)           121.6684         estimate D2E/DX2                !
 ! A89   A(23,25,61)           120.983          estimate D2E/DX2                !
 ! A90   A(27,25,61)           112.2491         estimate D2E/DX2                !
 ! A91   A(3,26,24)            120.0548         estimate D2E/DX2                !
 ! A92   A(3,26,28)            112.3307         estimate D2E/DX2                !
 ! A93   A(24,26,28)           122.356          estimate D2E/DX2                !
 ! A94   A(25,27,29)           111.7039         estimate D2E/DX2                !
 ! A95   A(25,27,65)           100.1575         estimate D2E/DX2                !
 ! A96   A(25,27,85)           113.3395         estimate D2E/DX2                !
 ! A97   A(29,27,65)           107.8547         estimate D2E/DX2                !
 ! A98   A(29,27,85)           110.8659         estimate D2E/DX2                !
 ! A99   A(65,27,85)           112.3793         estimate D2E/DX2                !
 ! A100  A(26,28,30)           100.9331         estimate D2E/DX2                !
 ! A101  A(26,28,66)           109.523          estimate D2E/DX2                !
 ! A102  A(26,28,89)           113.3279         estimate D2E/DX2                !
 ! A103  A(30,28,66)           110.979          estimate D2E/DX2                !
 ! A104  A(30,28,89)           112.7141         estimate D2E/DX2                !
 ! A105  A(66,28,89)           109.1533         estimate D2E/DX2                !
 ! A106  A(5,29,27)            123.1919         estimate D2E/DX2                !
 ! A107  A(5,29,31)            118.8681         estimate D2E/DX2                !
 ! A108  A(27,29,31)           115.9943         estimate D2E/DX2                !
 ! A109  A(7,30,28)            112.6182         estimate D2E/DX2                !
 ! A110  A(7,30,32)            122.0584         estimate D2E/DX2                !
 ! A111  A(28,30,32)           122.0787         estimate D2E/DX2                !
 ! A112  A(29,31,33)           121.1045         estimate D2E/DX2                !
 ! A113  A(29,31,69)           124.4888         estimate D2E/DX2                !
 ! A114  A(33,31,69)           110.2021         estimate D2E/DX2                !
 ! A115  A(30,32,34)           122.649          estimate D2E/DX2                !
 ! A116  A(30,32,70)           121.7393         estimate D2E/DX2                !
 ! A117  A(34,32,70)           112.8005         estimate D2E/DX2                !
 ! A118  A(31,33,35)           121.7837         estimate D2E/DX2                !
 ! A119  A(31,33,73)           108.7537         estimate D2E/DX2                !
 ! A120  A(35,33,73)           120.9673         estimate D2E/DX2                !
 ! A121  A(32,34,36)           110.4892         estimate D2E/DX2                !
 ! A122  A(32,34,74)           101.1277         estimate D2E/DX2                !
 ! A123  A(32,34,98)           112.3165         estimate D2E/DX2                !
 ! A124  A(36,34,74)           110.609          estimate D2E/DX2                !
 ! A125  A(36,34,98)           108.9632         estimate D2E/DX2                !
 ! A126  A(74,34,98)           113.1712         estimate D2E/DX2                !
 ! A127  A(9,35,33)            116.1112         estimate D2E/DX2                !
 ! A128  A(9,35,37)            121.0217         estimate D2E/DX2                !
 ! A129  A(33,35,37)           119.5388         estimate D2E/DX2                !
 ! A130  A(12,36,34)           118.1426         estimate D2E/DX2                !
 ! A131  A(12,36,38)           120.0115         estimate D2E/DX2                !
 ! A132  A(34,36,38)           121.1508         estimate D2E/DX2                !
 ! A133  A(35,37,39)           119.641          estimate D2E/DX2                !
 ! A134  A(35,37,77)           120.5585         estimate D2E/DX2                !
 ! A135  A(39,37,77)           118.4513         estimate D2E/DX2                !
 ! A136  A(36,38,42)           120.0925         estimate D2E/DX2                !
 ! A137  A(36,38,78)           121.1519         estimate D2E/DX2                !
 ! A138  A(42,38,78)           118.0505         estimate D2E/DX2                !
 ! A139  A(37,39,43)           119.32           estimate D2E/DX2                !
 ! A140  A(37,39,79)           122.542          estimate D2E/DX2                !
 ! A141  A(43,39,79)           116.3118         estimate D2E/DX2                !
 ! A142  A(41,40,44)           121.13           estimate D2E/DX2                !
 ! A143  A(41,40,79)           111.3324         estimate D2E/DX2                !
 ! A144  A(44,40,79)           125.1808         estimate D2E/DX2                !
 ! A145  A(40,41,45)           120.8543         estimate D2E/DX2                !
 ! A146  A(40,41,80)           111.3281         estimate D2E/DX2                !
 ! A147  A(45,41,80)           125.322          estimate D2E/DX2                !
 ! A148  A(38,42,46)           119.174          estimate D2E/DX2                !
 ! A149  A(38,42,80)           122.9683         estimate D2E/DX2                !
 ! A150  A(46,42,80)           116.4014         estimate D2E/DX2                !
 ! A151  A(2,43,13)            110.6322         estimate D2E/DX2                !
 ! A152  A(2,43,39)            124.2409         estimate D2E/DX2                !
 ! A153  A(13,43,39)           121.1885         estimate D2E/DX2                !
 ! A154  A(2,44,40)            116.0734         estimate D2E/DX2                !
 ! A155  A(2,44,47)            123.9253         estimate D2E/DX2                !
 ! A156  A(40,44,47)           118.8664         estimate D2E/DX2                !
 ! A157  A(4,45,41)            116.2975         estimate D2E/DX2                !
 ! A158  A(4,45,48)            123.6391         estimate D2E/DX2                !
 ! A159  A(41,45,48)           118.7428         estimate D2E/DX2                !
 ! A160  A(4,46,14)            111.4836         estimate D2E/DX2                !
 ! A161  A(4,46,42)            125.3453         estimate D2E/DX2                !
 ! A162  A(14,46,42)           120.6275         estimate D2E/DX2                !
 ! A163  A(44,47,48)           119.821          estimate D2E/DX2                !
 ! A164  A(44,47,49)           119.2926         estimate D2E/DX2                !
 ! A165  A(48,47,49)           120.312          estimate D2E/DX2                !
 ! A166  A(45,48,47)           120.5368         estimate D2E/DX2                !
 ! A167  A(45,48,50)           117.9354         estimate D2E/DX2                !
 ! A168  A(47,48,50)           120.7894         estimate D2E/DX2                !
 ! A169  A(10,49,47)           110.4198         estimate D2E/DX2                !
 ! A170  A(10,49,51)           101.3113         estimate D2E/DX2                !
 ! A171  A(10,49,91)           113.4986         estimate D2E/DX2                !
 ! A172  A(47,49,51)           108.8446         estimate D2E/DX2                !
 ! A173  A(47,49,91)           108.7381         estimate D2E/DX2                !
 ! A174  A(51,49,91)           113.8069         estimate D2E/DX2                !
 ! A175  A(11,50,48)           110.2757         estimate D2E/DX2                !
 ! A176  A(11,50,52)           101.2805         estimate D2E/DX2                !
 ! A177  A(11,50,92)           112.5077         estimate D2E/DX2                !
 ! A178  A(48,50,52)           109.3127         estimate D2E/DX2                !
 ! A179  A(48,50,92)           109.3297         estimate D2E/DX2                !
 ! A180  A(52,50,92)           113.8895         estimate D2E/DX2                !
 ! A181  A(49,51,52)           121.8281         estimate D2E/DX2                !
 ! A182  A(49,51,55)           111.0182         estimate D2E/DX2                !
 ! A183  A(52,51,55)           120.2872         estimate D2E/DX2                !
 ! A184  A(50,52,51)           122.4955         estimate D2E/DX2                !
 ! A185  A(50,52,56)           110.955          estimate D2E/DX2                !
 ! A186  A(51,52,56)           119.4893         estimate D2E/DX2                !
 ! A187  A(10,53,19)           121.2161         estimate D2E/DX2                !
 ! A188  A(10,53,55)           109.6549         estimate D2E/DX2                !
 ! A189  A(19,53,55)           119.0263         estimate D2E/DX2                !
 ! A190  A(11,54,20)           120.5149         estimate D2E/DX2                !
 ! A191  A(11,54,56)           108.4609         estimate D2E/DX2                !
 ! A192  A(20,54,56)           121.6101         estimate D2E/DX2                !
 ! A193  A(51,55,53)           107.6126         estimate D2E/DX2                !
 ! A194  A(51,55,83)           122.3955         estimate D2E/DX2                !
 ! A195  A(53,55,83)           121.6656         estimate D2E/DX2                !
 ! A196  A(52,56,54)           108.9453         estimate D2E/DX2                !
 ! A197  A(52,56,84)           120.9277         estimate D2E/DX2                !
 ! A198  A(54,56,84)           122.0944         estimate D2E/DX2                !
 ! A199  A(21,57,59)           117.5683         estimate D2E/DX2                !
 ! A200  A(21,57,83)           118.2745         estimate D2E/DX2                !
 ! A201  A(59,57,83)           119.8892         estimate D2E/DX2                !
 ! A202  A(22,58,60)           108.8715         estimate D2E/DX2                !
 ! A203  A(22,58,84)           121.6179         estimate D2E/DX2                !
 ! A204  A(60,58,84)           121.853          estimate D2E/DX2                !
 ! A205  A(57,59,60)           119.6412         estimate D2E/DX2                !
 ! A206  A(57,59,61)           121.3264         estimate D2E/DX2                !
 ! A207  A(60,59,61)           116.6862         estimate D2E/DX2                !
 ! A208  A(58,60,59)           120.6594         estimate D2E/DX2                !
 ! A209  A(58,60,62)           109.2756         estimate D2E/DX2                !
 ! A210  A(59,60,62)           125.1564         estimate D2E/DX2                !
 ! A211  A(25,61,59)           113.7913         estimate D2E/DX2                !
 ! A212  A(25,61,63)           100.2338         estimate D2E/DX2                !
 ! A213  A(25,61,102)          111.844          estimate D2E/DX2                !
 ! A214  A(59,61,63)           109.4478         estimate D2E/DX2                !
 ! A215  A(59,61,102)          109.9753         estimate D2E/DX2                !
 ! A216  A(63,61,102)          111.1998         estimate D2E/DX2                !
 ! A217  A(24,62,60)           101.3198         estimate D2E/DX2                !
 ! A218  A(24,62,64)           109.1761         estimate D2E/DX2                !
 ! A219  A(24,62,101)          113.6454         estimate D2E/DX2                !
 ! A220  A(60,62,64)           109.7246         estimate D2E/DX2                !
 ! A221  A(60,62,101)          112.381          estimate D2E/DX2                !
 ! A222  A(64,62,101)          110.2378         estimate D2E/DX2                !
 ! A223  A(61,63,64)           125.3095         estimate D2E/DX2                !
 ! A224  A(61,63,65)           111.4263         estimate D2E/DX2                !
 ! A225  A(64,63,65)           120.9072         estimate D2E/DX2                !
 ! A226  A(62,64,63)           116.1787         estimate D2E/DX2                !
 ! A227  A(62,64,66)           123.531          estimate D2E/DX2                !
 ! A228  A(63,64,66)           119.0948         estimate D2E/DX2                !
 ! A229  A(27,65,63)           111.4517         estimate D2E/DX2                !
 ! A230  A(27,65,67)           125.4414         estimate D2E/DX2                !
 ! A231  A(63,65,67)           120.7422         estimate D2E/DX2                !
 ! A232  A(28,66,64)           119.2439         estimate D2E/DX2                !
 ! A233  A(28,66,68)           119.939          estimate D2E/DX2                !
 ! A234  A(64,66,68)           120.1009         estimate D2E/DX2                !
 ! A235  A(65,67,68)           119.1854         estimate D2E/DX2                !
 ! A236  A(65,67,69)           115.9662         estimate D2E/DX2                !
 ! A237  A(68,67,69)           123.6622         estimate D2E/DX2                !
 ! A238  A(66,68,67)           119.9292         estimate D2E/DX2                !
 ! A239  A(66,68,70)           119.6964         estimate D2E/DX2                !
 ! A240  A(67,68,70)           119.7771         estimate D2E/DX2                !
 ! A241  A(31,69,67)           108.2407         estimate D2E/DX2                !
 ! A242  A(31,69,71)           101.4808         estimate D2E/DX2                !
 ! A243  A(31,69,87)           113.2105         estimate D2E/DX2                !
 ! A244  A(67,69,71)           110.0221         estimate D2E/DX2                !
 ! A245  A(67,69,87)           110.3929         estimate D2E/DX2                !
 ! A246  A(71,69,87)           113.0956         estimate D2E/DX2                !
 ! A247  A(32,70,68)           110.6192         estimate D2E/DX2                !
 ! A248  A(32,70,72)           101.056          estimate D2E/DX2                !
 ! A249  A(32,70,88)           112.473          estimate D2E/DX2                !
 ! A250  A(68,70,72)           110.4334         estimate D2E/DX2                !
 ! A251  A(68,70,88)           108.7721         estimate D2E/DX2                !
 ! A252  A(72,70,88)           113.3374         estimate D2E/DX2                !
 ! A253  A(69,71,72)           123.1161         estimate D2E/DX2                !
 ! A254  A(69,71,73)           109.8775         estimate D2E/DX2                !
 ! A255  A(72,71,73)           119.0347         estimate D2E/DX2                !
 ! A256  A(70,72,71)           122.4189         estimate D2E/DX2                !
 ! A257  A(70,72,74)           111.5372         estimate D2E/DX2                !
 ! A258  A(71,72,74)           119.7681         estimate D2E/DX2                !
 ! A259  A(33,73,71)           108.46           estimate D2E/DX2                !
 ! A260  A(33,73,75)           120.149          estimate D2E/DX2                !
 ! A261  A(71,73,75)           121.2868         estimate D2E/DX2                !
 ! A262  A(34,74,72)           111.6506         estimate D2E/DX2                !
 ! A263  A(34,74,76)           121.7676         estimate D2E/DX2                !
 ! A264  A(72,74,76)           120.6992         estimate D2E/DX2                !
 ! A265  A(73,75,76)           119.1865         estimate D2E/DX2                !
 ! A266  A(73,75,77)           121.8315         estimate D2E/DX2                !
 ! A267  A(76,75,77)           112.5406         estimate D2E/DX2                !
 ! A268  A(74,76,75)           119.8232         estimate D2E/DX2                !
 ! A269  A(74,76,78)           122.6648         estimate D2E/DX2                !
 ! A270  A(75,76,78)           111.0376         estimate D2E/DX2                !
 ! A271  A(37,77,75)           112.6127         estimate D2E/DX2                !
 ! A272  A(37,77,81)           111.3238         estimate D2E/DX2                !
 ! A273  A(37,77,94)           108.4192         estimate D2E/DX2                !
 ! A274  A(75,77,81)           100.6507         estimate D2E/DX2                !
 ! A275  A(75,77,94)           111.9711         estimate D2E/DX2                !
 ! A276  A(81,77,94)           111.7806         estimate D2E/DX2                !
 ! A277  A(38,78,76)           110.2557         estimate D2E/DX2                !
 ! A278  A(38,78,81)           110.5638         estimate D2E/DX2                !
 ! A279  A(38,78,97)           109.0542         estimate D2E/DX2                !
 ! A280  A(76,78,81)           101.3457         estimate D2E/DX2                !
 ! A281  A(76,78,97)           113.407          estimate D2E/DX2                !
 ! A282  A(81,78,97)           112.045          estimate D2E/DX2                !
 ! A283  A(39,79,40)           108.1294         estimate D2E/DX2                !
 ! A284  A(39,79,82)           111.8511         estimate D2E/DX2                !
 ! A285  A(39,79,93)           110.9899         estimate D2E/DX2                !
 ! A286  A(40,79,82)           100.5159         estimate D2E/DX2                !
 ! A287  A(40,79,93)           112.5616         estimate D2E/DX2                !
 ! A288  A(82,79,93)           112.3246         estimate D2E/DX2                !
 ! A289  A(41,80,42)           108.1614         estimate D2E/DX2                !
 ! A290  A(41,80,82)           100.5392         estimate D2E/DX2                !
 ! A291  A(41,80,96)           112.5832         estimate D2E/DX2                !
 ! A292  A(42,80,82)           111.2981         estimate D2E/DX2                !
 ! A293  A(42,80,96)           110.8225         estimate D2E/DX2                !
 ! A294  A(82,80,96)           112.9603         estimate D2E/DX2                !
 ! A295  A(77,81,78)           112.4619         estimate D2E/DX2                !
 ! A296  A(77,81,82)           122.1859         estimate D2E/DX2                !
 ! A297  A(78,81,82)           122.7251         estimate D2E/DX2                !
 ! A298  A(79,82,80)           111.7581         estimate D2E/DX2                !
 ! A299  A(79,82,81)           122.342          estimate D2E/DX2                !
 ! A300  A(80,82,81)           122.001          estimate D2E/DX2                !
 ! A301  A(55,83,57)           119.0285         estimate D2E/DX2                !
 ! A302  A(55,83,84)           116.6533         estimate D2E/DX2                !
 ! A303  A(57,83,84)           119.2071         estimate D2E/DX2                !
 ! A304  A(56,84,58)           115.8528         estimate D2E/DX2                !
 ! A305  A(56,84,83)           119.8767         estimate D2E/DX2                !
 ! A306  A(58,84,83)           118.6108         estimate D2E/DX2                !
 ! D1    D(17,1,5,9)            20.0631         estimate D2E/DX2                !
 ! D2    D(17,1,5,29)         -146.5475         estimate D2E/DX2                !
 ! D3    D(23,1,5,9)           132.5884         estimate D2E/DX2                !
 ! D4    D(23,1,5,29)          -34.0222         estimate D2E/DX2                !
 ! D5    D(86,1,5,9)          -104.7522         estimate D2E/DX2                !
 ! D6    D(86,1,5,29)           88.6373         estimate D2E/DX2                !
 ! D7    D(5,1,17,15)          -21.2851         estimate D2E/DX2                !
 ! D8    D(5,1,17,19)          124.8294         estimate D2E/DX2                !
 ! D9    D(23,1,17,15)        -139.0008         estimate D2E/DX2                !
 ! D10   D(23,1,17,19)           7.1137         estimate D2E/DX2                !
 ! D11   D(86,1,17,15)         101.5624         estimate D2E/DX2                !
 ! D12   D(86,1,17,19)        -112.3231         estimate D2E/DX2                !
 ! D13   D(5,1,23,21)         -123.6531         estimate D2E/DX2                !
 ! D14   D(5,1,23,25)           32.3266         estimate D2E/DX2                !
 ! D15   D(17,1,23,21)          -3.7736         estimate D2E/DX2                !
 ! D16   D(17,1,23,25)         152.2062         estimate D2E/DX2                !
 ! D17   D(86,1,23,21)         115.7496         estimate D2E/DX2                !
 ! D18   D(86,1,23,25)         -88.2707         estimate D2E/DX2                !
 ! D19   D(43,2,6,10)         -137.4853         estimate D2E/DX2                !
 ! D20   D(43,2,6,15)           11.046          estimate D2E/DX2                !
 ! D21   D(44,2,6,10)          -22.9237         estimate D2E/DX2                !
 ! D22   D(44,2,6,15)          125.6075         estimate D2E/DX2                !
 ! D23   D(90,2,6,10)          101.0319         estimate D2E/DX2                !
 ! D24   D(90,2,6,15)         -110.4369         estimate D2E/DX2                !
 ! D25   D(6,2,43,13)           -8.3777         estimate D2E/DX2                !
 ! D26   D(6,2,43,39)          149.3865         estimate D2E/DX2                !
 ! D27   D(44,2,43,13)        -124.6954         estimate D2E/DX2                !
 ! D28   D(44,2,43,39)          33.0688         estimate D2E/DX2                !
 ! D29   D(90,2,43,13)         113.1389         estimate D2E/DX2                !
 ! D30   D(90,2,43,39)         -89.0969         estimate D2E/DX2                !
 ! D31   D(6,2,44,40)         -147.8242         estimate D2E/DX2                !
 ! D32   D(6,2,44,47)           19.8247         estimate D2E/DX2                !
 ! D33   D(43,2,44,40)         -37.5292         estimate D2E/DX2                !
 ! D34   D(43,2,44,47)         130.1197         estimate D2E/DX2                !
 ! D35   D(90,2,44,40)          86.4719         estimate D2E/DX2                !
 ! D36   D(90,2,44,47)        -105.8792         estimate D2E/DX2                !
 ! D37   D(18,3,7,12)           28.9324         estimate D2E/DX2                !
 ! D38   D(18,3,7,30)          145.7954         estimate D2E/DX2                !
 ! D39   D(18,3,7,99)          -93.9024         estimate D2E/DX2                !
 ! D40   D(26,3,7,12)         -129.6099         estimate D2E/DX2                !
 ! D41   D(26,3,7,30)          -12.7469         estimate D2E/DX2                !
 ! D42   D(26,3,7,99)          107.5553         estimate D2E/DX2                !
 ! D43   D(7,3,18,16)            4.8277         estimate D2E/DX2                !
 ! D44   D(7,3,18,20)         -155.5322         estimate D2E/DX2                !
 ! D45   D(26,3,18,16)         160.9212         estimate D2E/DX2                !
 ! D46   D(26,3,18,20)           0.5613         estimate D2E/DX2                !
 ! D47   D(7,3,26,24)          159.4818         estimate D2E/DX2                !
 ! D48   D(7,3,26,28)            4.5079         estimate D2E/DX2                !
 ! D49   D(18,3,26,24)           0.2678         estimate D2E/DX2                !
 ! D50   D(18,3,26,28)        -154.7061         estimate D2E/DX2                !
 ! D51   D(45,4,8,11)           20.2271         estimate D2E/DX2                !
 ! D52   D(45,4,8,16)         -135.0331         estimate D2E/DX2                !
 ! D53   D(46,4,8,11)          134.3834         estimate D2E/DX2                !
 ! D54   D(46,4,8,16)          -20.8768         estimate D2E/DX2                !
 ! D55   D(95,4,8,11)         -105.2639         estimate D2E/DX2                !
 ! D56   D(95,4,8,16)           99.4759         estimate D2E/DX2                !
 ! D57   D(8,4,45,41)          145.4339         estimate D2E/DX2                !
 ! D58   D(8,4,45,48)          -21.2459         estimate D2E/DX2                !
 ! D59   D(46,4,45,41)          35.97           estimate D2E/DX2                !
 ! D60   D(46,4,45,48)        -130.7098         estimate D2E/DX2                !
 ! D61   D(95,4,45,41)         -87.1833         estimate D2E/DX2                !
 ! D62   D(95,4,45,48)         106.1369         estimate D2E/DX2                !
 ! D63   D(8,4,46,14)           12.0042         estimate D2E/DX2                !
 ! D64   D(8,4,46,42)         -149.8649         estimate D2E/DX2                !
 ! D65   D(45,4,46,14)         128.9191         estimate D2E/DX2                !
 ! D66   D(45,4,46,42)         -32.9501         estimate D2E/DX2                !
 ! D67   D(95,4,46,14)        -109.2639         estimate D2E/DX2                !
 ! D68   D(95,4,46,42)          88.867          estimate D2E/DX2                !
 ! D69   D(1,5,9,13)            -9.4298         estimate D2E/DX2                !
 ! D70   D(1,5,9,35)          -168.1324         estimate D2E/DX2                !
 ! D71   D(29,5,9,13)          156.9323         estimate D2E/DX2                !
 ! D72   D(29,5,9,35)           -1.7703         estimate D2E/DX2                !
 ! D73   D(1,5,29,27)           10.765          estimate D2E/DX2                !
 ! D74   D(1,5,29,31)          174.2413         estimate D2E/DX2                !
 ! D75   D(9,5,29,27)         -155.8584         estimate D2E/DX2                !
 ! D76   D(9,5,29,31)            7.618          estimate D2E/DX2                !
 ! D77   D(2,6,10,49)           -0.2227         estimate D2E/DX2                !
 ! D78   D(2,6,10,53)          144.9147         estimate D2E/DX2                !
 ! D79   D(15,6,10,49)        -145.7119         estimate D2E/DX2                !
 ! D80   D(15,6,10,53)          -0.5745         estimate D2E/DX2                !
 ! D81   D(2,6,15,13)          -10.0626         estimate D2E/DX2                !
 ! D82   D(2,6,15,17)         -155.0018         estimate D2E/DX2                !
 ! D83   D(10,6,15,13)         139.3565         estimate D2E/DX2                !
 ! D84   D(10,6,15,17)          -5.5827         estimate D2E/DX2                !
 ! D85   D(3,7,12,14)          -32.3331         estimate D2E/DX2                !
 ! D86   D(3,7,12,36)          134.6303         estimate D2E/DX2                !
 ! D87   D(30,7,12,14)        -143.4403         estimate D2E/DX2                !
 ! D88   D(30,7,12,36)          23.5231         estimate D2E/DX2                !
 ! D89   D(99,7,12,14)          91.6927         estimate D2E/DX2                !
 ! D90   D(99,7,12,36)        -101.3439         estimate D2E/DX2                !
 ! D91   D(3,7,30,28)           17.1638         estimate D2E/DX2                !
 ! D92   D(3,7,30,32)         -142.8519         estimate D2E/DX2                !
 ! D93   D(12,7,30,28)         133.4828         estimate D2E/DX2                !
 ! D94   D(12,7,30,32)         -26.533          estimate D2E/DX2                !
 ! D95   D(99,7,30,28)        -102.9596         estimate D2E/DX2                !
 ! D96   D(99,7,30,32)          97.0246         estimate D2E/DX2                !
 ! D97   D(4,8,11,50)            7.1299         estimate D2E/DX2                !
 ! D98   D(4,8,11,54)         -144.2699         estimate D2E/DX2                !
 ! D99   D(16,8,11,50)         159.7083         estimate D2E/DX2                !
 ! D100  D(16,8,11,54)           8.3086         estimate D2E/DX2                !
 ! D101  D(4,8,16,14)           21.3483         estimate D2E/DX2                !
 ! D102  D(4,8,16,18)          137.9429         estimate D2E/DX2                !
 ! D103  D(4,8,16,100)         -96.6903         estimate D2E/DX2                !
 ! D104  D(11,8,16,14)        -133.5228         estimate D2E/DX2                !
 ! D105  D(11,8,16,18)         -16.9282         estimate D2E/DX2                !
 ! D106  D(11,8,16,100)        108.4386         estimate D2E/DX2                !
 ! D107  D(5,9,13,15)           -2.2403         estimate D2E/DX2                !
 ! D108  D(5,9,13,43)         -147.4256         estimate D2E/DX2                !
 ! D109  D(35,9,13,15)         157.4007         estimate D2E/DX2                !
 ! D110  D(35,9,13,43)          12.2153         estimate D2E/DX2                !
 ! D111  D(5,9,35,33)           -7.8994         estimate D2E/DX2                !
 ! D112  D(5,9,35,37)          151.3999         estimate D2E/DX2                !
 ! D113  D(13,9,35,33)        -167.2985         estimate D2E/DX2                !
 ! D114  D(13,9,35,37)          -7.9992         estimate D2E/DX2                !
 ! D115  D(6,10,49,47)          26.25           estimate D2E/DX2                !
 ! D116  D(6,10,49,51)         141.4611         estimate D2E/DX2                !
 ! D117  D(6,10,49,91)         -96.1377         estimate D2E/DX2                !
 ! D118  D(53,10,49,47)       -121.4754         estimate D2E/DX2                !
 ! D119  D(53,10,49,51)         -6.2642         estimate D2E/DX2                !
 ! D120  D(53,10,49,91)        116.137          estimate D2E/DX2                !
 ! D121  D(6,10,53,19)           3.5649         estimate D2E/DX2                !
 ! D122  D(6,10,53,55)        -141.4098         estimate D2E/DX2                !
 ! D123  D(49,10,53,19)        153.0824         estimate D2E/DX2                !
 ! D124  D(49,10,53,55)          8.1077         estimate D2E/DX2                !
 ! D125  D(8,11,50,48)         -32.984          estimate D2E/DX2                !
 ! D126  D(8,11,50,52)        -148.6551         estimate D2E/DX2                !
 ! D127  D(8,11,50,92)          89.3629         estimate D2E/DX2                !
 ! D128  D(54,11,50,48)        121.088          estimate D2E/DX2                !
 ! D129  D(54,11,50,52)          5.4169         estimate D2E/DX2                !
 ! D130  D(54,11,50,92)       -116.5651         estimate D2E/DX2                !
 ! D131  D(8,11,54,20)           2.0795         estimate D2E/DX2                !
 ! D132  D(8,11,54,56)         149.0267         estimate D2E/DX2                !
 ! D133  D(50,11,54,20)       -152.8285         estimate D2E/DX2                !
 ! D134  D(50,11,54,56)         -5.8812         estimate D2E/DX2                !
 ! D135  D(7,12,14,16)           4.4482         estimate D2E/DX2                !
 ! D136  D(7,12,14,46)         164.9655         estimate D2E/DX2                !
 ! D137  D(36,12,14,16)       -163.0125         estimate D2E/DX2                !
 ! D138  D(36,12,14,46)         -2.4952         estimate D2E/DX2                !
 ! D139  D(7,12,36,34)           5.8725         estimate D2E/DX2                !
 ! D140  D(7,12,36,38)        -164.6862         estimate D2E/DX2                !
 ! D141  D(14,12,36,34)        172.5892         estimate D2E/DX2                !
 ! D142  D(14,12,36,38)          2.0305         estimate D2E/DX2                !
 ! D143  D(9,13,15,6)         -144.4725         estimate D2E/DX2                !
 ! D144  D(9,13,15,17)           1.558          estimate D2E/DX2                !
 ! D145  D(43,13,15,6)           4.467          estimate D2E/DX2                !
 ! D146  D(43,13,15,17)        150.4975         estimate D2E/DX2                !
 ! D147  D(9,13,43,2)          151.7712         estimate D2E/DX2                !
 ! D148  D(9,13,43,39)          -6.7791         estimate D2E/DX2                !
 ! D149  D(15,13,43,2)           2.7988         estimate D2E/DX2                !
 ! D150  D(15,13,43,39)       -155.7515         estimate D2E/DX2                !
 ! D151  D(12,14,16,8)         149.0369         estimate D2E/DX2                !
 ! D152  D(12,14,16,18)         28.9814         estimate D2E/DX2                !
 ! D153  D(12,14,16,100)       -92.9063         estimate D2E/DX2                !
 ! D154  D(46,14,16,8)         -13.1083         estimate D2E/DX2                !
 ! D155  D(46,14,16,18)       -133.1639         estimate D2E/DX2                !
 ! D156  D(46,14,16,100)       104.9485         estimate D2E/DX2                !
 ! D157  D(12,14,46,4)        -162.2698         estimate D2E/DX2                !
 ! D158  D(12,14,46,42)          0.5738         estimate D2E/DX2                !
 ! D159  D(16,14,46,4)           0.7576         estimate D2E/DX2                !
 ! D160  D(16,14,46,42)        163.6012         estimate D2E/DX2                !
 ! D161  D(6,15,17,1)          152.1863         estimate D2E/DX2                !
 ! D162  D(6,15,17,19)           8.3771         estimate D2E/DX2                !
 ! D163  D(13,15,17,1)          11.1915         estimate D2E/DX2                !
 ! D164  D(13,15,17,19)       -132.6177         estimate D2E/DX2                !
 ! D165  D(8,16,18,3)         -144.0612         estimate D2E/DX2                !
 ! D166  D(8,16,18,20)          16.0913         estimate D2E/DX2                !
 ! D167  D(14,16,18,3)         -32.5173         estimate D2E/DX2                !
 ! D168  D(14,16,18,20)        127.6352         estimate D2E/DX2                !
 ! D169  D(100,16,18,3)         90.003          estimate D2E/DX2                !
 ! D170  D(100,16,18,20)      -109.8445         estimate D2E/DX2                !
 ! D171  D(1,17,19,21)          -8.1621         estimate D2E/DX2                !
 ! D172  D(1,17,19,53)        -153.0525         estimate D2E/DX2                !
 ! D173  D(15,17,19,21)        139.6886         estimate D2E/DX2                !
 ! D174  D(15,17,19,53)         -5.2018         estimate D2E/DX2                !
 ! D175  D(3,18,20,22)           0.2092         estimate D2E/DX2                !
 ! D176  D(3,18,20,54)         152.6814         estimate D2E/DX2                !
 ! D177  D(16,18,20,22)       -159.7636         estimate D2E/DX2                !
 ! D178  D(16,18,20,54)         -7.2915         estimate D2E/DX2                !
 ! D179  D(17,19,21,23)          5.4256         estimate D2E/DX2                !
 ! D180  D(17,19,21,57)       -140.7624         estimate D2E/DX2                !
 ! D181  D(53,19,21,23)        150.1719         estimate D2E/DX2                !
 ! D182  D(53,19,21,57)          3.984          estimate D2E/DX2                !
 ! D183  D(17,19,53,10)         -0.673          estimate D2E/DX2                !
 ! D184  D(17,19,53,55)        141.1467         estimate D2E/DX2                !
 ! D185  D(21,19,53,10)       -141.9177         estimate D2E/DX2                !
 ! D186  D(21,19,53,55)         -0.098          estimate D2E/DX2                !
 ! D187  D(18,20,22,24)         -1.8123         estimate D2E/DX2                !
 ! D188  D(18,20,22,58)        143.3014         estimate D2E/DX2                !
 ! D189  D(54,20,22,24)       -155.448          estimate D2E/DX2                !
 ! D190  D(54,20,22,58)        -10.3342         estimate D2E/DX2                !
 ! D191  D(18,20,54,11)         -2.4679         estimate D2E/DX2                !
 ! D192  D(18,20,54,56)       -145.061          estimate D2E/DX2                !
 ! D193  D(22,20,54,11)        150.6433         estimate D2E/DX2                !
 ! D194  D(22,20,54,56)          8.0502         estimate D2E/DX2                !
 ! D195  D(19,21,23,1)          -0.7665         estimate D2E/DX2                !
 ! D196  D(19,21,23,25)       -157.0389         estimate D2E/DX2                !
 ! D197  D(57,21,23,1)         145.6288         estimate D2E/DX2                !
 ! D198  D(57,21,23,25)        -10.6435         estimate D2E/DX2                !
 ! D199  D(19,21,57,59)        152.4065         estimate D2E/DX2                !
 ! D200  D(19,21,57,83)         -4.3917         estimate D2E/DX2                !
 ! D201  D(23,21,57,59)         10.784          estimate D2E/DX2                !
 ! D202  D(23,21,57,83)       -146.0142         estimate D2E/DX2                !
 ! D203  D(20,22,24,26)          2.65           estimate D2E/DX2                !
 ! D204  D(20,22,24,62)        154.0036         estimate D2E/DX2                !
 ! D205  D(58,22,24,26)       -146.5012         estimate D2E/DX2                !
 ! D206  D(58,22,24,62)          4.8525         estimate D2E/DX2                !
 ! D207  D(20,22,58,60)       -146.5626         estimate D2E/DX2                !
 ! D208  D(20,22,58,84)          3.3631         estimate D2E/DX2                !
 ! D209  D(24,22,58,60)          2.4714         estimate D2E/DX2                !
 ! D210  D(24,22,58,84)        152.3971         estimate D2E/DX2                !
 ! D211  D(1,23,25,27)          -5.0965         estimate D2E/DX2                !
 ! D212  D(1,23,25,61)        -157.883          estimate D2E/DX2                !
 ! D213  D(21,23,25,27)        148.1997         estimate D2E/DX2                !
 ! D214  D(21,23,25,61)         -4.5869         estimate D2E/DX2                !
 ! D215  D(22,24,26,3)          -1.8412         estimate D2E/DX2                !
 ! D216  D(22,24,26,28)        150.5633         estimate D2E/DX2                !
 ! D217  D(62,24,26,3)        -149.5733         estimate D2E/DX2                !
 ! D218  D(62,24,26,28)          2.8311         estimate D2E/DX2                !
 ! D219  D(22,24,62,60)         -9.4762         estimate D2E/DX2                !
 ! D220  D(22,24,62,64)       -125.1999         estimate D2E/DX2                !
 ! D221  D(22,24,62,101)       111.291          estimate D2E/DX2                !
 ! D222  D(26,24,62,60)        140.645          estimate D2E/DX2                !
 ! D223  D(26,24,62,64)         24.9213         estimate D2E/DX2                !
 ! D224  D(26,24,62,101)       -98.5879         estimate D2E/DX2                !
 ! D225  D(23,25,27,29)        -20.1743         estimate D2E/DX2                !
 ! D226  D(23,25,27,65)       -134.1635         estimate D2E/DX2                !
 ! D227  D(23,25,27,85)        105.9307         estimate D2E/DX2                !
 ! D228  D(61,25,27,29)        134.7638         estimate D2E/DX2                !
 ! D229  D(61,25,27,65)         20.7746         estimate D2E/DX2                !
 ! D230  D(61,25,27,85)        -99.1312         estimate D2E/DX2                !
 ! D231  D(23,25,61,59)         17.4013         estimate D2E/DX2                !
 ! D232  D(23,25,61,63)        134.103          estimate D2E/DX2                !
 ! D233  D(23,25,61,102)      -107.9753         estimate D2E/DX2                !
 ! D234  D(27,25,61,59)       -137.731          estimate D2E/DX2                !
 ! D235  D(27,25,61,63)        -21.0293         estimate D2E/DX2                !
 ! D236  D(27,25,61,102)        96.8923         estimate D2E/DX2                !
 ! D237  D(3,26,28,30)           5.9056         estimate D2E/DX2                !
 ! D238  D(3,26,28,66)         122.9949         estimate D2E/DX2                !
 ! D239  D(3,26,28,89)        -114.8639         estimate D2E/DX2                !
 ! D240  D(24,26,28,30)       -148.4077         estimate D2E/DX2                !
 ! D241  D(24,26,28,66)        -31.3183         estimate D2E/DX2                !
 ! D242  D(24,26,28,89)         90.8229         estimate D2E/DX2                !
 ! D243  D(25,27,29,5)          17.088          estimate D2E/DX2                !
 ! D244  D(25,27,29,31)       -146.8248         estimate D2E/DX2                !
 ! D245  D(65,27,29,5)         126.2128         estimate D2E/DX2                !
 ! D246  D(65,27,29,31)        -37.7            estimate D2E/DX2                !
 ! D247  D(85,27,29,5)        -110.3611         estimate D2E/DX2                !
 ! D248  D(85,27,29,31)         85.7262         estimate D2E/DX2                !
 ! D249  D(25,27,65,63)        -12.0113         estimate D2E/DX2                !
 ! D250  D(25,27,65,67)        150.5059         estimate D2E/DX2                !
 ! D251  D(29,27,65,63)       -128.9104         estimate D2E/DX2                !
 ! D252  D(29,27,65,67)         33.6068         estimate D2E/DX2                !
[...]
 Alpha virt. eigenvalues --    1.65819   1.66196   1.66368   1.66674   1.66709
 Alpha virt. eigenvalues --    1.66954   1.67142   1.67337   1.67551   1.67889
 Alpha virt. eigenvalues --    1.67937   1.68279   1.68368   1.68680   1.68869
 Alpha virt. eigenvalues --    1.69068   1.69396   1.69725   1.69850   1.69997
 Alpha virt. eigenvalues --    1.70229   1.70751   1.70943   1.71163   1.71198
 Alpha virt. eigenvalues --    1.71765   1.71959   1.72151   1.72330   1.72463
 Alpha virt. eigenvalues --    1.72569   1.72846   1.73143   1.73267   1.73495
 Alpha virt. eigenvalues --    1.74096   1.74184   1.74409   1.74450   1.74972
 Alpha virt. eigenvalues --    1.75207   1.75381   1.75568   1.75587   1.75848
 Alpha virt. eigenvalues --    1.75968   1.76138   1.76336   1.76616   1.76713
 Alpha virt. eigenvalues --    1.76763   1.77048   1.77398   1.77584   1.77855
 Alpha virt. eigenvalues --    1.78165   1.78279   1.78664   1.78717   1.78922
 Alpha virt. eigenvalues --    1.79288   1.79421   1.79645   1.80078   1.80248
 Alpha virt. eigenvalues --    1.80678   1.80792   1.81098   1.81139   1.81292
 Alpha virt. eigenvalues --    1.81609   1.81786   1.82051   1.82158   1.82470
 Alpha virt. eigenvalues --    1.82821   1.83195   1.83563   1.83806   1.83840
 Alpha virt. eigenvalues --    1.84305   1.84375   1.84948   1.85097   1.85137
 Alpha virt. eigenvalues --    1.85861   1.86054   1.86504   1.86741   1.86895
 Alpha virt. eigenvalues --    1.87196   1.87450   1.87633   1.88066   1.88686
 Alpha virt. eigenvalues --    1.88964   1.89073   1.89341   1.89573   1.90077
 Alpha virt. eigenvalues --    1.90253   1.90684   1.91038   1.91594   1.91741
 Alpha virt. eigenvalues --    1.92088   1.92613   1.92706   1.92935   1.93274
 Alpha virt. eigenvalues --    1.93572   1.93903   1.94018   1.94526   1.95064
 Alpha virt. eigenvalues --    1.95392   1.96081   1.96557   1.96573   1.96924
 Alpha virt. eigenvalues --    1.97077   1.97335   1.97378   1.97792   1.98468
 Alpha virt. eigenvalues --    1.98844   1.99412   1.99678   1.99889   2.00358
 Alpha virt. eigenvalues --    2.00992   2.01197   2.01246   2.01451   2.02018
 Alpha virt. eigenvalues --    2.02188   2.02893   2.03119   2.03206   2.03447
 Alpha virt. eigenvalues --    2.04120   2.04258   2.04495   2.04970   2.05396
 Alpha virt. eigenvalues --    2.05886   2.06036   2.06301   2.06884   2.07605
 Alpha virt. eigenvalues --    2.07761   2.08142   2.08467   2.09054   2.09245
 Alpha virt. eigenvalues --    2.09613   2.10104   2.10392   2.10644   2.11462
 Alpha virt. eigenvalues --    2.11552   2.12048   2.12525   2.13144   2.13268
 Alpha virt. eigenvalues --    2.13451   2.13716   2.14331   2.14521   2.14970
 Alpha virt. eigenvalues --    2.15129   2.15547   2.15782   2.16527   2.16927
 Alpha virt. eigenvalues --    2.17332   2.17837   2.18022   2.18573   2.18680
 Alpha virt. eigenvalues --    2.18956   2.19236   2.19528   2.19806   2.20368
 Alpha virt. eigenvalues --    2.20917   2.21439   2.21680   2.21797   2.22370
 Alpha virt. eigenvalues --    2.22561   2.22824   2.23158   2.23850   2.24207
 Alpha virt. eigenvalues --    2.24632   2.24834   2.24983   2.25849   2.26346
 Alpha virt. eigenvalues --    2.26593   2.26806   2.27155   2.27629   2.28221
 Alpha virt. eigenvalues --    2.28793   2.29263   2.29621   2.30044   2.30104
 Alpha virt. eigenvalues --    2.30797   2.31232   2.31450   2.32665   2.32871
 Alpha virt. eigenvalues --    2.33000   2.33552   2.34093   2.34608   2.35028
 Alpha virt. eigenvalues --    2.36013   2.36295   2.36894   2.37696   2.38092
 Alpha virt. eigenvalues --    2.38357   2.38405   2.39187   2.39543   2.39934
 Alpha virt. eigenvalues --    2.40302   2.41050   2.41470   2.41696   2.42064
 Alpha virt. eigenvalues --    2.42622   2.42805   2.43510   2.44284   2.44950
 Alpha virt. eigenvalues --    2.45090   2.45723   2.46106   2.46416   2.46998
 Alpha virt. eigenvalues --    2.47221   2.47703   2.48009   2.48911   2.49529
 Alpha virt. eigenvalues --    2.50256   2.50423   2.50537   2.51497   2.51761
 Alpha virt. eigenvalues --    2.51875   2.52350   2.52740   2.52915   2.53121
 Alpha virt. eigenvalues --    2.53902   2.54016   2.54275   2.54888   2.55215
 Alpha virt. eigenvalues --    2.55587   2.55716   2.56019   2.56330   2.57005
 Alpha virt. eigenvalues --    2.57253   2.57314   2.57837   2.58202   2.58444
 Alpha virt. eigenvalues --    2.59079   2.59724   2.59927   2.60131   2.60172
 Alpha virt. eigenvalues --    2.60684   2.61490   2.61650   2.61961   2.62435
 Alpha virt. eigenvalues --    2.62655   2.62862   2.63429   2.63644   2.64024
 Alpha virt. eigenvalues --    2.64382   2.64419   2.64891   2.65392   2.65568
 Alpha virt. eigenvalues --    2.65900   2.66383   2.66822   2.67014   2.67429
 Alpha virt. eigenvalues --    2.68014   2.68447   2.68562   2.68972   2.69543
 Alpha virt. eigenvalues --    2.69761   2.69886   2.70256   2.70747   2.71169
 Alpha virt. eigenvalues --    2.71270   2.71639   2.72042   2.72185   2.73149
 Alpha virt. eigenvalues --    2.73355   2.73395   2.73763   2.73996   2.74301
 Alpha virt. eigenvalues --    2.74582   2.74865   2.75493   2.75576   2.76126
 Alpha virt. eigenvalues --    2.76392   2.77438   2.77989   2.78063   2.78674
 Alpha virt. eigenvalues --    2.79505   2.79740   2.80052   2.80214   2.80590
 Alpha virt. eigenvalues --    2.80855   2.81527   2.82225   2.82738   2.83039
 Alpha virt. eigenvalues --    2.83407   2.83717   2.84273   2.84857   2.85696
 Alpha virt. eigenvalues --    2.85974   2.86368   2.87122   2.87243   2.87707
 Alpha virt. eigenvalues --    2.87863   2.88462   2.89085   2.89908   2.90483
 Alpha virt. eigenvalues --    2.90977   2.91412   2.92345   2.93335   2.93916
 Alpha virt. eigenvalues --    2.94410   2.95243   2.95825   2.95914   2.97525
 Alpha virt. eigenvalues --    2.97956   2.98679   2.98864   3.00927   3.02310
 Alpha virt. eigenvalues --    3.03353   3.05644   3.06757   3.07988   3.08471
 Alpha virt. eigenvalues --    3.09594   3.10790   3.11206   3.12738   3.14392
 Alpha virt. eigenvalues --    3.15470   3.15804   3.16379   3.17788   3.18892
 Alpha virt. eigenvalues --    3.20332   3.21190   3.22052   3.23316   3.23949
 Alpha virt. eigenvalues --    3.24584   3.27086   3.30550   3.32733   3.33333
 Alpha virt. eigenvalues --    3.36072   3.38347   3.39981   3.40608   3.41735
 Alpha virt. eigenvalues --    3.44447   3.47900   3.49929   3.50439   3.53661
 Alpha virt. eigenvalues --    4.00318   4.01945   4.02455   4.03059   4.03296
 Alpha virt. eigenvalues --    4.04938   4.05515   4.06442   4.06704   4.07561
 Alpha virt. eigenvalues --    4.08352   4.08829   4.09342   4.10001   4.10730
 Alpha virt. eigenvalues --    4.11318   4.12176   4.12559   4.13113   4.14305
 Alpha virt. eigenvalues --    4.15018   4.15713   4.16606   4.17824   4.18269
 Alpha virt. eigenvalues --    4.18767   4.19536   4.19714   4.20591   4.21002
 Alpha virt. eigenvalues --    4.21291   4.22261   4.22642   4.24149   4.24736
 Alpha virt. eigenvalues --    4.25191   4.25657   4.25960   4.26521   4.27037
 Alpha virt. eigenvalues --    4.27214   4.27564   4.28014   4.28342   4.28624
 Alpha virt. eigenvalues --    4.29465   4.29843   4.30042   4.30572   4.31145
 Alpha virt. eigenvalues --    4.33478   4.33683   4.34734   4.35496   4.35841
 Alpha virt. eigenvalues --    4.38037   4.38280   4.39206   4.39720   4.40270
 Alpha virt. eigenvalues --    4.40571   4.41377   4.42017   4.42434   4.42978
 Alpha virt. eigenvalues --    4.43789   4.44919   4.45288   4.47639   4.47987
 Alpha virt. eigenvalues --    4.49129   4.50451   4.52204   4.52723   4.53360
 Alpha virt. eigenvalues --    4.54845   4.56527   4.58637   4.59360   4.60706
 Alpha virt. eigenvalues --    4.63401   4.63637   4.65691   4.66238   4.68566
 Alpha virt. eigenvalues --    4.69680   4.74901   4.77272   4.78538   4.80752
 Alpha virt. eigenvalues --    4.81419   4.81805   4.85516   4.87379   4.93291
 Alpha virt. eigenvalues --    4.96094   4.96879   5.01224   5.03931   5.06353
 Alpha virt. eigenvalues --    5.16432   5.19917
          Condensed to atoms (all electrons):
 Mulliken charges:
               1
     1  C   -0.363009
     2  C   -0.384703
     3  C    0.110948
     4  C   -0.374143
     5  C    0.095562
     6  C    0.087244
     7  C   -0.381158
     8  C    0.155772
     9  C    0.057604
    10  C    0.097885
    11  C    0.110829
    12  C    0.146441
    13  C   -0.013154
    14  C    0.117431
    15  C    0.041331
    16  C   -0.363907
    17  C    0.069534
    18  C    0.121046
    19  C    0.023303
    20  C    0.070112
    21  C   -0.019615
    22  C    0.013290
    23  C    0.113097
    24  C    0.083704
    25  C    0.159884
    26  C    0.128660
    27  C   -0.369312
    28  C   -0.375930
    29  C    0.153820
    30  C    0.185201
    31  C    0.087624
    32  C    0.180959
    33  C   -0.015346
    34  C   -0.375250
    35  C    0.064478
    36  C    0.124694
    37  C    0.092564
    38  C    0.122377
    39  C    0.154198
    40  C    0.116965
    41  C    0.116011
    42  C    0.144272
    43  C    0.084909
    44  C    0.142016
    45  C    0.144773
    46  C    0.114948
    47  C    0.122136
    48  C    0.124631
    49  C   -0.379864
    50  C   -0.384795
    51  C    0.090066
    52  C    0.091780
    53  C    0.012479
    54  C   -0.016425
    55  C    0.010341
    56  C    0.017319
    57  C    0.065325
    58  C    0.007057
    59  C    0.120028
    60  C    0.081981
    61  C   -0.362456
    62  C   -0.392932
    63  C    0.114141
    64  C    0.150497
    65  C    0.114406
    66  C    0.124756
    67  C    0.146946
    68  C    0.119187
    69  C   -0.391508
    70  C   -0.376798
    71  C    0.085644
    72  C    0.130268
    73  C    0.035911
    74  C    0.115750
    75  C    0.100564
    76  C    0.125979
    77  C   -0.356272
    78  C   -0.379052
    79  C   -0.378115
    80  C   -0.383572
    81  C    0.178292
    82  C    0.188824
    83  C    0.039671
    84  C    0.041034
    85  Cl   0.025842
    86  Cl   0.004490
    87  Cl   0.033016
    88  Cl   0.030354
    89  Cl   0.030837
    90  Cl   0.025069
    91  Cl   0.025400
    92  Cl   0.028221
    93  Cl   0.034077
    94  Cl   0.009297
    95  Cl   0.029045
    96  Cl   0.036094
    97  Cl   0.029192
    98  Cl   0.027297
    99  Cl   0.033985
   100  Cl   0.007132
   101  Cl   0.032918
   102  Cl   0.006549
 Sum of Mulliken charges =  -0.00000
 Mulliken charges with hydrogens summed into heavy atoms:
               1
     1  C   -0.363009
     2  C   -0.384703
     3  C    0.110948
     4  C   -0.374143
     5  C    0.095562
     6  C    0.087244
     7  C   -0.381158
     8  C    0.155772
     9  C    0.057604
    10  C    0.097885
    11  C    0.110829
    12  C    0.146441
    13  C   -0.013154
    14  C    0.117431
    15  C    0.041331
    16  C   -0.363907
    17  C    0.069534
    18  C    0.121046
    19  C    0.023303
    20  C    0.070112
    21  C   -0.019615
    22  C    0.013290
    23  C    0.113097
    24  C    0.083704
    25  C    0.159884
    26  C    0.128660
    27  C   -0.369312
    28  C   -0.375930
    29  C    0.153820
    30  C    0.185201
    31  C    0.087624
    32  C    0.180959
    33  C   -0.015346
    34  C   -0.375250
    35  C    0.064478
    36  C    0.124694
    37  C    0.092564
    38  C    0.122377
    39  C    0.154198
    40  C    0.116965
    41  C    0.116011
    42  C    0.144272
    43  C    0.084909
    44  C    0.142016
    45  C    0.144773
    46  C    0.114948
    47  C    0.122136
    48  C    0.124631
    49  C   -0.379864
    50  C   -0.384795
    51  C    0.090066
    52  C    0.091780
    53  C    0.012479
    54  C   -0.016425
    55  C    0.010341
    56  C    0.017319
    57  C    0.065325
    58  C    0.007057
    59  C    0.120028
    60  C    0.081981
    61  C   -0.362456
    62  C   -0.392932
    63  C    0.114141
    64  C    0.150497
    65  C    0.114406
    66  C    0.124756
    67  C    0.146946
    68  C    0.119187
    69  C   -0.391508
    70  C   -0.376798
    71  C    0.085644
    72  C    0.130268
    73  C    0.035911
    74  C    0.115750
    75  C    0.100564
    76  C    0.125979
    77  C   -0.356272
    78  C   -0.379052
    79  C   -0.378115
    80  C   -0.383572
    81  C    0.178292
    82  C    0.188824
    83  C    0.039671
    84  C    0.041034
    85  Cl   0.025842
    86  Cl   0.004490
    87  Cl   0.033016
    88  Cl   0.030354
    89  Cl   0.030837
    90  Cl   0.025069
    91  Cl   0.025400
    92  Cl   0.028221
    93  Cl   0.034077
    94  Cl   0.009297
    95  Cl   0.029045
    96  Cl   0.036094
    97  Cl   0.029192
    98  Cl   0.027297
    99  Cl   0.033985
   100  Cl   0.007132
   101  Cl   0.032918
   102  Cl   0.006549
 Electronic spatial extent (au):  <R**2>=          76663.8175
 Charge=             -0.0000 electrons
 Dipole moment (field-independent basis, Debye):
    X=             -0.1358    Y=              3.4464    Z=             -2.1941  Tot=              4.0878
 Quadrupole moment (field-independent basis, Debye-Ang):
   XX=           -743.1806   YY=           -722.4992   ZZ=           -701.4365
   XY=              7.3198   XZ=             -2.2306   YZ=             -6.1629
 Traceless Quadrupole moment (field-independent basis, Debye-Ang):
   XX=            -20.8085   YY=             -0.1271   ZZ=             20.9356
   XY=              7.3198   XZ=             -2.2306   YZ=             -6.1629
 Octapole moment (field-independent basis, Debye-Ang**2):
  XXX=             11.8066  YYY=            -22.4252  ZZZ=            -26.2949  XYY=             37.8982
  XXY=            -53.8236  XXZ=             27.4413  XZZ=            -36.1127  YZZ=             20.7608
  YYZ=             -1.5771  XYZ=              0.6883
 Hexadecapole moment (field-independent basis, Debye-Ang**3):
 XXXX=         -40678.6645 YYYY=         -36170.0503 ZZZZ=         -29866.4884 XXXY=             -6.0572
 XXXZ=             40.2968 YYYX=             48.9358 YYYZ=           -120.2920 ZZZX=            -24.3252
 ZZZY=             54.1899 XXYY=         -13001.4392 XXZZ=         -11933.6283 YYZZ=         -11011.5317
 XXYZ=             34.6904 YYXZ=             61.5912 ZZXY=             47.2746
 N-N= 3.013212419414D+04 E-N=-8.733847433113D+04  KE= 1.142941995731D+04
 Leave Link  601 at Wed Jun 29 00:29:11 2022, MaxMem=  1342177280 cpu:              18.7 elap:               1.1
 (Enter /home/mkliu/g16/l9999.exe)
 1\1\GINC-NODE01\FOpt\RB3LYP\6-31G(d,p)\C84Cl18\MKLIU\29-Jun-2022\0\\#P
  opt b3lyp/6-31G(d, p) empiricaldispersion=GD3\\force\\0,1\C,8.4287239
 78,18.6122745577,10.8394688311\C,12.5957264563,19.9625735019,8.9180618
 591\C,8.2715397892,26.8412061293,10.5433196402\C,12.5033656506,25.7511
 489507,8.9332410397\C,8.0186993464,19.1237687651,9.4623309677\C,12.087
 5253085,19.4750094393,10.254017552\C,7.8893847292,27.1083096812,9.0986
 462262\C,11.9232081072,26.2137416522,10.24244429\C,8.9972255333,19.234
 8929901,8.4111074002\C,12.3639005446,20.1220857355,11.4204300602\C,12.
 1372302819,25.5328003434,11.3748354797\C,8.9820406944,26.6167615358,8.
 1636371242\C,10.3768062948,19.060239407,8.7183830514\C,10.2920415279,2
 6.659506074,8.6344324561\C,10.8245468979,18.8141343885,10.080701201\C,
 10.6954345128,27.0700490028,10.0365257261\C,9.9124125267,18.7168887429
 ,11.0955241865\C,9.5745387252,26.7655803678,11.0065194816\C,10.1591032
 76,19.4437084427,12.2994849809\C,9.8373481795,26.0226648514,12.2035050
 854\C,8.9471615643,19.9974336661,12.7857039986\C,8.7480752257,25.38781
 95662,12.8555592609\C,7.8675511409,19.5123844398,11.9338652966\C,7.428
 2544222,25.5097332957,12.3708535953\C,6.711485886,20.1670783886,11.805
 90083\C,7.1972392538,26.2129567214,11.2218768994\C,5.9216490462,20.138
 6761707,10.5256292206\C,6.047420795,25.8952615543,10.3027559344\C,6.77
 14165478,19.7398744128,9.3262653552\C,6.6352624285,26.2776660118,8.964
 9242131\C,6.4352851853,20.330546742,8.0966287319\C,6.339100203,25.6241
 443132,7.8506579844\C,7.3498758266,20.3869544596,7.0500733\C,7.2296255
 636,25.6594996761,6.623404108\C,8.6929517169,19.9552999074,7.205311783
 8\C,8.6955528546,25.8633027863,7.0095545535\C,9.7385948704,20.61050824
 05,6.4558963041\C,9.7256599858,25.1284282928,6.3709325494\C,11.0516654
 382,20.5625476908,6.9186011095\C,12.722911514,22.1673868084,7.78388450
 69\C,12.7123056971,23.5583157873,7.7830729128\C,11.0314863311,25.14500
 28985,6.8963958669\C,11.364648839,19.7523593943,8.0256635483\C,12.9281
 030422,21.4460833567,8.9607827705\C,12.8902674248,24.2788753416,8.9637
 208736\C,11.3023733613,25.9293951688,8.0146444945\C,13.1538611802,22.1
 534834446,10.1591558278\C,13.1236554402,23.571962882,10.1572029444\C,1
 3.2012966433,21.3873039542,11.4897597545\C,13.0859190128,24.3478559085
 ,11.4742360289\C,12.4659474217,22.1736010456,12.563619592\C,12.4189386
 746,23.5225101291,12.5502855653\C,11.3695730503,20.1409999477,12.45461
 55691\C,11.1143449026,25.4323658991,12.40232431\C,11.3646206013,21.405
 9947141,13.0895136286\C,11.2611861304,24.2001211773,13.0634452097\C,8.
 9015070005,21.2898878639,13.3533190027\C,8.8901813249,24.1100683993,13
 .4919602519\C,7.6521875817,22.0238408475,13.2515617779\C,7.6630137405,
 23.3889850009,13.3613490408\C,6.4157726103,21.3908342007,12.6316905189
 \C,6.591605702,24.3237049875,12.7846003206\C,5.8314647817,22.307091158
 2,11.5693482179\C,5.9362662437,23.6945716078,11.5695065946\C,5.5522345
 679,21.6110819955,10.3983636863\C,5.7147593821,24.4007470044,10.368243
 5539\C,5.3542523445,22.2860424852,9.1942982046\C,5.4137944113,23.69692
 06983,9.1794326339\C,5.3871310179,21.4439540684,7.9335420799\C,5.38277
 28555,24.4489330699,7.8439816476\C,5.9606237835,22.229633234,6.7788275
 33\C,5.9688907249,23.6086638705,6.7395434869\C,7.022145786,21.52068082
 43,6.1959395698\C,7.0037752096,24.284484227,6.0670017582\C,8.014750336
 7,22.1756345753,5.4916419469\C,8.0115570052,23.5739777357,5.439971472\
 C,9.3910714122,21.5973870498,5.3416333049\C,9.4024974317,24.1186019581
 ,5.2706898343\C,12.0785650893,21.6097608336,6.5261416665\C,12.07113495
 39,24.1060411497,6.5201680395\C,10.2348164189,22.8541931901,5.41932611
 85\C,11.4440158664,22.8559779038,5.9617699141\C,10.1528148318,22.01655
 41545,13.5175041404\C,10.130061368,23.457313888,13.5546870781\Cl,4.431
 122563,19.0585383431,10.6528615388\Cl,7.8488573437,16.8629182487,11.04
 3682311\Cl,3.7127256308,20.8052523072,7.5298037862\Cl,3.6525483089,24.
 9641042013,7.4707679574\Cl,4.5456267467,26.8849638577,10.7076380639\Cl
 ,14.055462608,18.9876814613,8.3631250882\Cl,14.9482325895,21.032978478
 6,11.9385415198\Cl,14.7793232993,24.8856147995,11.9434378922\Cl,13.315
 9421756,20.9102102161,5.3545092127\Cl,9.5748630868,20.7460446448,3.701
 3346593\Cl,13.9426445679,26.7755570243,8.4024342463\Cl,13.3127521331,2
 4.8131099365,5.3587512144\Cl,9.6444302833,24.9030835304,3.6197067904\C
 l,6.7129743266,26.9806980523,5.4416232977\Cl,7.5431029379,28.896899533
 9,8.8118033197\Cl,11.1295902385,28.8774216896,10.1135751843\Cl,5.33499
 76543,24.7798244527,14.0457882821\Cl,5.167248298,21.0137727857,13.9578
 952618\\Version=ES64L-G16RevA.03\State=1-A\HF=-11484.6362705\RMSD=3.62
 7e-09\RMSF=1.879e-05\Dipole=0.2740821,-0.7909495,1.3732393\Quadrupole=
 -11.971388,-0.4705227,12.4419107,-3.0654197,10.6112024,4.7966877\PG=C0
 1 [X(C84Cl18)]\\@


 OLD HORSE! OLD HORSE! WHAT BROUGHT YOU HERE?
 FROM SACARAP' TO PORTLAND PIER
 I'VE CARTED STONE THIS MANY A YEAR;
 TILL, KILLED BY BLOWS AND SORE ABUSE,
 THEY SALTED ME DOWN FOR SAILORS' USE.
 THE SAILORS THEY DO ME DESPISE;
 THEY TURN ME OVER AND DAMN MY EYES;
 CUT OFF MY MEAT, AND SCRAPE MY BONES,
 AND PITCH ME OVER TO DAVY JONES.

    SAILORS' COMPLAINT ABOUT THE BEEF
    SERVED ON SHIPBOARD, CIRCA 1835.
 Job cpu time:       1 days 15 hours 52 minutes 11.3 seconds.
 Elapsed time:       0 days  1 hours 39 minutes 49.6 seconds.
 File lengths (MBytes):  RWF=   1574 Int=      0 D2E=      0 Chk=    196 Scr=      1
 Normal termination of Gaussian 16 at Wed Jun 29 00:29:11 2022.
