 Entering Gaussian System, Link 0=g16
 Input=18_addons_C84_11_Cl22_rank_8.gjf
 Output=18_addons_C84_11_Cl22_rank_8.log
 Initial command:
 /home/mkliu/g16/l1.exe "/data/scratch/Gau-172833.inp" -scrdir="/data/scratch/"
 Entering Link 1 = /home/mkliu/g16/l1.exe PID=    172834.
  
 Copyright (c) 1988,1990,1992,1993,1995,1998,2003,2009,2016,
            Gaussian, Inc.  All Rights Reserved.
  
 This is part of the Gaussian(R) 16 program.  It is based on
 the Gaussian(R) 09 system (copyright 2009, Gaussian, Inc.),
 the Gaussian(R) 03 system (copyright 2003, Gaussian, Inc.),
 the Gaussian(R) 98 system (copyright 1998, Gaussian, Inc.),
 the Gaussian(R) 94 system (copyright 1995, Gaussian, Inc.),
 the Gaussian 92(TM) system (copyright 1992, Gaussian, Inc.),
 the Gaussian 90(TM) system (copyright 1990, Gaussian, Inc.),
 the Gaussian 88(TM) system (copyright 1988, Gaussian, Inc.),
 the Gaussian 86(TM) system (copyright 1986, Carnegie Mellon
 University), and the Gaussian 82(TM) system (copyright 1983,
 Carnegie Mellon University). Gaussian is a federally registered
 trademark of Gaussian, Inc.
  
 This software contains proprietary and confidential information,
 including trade secrets, belonging to Gaussian, Inc.
  
 This software is provided under written license and may be
 used, copied, transmitted, or stored only in accord with that
 written license.
  
 The following legend is applicable only to US Government
 contracts under FAR:
  
                    RESTRICTED RIGHTS LEGEND
  
 Use, reproduction and disclosure by the US Government is
 subject to restrictions as set forth in subparagraphs (a)
 and (c) of the Commercial Computer Software - Restricted
 Rights clause in FAR 52.227-19.
  
 Gaussian, Inc.
 340 Quinnipiac St., Bldg. 40, Wallingford CT 06492
  
  
 ---------------------------------------------------------------
 Warning -- This program may not be used in any manner that
 competes with the business of Gaussian, Inc. or will provide
 assistance to any competitor of Gaussian, Inc.  The licensee
 of this program is prohibited from giving any competitor of
 Gaussian, Inc. access to this program.  By using this program,
 the user acknowledges that Gaussian, Inc. is engaged in the
 business of creating and licensing software in the field of
 computational chemistry and represents and warrants to the
 licensee that it is not a competitor of Gaussian, Inc. and that
 it will not use this program in any manner prohibited above.
 ---------------------------------------------------------------
  

 Cite this work as:
 Gaussian 16, Revision A.03,
 M. J. Frisch, G. W. Trucks, H. B. Schlegel, G. E. Scuseria, 
 M. A. Robb, J. R. Cheeseman, G. Scalmani, V. Barone, 
 G. A. Petersson, H. Nakatsuji, X. Li, M. Caricato, A. V. Marenich, 
 J. Bloino, B. G. Janesko, R. Gomperts, B. Mennucci, H. P. Hratchian, 
 J. V. Ortiz, A. F. Izmaylov, J. L. Sonnenberg, D. Williams-Young, 
 F. Ding, F. Lipparini, F. Egidi, J. Goings, B. Peng, A. Petrone, 
 T. Henderson, D. Ranasinghe, V. G. Zakrzewski, J. Gao, N. Rega, 
 G. Zheng, W. Liang, M. Hada, M. Ehara, K. Toyota, R. Fukuda, 
 J. Hasegawa, M. Ishida, T. Nakajima, Y. Honda, O. Kitao, H. Nakai, 
 T. Vreven, K. Throssell, J. A. Montgomery, Jr., J. E. Peralta, 
 F. Ogliaro, M. J. Bearpark, J. J. Heyd, E. N. Brothers, K. N. Kudin, 
 V. N. Staroverov, T. A. Keith, R. Kobayashi, J. Normand, 
 K. Raghavachari, A. P. Rendell, J. C. Burant, S. S. Iyengar, 
 J. Tomasi, M. Cossi, J. M. Millam, M. Klene, C. Adamo, R. Cammi, 
 J. W. Ochterski, R. L. Martin, K. Morokuma, O. Farkas, 
 J. B. Foresman, and D. J. Fox, Gaussian, Inc., Wallingford CT, 2016.
 
 ******************************************
 Gaussian 16:  ES64L-G16RevA.03 25-Dec-2016
                26-Jun-2022 
 ******************************************
 %mem=10GB
 %chk=18_addons_C84_11_Cl22_rank_8.chk
 %nprocshared=24
 Will use up to   24 processors via shared memory.
 ------------------------------------------------
 #P opt b3lyp/6-31G(d, p) empiricaldispersion=GD3
 ------------------------------------------------
 1/18=20,19=15,26=3,38=1/1,3;
 2/9=110,12=2,17=6,18=5,40=1/2;
 3/5=1,6=6,7=101,11=2,25=1,30=1,71=1,74=-5,124=31/1,2,3;
 4//1;
 5/5=2,38=5/2;
 6/7=2,8=2,9=2,10=2,28=1/1;
 7//1,2,3,16;
 1/18=20,19=15,26=3/3(2);
 2/9=110/2;
 99//99;
 2/9=110/2;
 3/5=1,6=6,7=101,11=2,25=1,30=1,71=1,74=-5,124=31/1,2,3;
 4/5=5,16=3,69=1/1;
 5/5=2,38=5/2;
 7//1,2,3,16;
 1/18=20,19=15,26=3/3(-5);
 2/9=110/2;
 6/7=2,8=2,9=2,10=2,19=2,28=1/1;
 99/9=1/99;
 Leave Link    1 at Sun Jun 26 23:29:29 2022, MaxMem=  1342177280 cpu:               0.7 elap:               0.1
 (Enter /home/mkliu/g16/l101.exe)
 -----
 force
 -----
 Symbolic Z-matrix:
 Charge =  0 Multiplicity = 1
 C                     8.42431   18.62823   10.81856 
 C                     12.57604   19.96822   8.89664 
 C                     8.26892   26.81702   10.5119 
 C                     12.46762   25.71133   8.93277 
 C                     8.02104   19.14302   9.45694 
 C                     12.0713   19.47284   10.21824 
 C                     7.89135   27.08206   9.0791 
 C                     11.88532   26.1671   10.23913 
 C                     8.98637   19.2509   8.41488 
 C                     12.34679   20.12001   11.38786 
 C                     12.13107   25.52588   11.37208 
 C                     8.96679   26.55446   8.16939 
 C                     10.36298   19.06295   8.70323 
 C                     10.26587   26.59526   8.64425 
 C                     10.81287   18.82269   10.04554 
 C                     10.67977   27.03998   10.02136 
 C                     9.89876   18.71881   11.06712 
 C                     9.57338   26.72976   10.98701 
 C                     10.1538   19.44445   12.25432 
 C                     9.83038   26.02409   12.1678 
 C                     8.94589   20.00871   12.74396 
 C                     8.76507   25.38936   12.80711 
 C                     7.88122   19.53124   11.90178 
 C                     7.44903   25.5013   12.33294 
 C                     6.72127   20.18783   11.78807 
 C                     7.20697   26.19999   11.18276 
 C                     5.92824   20.16151   10.51859 
 C                     6.05758   25.88501   10.27683 
 C                     6.77536   19.76981   9.33269 
 C                     6.64202   26.26058   8.94644 
 C                     6.43253   20.35549   8.12464 
 C                     6.3535    25.59484   7.83988 
 C                     7.3562    20.41062   7.07108 
 C                     7.23278   25.62917   6.61963 
 C                     8.68226   19.96785   7.21889 
 C                     8.68505   25.80285   7.02192 
 C                     9.71791   20.6251   6.46202 
 C                     9.70633   25.07708   6.39136 
 C                     11.06019   20.56426   6.92248 
 C                     12.68846   22.16016   7.79499 
 C                     12.67676   23.54712   7.79284 
 C                     11.00715   25.0912   6.91195 
 C                     11.35754   19.77155   8.01135 
 C                     12.88254   21.44489   8.96452 
 C                     12.84262   24.2556   8.97033 
 C                     11.27267   25.86548   8.02768 
 C                     13.10013   22.14814   10.15808 
 C                     13.06905   23.55426   10.15914 
 C                     13.1711   21.38043   11.46702 
 C                     13.0523   24.33572   11.45856 
 C                     12.42488   22.15393   12.5194 
 C                     12.36047   23.52341   12.50554 
 C                     11.35706   20.13086   12.40427 
 C                     11.21262   25.59931   12.55945 
 C                     11.34459   21.41149   13.03248 
 C                     11.26022   24.17805   13.05084 
 C                     8.9043    21.30873   13.29875 
 C                     8.89469   24.11138   13.46166 
 C                     7.67679   22.02811   13.21243 
 C                     7.69171   23.40558   13.31758 
 C                     6.44675   21.41278   12.60497 
 C                     6.62381   24.32528   12.75352 
 C                     5.89017   22.32394   11.54397 
 C                     5.99656   23.70221   11.53618 
 C                     5.59221   21.62665   10.38232 
 C                     5.7626    24.39808   10.34053 
 C                     5.38707   22.2955   9.18806 
 C                     5.45513   23.69629   9.16734 
 C                     5.3866    21.44371   7.94874 
 C                     5.39882   24.43369   7.84154 
 C                     5.94316   22.22012   6.79079 
 C                     5.962     23.58854   6.7411 
 C                     7.0129    21.50489   6.21717 
 C                     7.00015   24.26547   6.05303 
 C                     8.024     22.16378   5.53031 
 C                     7.99647   23.57572   5.42157 
 C                     9.35988   21.69827   5.61458 
 C                     9.3949    24.09988   5.27788 
 C                     12.06909   21.609    6.54006 
 C                     12.06793   24.09262   6.52561 
 C                     10.21676   22.84306   5.46657 
 C                     11.46281   22.84833   5.95742 
 C                     10.14536   22.02469   13.45772 
 C                     10.14034   23.45227   13.50226 
 Cl                    4.55982   26.80511   10.66832 
 Cl                    3.69505   24.94738   7.53792 
 Cl                    13.29346   24.86107   5.45055 
 Cl                    13.86765   26.71358   8.40674 
 Cl                    14.73511   24.80643   11.89487 
 Cl                    14.89834   21.08056   11.87338 
 Cl                    14.02188   19.06674   8.31537 
 Cl                    3.73883   20.79399   7.6344 
 Cl                    4.4555    19.12694   10.62441 
 Cl                    9.70458   24.89591   3.69415 
 Cl                    6.77897   26.95826   5.48711 
 Cl                    7.6059    28.83416   8.7582 
 Cl                    5.35874   24.7282   13.96683 
 Cl                    11.09504   28.79397   10.06631 
 Cl                    7.80776   16.92928   10.99266 
 Cl                    5.21404   21.098    13.90687 
 Cl                    13.31902   20.89463   5.42861 
 Cl                    11.8511   26.74076   13.82646 
 
 ITRead=  0  0  0  0  0  0  0  0  0  0  0  0  0  0  0  0  0  0  0  0
 ITRead=  0  0  0  0  0  0  0  0  0  0  0  0  0  0  0  0  0  0  0  0
 ITRead=  0  0  0  0  0  0  0  0  0  0  0  0  0  0  0  0  0  0  0  0
 ITRead=  0  0  0  0  0  0  0  0  0  0  0  0  0  0  0  0  0  0  0  0
 ITRead=  0  0  0  0  0  0  0  0  0  0  0  0  0  0  0  0  0  0  0  0
 ITRead=  0  0
 MicOpt= -1 -1 -1 -1 -1 -1 -1 -1 -1 -1 -1 -1 -1 -1 -1 -1 -1 -1 -1 -1
 MicOpt= -1 -1 -1 -1 -1 -1 -1 -1 -1 -1 -1 -1 -1 -1 -1 -1 -1 -1 -1 -1
 MicOpt= -1 -1 -1 -1 -1 -1 -1 -1 -1 -1 -1 -1 -1 -1 -1 -1 -1 -1 -1 -1
 MicOpt= -1 -1 -1 -1 -1 -1 -1 -1 -1 -1 -1 -1 -1 -1 -1 -1 -1 -1 -1 -1
 MicOpt= -1 -1 -1 -1 -1 -1 -1 -1 -1 -1 -1 -1 -1 -1 -1 -1 -1 -1 -1 -1
 MicOpt= -1 -1
 NAtoms=    102 NQM=      102 NQMF=       0 NMMI=      0 NMMIF=      0
                NMic=       0 NMicF=      0.
                    Isotopes and Nuclear Properties:
 (Nuclear quadrupole moments (NQMom) in fm**2, nuclear magnetic moments (NMagM)
  in nuclear magnetons)

  Atom         1           2           3           4           5           6           7           8           9          10
 IAtWgt=          12          12          12          12          12          12          12          12          12          12
 AtmWgt=  12.0000000  12.0000000  12.0000000  12.0000000  12.0000000  12.0000000  12.0000000  12.0000000  12.0000000  12.0000000
 NucSpn=           0           0           0           0           0           0           0           0           0           0
 AtZEff=  -0.0000000  -0.0000000  -0.0000000  -0.0000000  -0.0000000  -0.0000000  -0.0000000  -0.0000000  -0.0000000  -0.0000000
 NQMom=    0.0000000   0.0000000   0.0000000   0.0000000   0.0000000   0.0000000   0.0000000   0.0000000   0.0000000   0.0000000
 NMagM=    0.0000000   0.0000000   0.0000000   0.0000000   0.0000000   0.0000000   0.0000000   0.0000000   0.0000000   0.0000000
 AtZNuc=   6.0000000   6.0000000   6.0000000   6.0000000   6.0000000   6.0000000   6.0000000   6.0000000   6.0000000   6.0000000

  Atom        11          12          13          14          15          16          17          18          19          20
 IAtWgt=          12          12          12          12          12          12          12          12          12          12
 AtmWgt=  12.0000000  12.0000000  12.0000000  12.0000000  12.0000000  12.0000000  12.0000000  12.0000000  12.0000000  12.0000000
 NucSpn=           0           0           0           0           0           0           0           0           0           0
 AtZEff=  -0.0000000  -0.0000000  -0.0000000  -0.0000000  -0.0000000  -0.0000000  -0.0000000  -0.0000000  -0.0000000  -0.0000000
 NQMom=    0.0000000   0.0000000   0.0000000   0.0000000   0.0000000   0.0000000   0.0000000   0.0000000   0.0000000   0.0000000
 NMagM=    0.0000000   0.0000000   0.0000000   0.0000000   0.0000000   0.0000000   0.0000000   0.0000000   0.0000000   0.0000000
 AtZNuc=   6.0000000   6.0000000   6.0000000   6.0000000   6.0000000   6.0000000   6.0000000   6.0000000   6.0000000   6.0000000

  Atom        21          22          23          24          25          26          27          28          29          30
 IAtWgt=          12          12          12          12          12          12          12          12          12          12
 AtmWgt=  12.0000000  12.0000000  12.0000000  12.0000000  12.0000000  12.0000000  12.0000000  12.0000000  12.0000000  12.0000000
 NucSpn=           0           0           0           0           0           0           0           0           0           0
 AtZEff=  -0.0000000  -0.0000000  -0.0000000  -0.0000000  -0.0000000  -0.0000000  -0.0000000  -0.0000000  -0.0000000  -0.0000000
 NQMom=    0.0000000   0.0000000   0.0000000   0.0000000   0.0000000   0.0000000   0.0000000   0.0000000   0.0000000   0.0000000
 NMagM=    0.0000000   0.0000000   0.0000000   0.0000000   0.0000000   0.0000000   0.0000000   0.0000000   0.0000000   0.0000000
 AtZNuc=   6.0000000   6.0000000   6.0000000   6.0000000   6.0000000   6.0000000   6.0000000   6.0000000   6.0000000   6.0000000

  Atom        31          32          33          34          35          36          37          38          39          40
 IAtWgt=          12          12          12          12          12          12          12          12          12          12
 AtmWgt=  12.0000000  12.0000000  12.0000000  12.0000000  12.0000000  12.0000000  12.0000000  12.0000000  12.0000000  12.0000000
 NucSpn=           0           0           0           0           0           0           0           0           0           0
 AtZEff=  -0.0000000  -0.0000000  -0.0000000  -0.0000000  -0.0000000  -0.0000000  -0.0000000  -0.0000000  -0.0000000  -0.0000000
 NQMom=    0.0000000   0.0000000   0.0000000   0.0000000   0.0000000   0.0000000   0.0000000   0.0000000   0.0000000   0.0000000
 NMagM=    0.0000000   0.0000000   0.0000000   0.0000000   0.0000000   0.0000000   0.0000000   0.0000000   0.0000000   0.0000000
 AtZNuc=   6.0000000   6.0000000   6.0000000   6.0000000   6.0000000   6.0000000   6.0000000   6.0000000   6.0000000   6.0000000

  Atom        41          42          43          44          45          46          47          48          49          50
 IAtWgt=          12          12          12          12          12          12          12          12          12          12
 AtmWgt=  12.0000000  12.0000000  12.0000000  12.0000000  12.0000000  12.0000000  12.0000000  12.0000000  12.0000000  12.0000000
 NucSpn=           0           0           0           0           0           0           0           0           0           0
 AtZEff=  -0.0000000  -0.0000000  -0.0000000  -0.0000000  -0.0000000  -0.0000000  -0.0000000  -0.0000000  -0.0000000  -0.0000000
 NQMom=    0.0000000   0.0000000   0.0000000   0.0000000   0.0000000   0.0000000   0.0000000   0.0000000   0.0000000   0.0000000
 NMagM=    0.0000000   0.0000000   0.0000000   0.0000000   0.0000000   0.0000000   0.0000000   0.0000000   0.0000000   0.0000000
 AtZNuc=   6.0000000   6.0000000   6.0000000   6.0000000   6.0000000   6.0000000   6.0000000   6.0000000   6.0000000   6.0000000

  Atom        51          52          53          54          55          56          57          58          59          60
 IAtWgt=          12          12          12          12          12          12          12          12          12          12
 AtmWgt=  12.0000000  12.0000000  12.0000000  12.0000000  12.0000000  12.0000000  12.0000000  12.0000000  12.0000000  12.0000000
 NucSpn=           0           0           0           0           0           0           0           0           0           0
 AtZEff=  -0.0000000  -0.0000000  -0.0000000  -0.0000000  -0.0000000  -0.0000000  -0.0000000  -0.0000000  -0.0000000  -0.0000000
 NQMom=    0.0000000   0.0000000   0.0000000   0.0000000   0.0000000   0.0000000   0.0000000   0.0000000   0.0000000   0.0000000
 NMagM=    0.0000000   0.0000000   0.0000000   0.0000000   0.0000000   0.0000000   0.0000000   0.0000000   0.0000000   0.0000000
 AtZNuc=   6.0000000   6.0000000   6.0000000   6.0000000   6.0000000   6.0000000   6.0000000   6.0000000   6.0000000   6.0000000

  Atom        61          62          63          64          65          66          67          68          69          70
 IAtWgt=          12          12          12          12          12          12          12          12          12          12
 AtmWgt=  12.0000000  12.0000000  12.0000000  12.0000000  12.0000000  12.0000000  12.0000000  12.0000000  12.0000000  12.0000000
 NucSpn=           0           0           0           0           0           0           0           0           0           0
 AtZEff=  -0.0000000  -0.0000000  -0.0000000  -0.0000000  -0.0000000  -0.0000000  -0.0000000  -0.0000000  -0.0000000  -0.0000000
 NQMom=    0.0000000   0.0000000   0.0000000   0.0000000   0.0000000   0.0000000   0.0000000   0.0000000   0.0000000   0.0000000
 NMagM=    0.0000000   0.0000000   0.0000000   0.0000000   0.0000000   0.0000000   0.0000000   0.0000000   0.0000000   0.0000000
 AtZNuc=   6.0000000   6.0000000   6.0000000   6.0000000   6.0000000   6.0000000   6.0000000   6.0000000   6.0000000   6.0000000

  Atom        71          72          73          74          75          76          77          78          79          80
 IAtWgt=          12          12          12          12          12          12          12          12          12          12
 AtmWgt=  12.0000000  12.0000000  12.0000000  12.0000000  12.0000000  12.0000000  12.0000000  12.0000000  12.0000000  12.0000000
 NucSpn=           0           0           0           0           0           0           0           0           0           0
 AtZEff=  -0.0000000  -0.0000000  -0.0000000  -0.0000000  -0.0000000  -0.0000000  -0.0000000  -0.0000000  -0.0000000  -0.0000000
 NQMom=    0.0000000   0.0000000   0.0000000   0.0000000   0.0000000   0.0000000   0.0000000   0.0000000   0.0000000   0.0000000
 NMagM=    0.0000000   0.0000000   0.0000000   0.0000000   0.0000000   0.0000000   0.0000000   0.0000000   0.0000000   0.0000000
 AtZNuc=   6.0000000   6.0000000   6.0000000   6.0000000   6.0000000   6.0000000   6.0000000   6.0000000   6.0000000   6.0000000

  Atom        81          82          83          84          85          86          87          88          89          90
 IAtWgt=          12          12          12          12          35          35          35          35          35          35
 AtmWgt=  12.0000000  12.0000000  12.0000000  12.0000000  34.9688527  34.9688527  34.9688527  34.9688527  34.9688527  34.9688527
 NucSpn=           0           0           0           0           3           3           3           3           3           3
 AtZEff=  -0.0000000  -0.0000000  -0.0000000  -0.0000000  -0.0000000  -0.0000000  -0.0000000  -0.0000000  -0.0000000  -0.0000000
 NQMom=    0.0000000   0.0000000   0.0000000   0.0000000  -8.1650000  -8.1650000  -8.1650000  -8.1650000  -8.1650000  -8.1650000
 NMagM=    0.0000000   0.0000000   0.0000000   0.0000000   0.8218740   0.8218740   0.8218740   0.8218740   0.8218740   0.8218740
 AtZNuc=   6.0000000   6.0000000   6.0000000   6.0000000  17.0000000  17.0000000  17.0000000  17.0000000  17.0000000  17.0000000

  Atom        91          92          93          94          95          96          97          98          99         100
 IAtWgt=          35          35          35          35          35          35          35          35          35          35
 AtmWgt=  34.9688527  34.9688527  34.9688527  34.9688527  34.9688527  34.9688527  34.9688527  34.9688527  34.9688527  34.9688527
 NucSpn=           3           3           3           3           3           3           3           3           3           3
 AtZEff=  -0.0000000  -0.0000000  -0.0000000  -0.0000000  -0.0000000  -0.0000000  -0.0000000  -0.0000000  -0.0000000  -0.0000000
 NQMom=   -8.1650000  -8.1650000  -8.1650000  -8.1650000  -8.1650000  -8.1650000  -8.1650000  -8.1650000  -8.1650000  -8.1650000
 NMagM=    0.8218740   0.8218740   0.8218740   0.8218740   0.8218740   0.8218740   0.8218740   0.8218740   0.8218740   0.8218740
 AtZNuc=  17.0000000  17.0000000  17.0000000  17.0000000  17.0000000  17.0000000  17.0000000  17.0000000  17.0000000  17.0000000

  Atom       101         102
 IAtWgt=          35          35
 AtmWgt=  34.9688527  34.9688527
 NucSpn=           3           3
 AtZEff=  -0.0000000  -0.0000000
 NQMom=   -8.1650000  -8.1650000
 NMagM=    0.8218740   0.8218740
 AtZNuc=  17.0000000  17.0000000
 Leave Link  101 at Sun Jun 26 23:29:30 2022, MaxMem=  1342177280 cpu:               6.8 elap:               0.3
 (Enter /home/mkliu/g16/l103.exe)

 GradGradGradGradGradGradGradGradGradGradGradGradGradGradGradGradGradGrad
 Berny optimization.
 Initialization pass.
                           ----------------------------
                           !    Initial Parameters    !
                           ! (Angstroms and Degrees)  !
 --------------------------                            --------------------------
 ! Name  Definition              Value          Derivative Info.                !
 --------------------------------------------------------------------------------
 ! R1    R(1,5)                  1.5105         estimate D2E/DX2                !
 ! R2    R(1,17)                 1.498          estimate D2E/DX2                !
 ! R3    R(1,23)                 1.5112         estimate D2E/DX2                !
 ! R4    R(1,99)                 1.8157         estimate D2E/DX2                !
 ! R5    R(2,6)                  1.4989         estimate D2E/DX2                !
 ! R6    R(2,43)                 1.5189         estimate D2E/DX2                !
 ! R7    R(2,44)                 1.5097         estimate D2E/DX2                !
 ! R8    R(2,91)                 1.8003         estimate D2E/DX2                !
 ! R9    R(3,7)                  1.5052         estimate D2E/DX2                !
 ! R10   R(3,18)                 1.391          estimate D2E/DX2                !
 ! R11   R(3,26)                 1.3995         estimate D2E/DX2                !
 ! R12   R(4,8)                  1.5011         estimate D2E/DX2                !
 ! R13   R(4,45)                 1.5037         estimate D2E/DX2                !
 ! R14   R(4,46)                 1.5069         estimate D2E/DX2                !
 ! R15   R(4,88)                 1.8004         estimate D2E/DX2                !
 ! R16   R(5,9)                  1.4246         estimate D2E/DX2                !
 ! R17   R(5,29)                 1.4            estimate D2E/DX2                !
 ! R18   R(6,10)                 1.3648         estimate D2E/DX2                !
 ! R19   R(6,15)                 1.4269         estimate D2E/DX2                !
 ! R20   R(7,12)                 1.5042         estimate D2E/DX2                !
 ! R21   R(7,30)                 1.5011         estimate D2E/DX2                !
 ! R22   R(7,96)                 1.804          estimate D2E/DX2                !
 ! R23   R(8,11)                 1.3248         estimate D2E/DX2                !
 ! R24   R(8,16)                 1.5042         estimate D2E/DX2                !
 ! R25   R(9,13)                 1.419          estimate D2E/DX2                !
 ! R26   R(9,35)                 1.4272         estimate D2E/DX2                !
 ! R27   R(10,49)                1.5081         estimate D2E/DX2                !
 ! R28   R(10,53)                1.4187         estimate D2E/DX2                !
 ! R29   R(11,50)                1.5075         estimate D2E/DX2                !
 ! R30   R(11,54)                1.5029         estimate D2E/DX2                !
 ! R31   R(12,14)                1.3837         estimate D2E/DX2                !
 ! R32   R(12,36)                1.4003         estimate D2E/DX2                !
 ! R33   R(13,15)                1.4359         estimate D2E/DX2                !
 ! R34   R(13,43)                1.4036         estimate D2E/DX2                !
 ! R35   R(14,16)                1.5052         estimate D2E/DX2                !
 ! R36   R(14,46)                1.3879         estimate D2E/DX2                !
 ! R37   R(15,17)                1.3748         estimate D2E/DX2                !
 ! R38   R(16,18)                1.5009         estimate D2E/DX2                !
 ! R39   R(16,98)                1.803          estimate D2E/DX2                !
 ! R40   R(17,19)                1.4146         estimate D2E/DX2                !
 ! R41   R(18,20)                1.3994         estimate D2E/DX2                !
 ! R42   R(19,21)                1.4203         estimate D2E/DX2                !
 ! R43   R(19,53)                1.3934         estimate D2E/DX2                !
 ! R44   R(20,22)                1.3952         estimate D2E/DX2                !
 ! R45   R(20,54)                1.4981         estimate D2E/DX2                !
 ! R46   R(21,23)                1.439          estimate D2E/DX2                !
 ! R47   R(21,57)                1.4141         estimate D2E/DX2                !
 ! R48   R(22,24)                1.4033         estimate D2E/DX2                !
 ! R49   R(22,58)                1.4417         estimate D2E/DX2                !
 ! R50   R(23,25)                1.3377         estimate D2E/DX2                !
 ! R51   R(24,26)                1.3674         estimate D2E/DX2                !
 ! R52   R(24,62)                1.497          estimate D2E/DX2                !
 ! R53   R(25,27)                1.4971         estimate D2E/DX2                !
 ! R54   R(25,61)                1.4977         estimate D2E/DX2                !
 ! R55   R(26,28)                1.497          estimate D2E/DX2                !
 ! R56   R(27,29)                1.5091         estimate D2E/DX2                !
 ! R57   R(27,65)                1.5093         estimate D2E/DX2                !
 ! R58   R(27,93)                1.8029         estimate D2E/DX2                !
 ! R59   R(28,30)                1.5009         estimate D2E/DX2                !
 ! R60   R(28,66)                1.5172         estimate D2E/DX2                !
 ! R61   R(28,85)                1.8009         estimate D2E/DX2                !
 ! R62   R(29,31)                1.3856         estimate D2E/DX2                !
 ! R63   R(30,32)                1.3232         estimate D2E/DX2                !
 ! R64   R(31,33)                1.4022         estimate D2E/DX2                !
 ! R65   R(31,69)                1.5196         estimate D2E/DX2                !
 ! R66   R(32,34)                1.5044         estimate D2E/DX2                !
 ! R67   R(32,70)                1.5032         estimate D2E/DX2                !
 ! R68   R(33,35)                1.4058         estimate D2E/DX2                !
 ! R69   R(33,73)                1.4298         estimate D2E/DX2                !
 ! R70   R(34,36)                1.5169         estimate D2E/DX2                !
 ! R71   R(34,74)                1.4949         estimate D2E/DX2                !
 ! R72   R(34,95)                1.8042         estimate D2E/DX2                !
 ! R73   R(35,37)                1.4413         estimate D2E/DX2                !
 ! R74   R(36,38)                1.4026         estimate D2E/DX2                !
 ! R75   R(37,39)                1.4204         estimate D2E/DX2                !
 ! R76   R(37,77)                1.4135         estimate D2E/DX2                !
 ! R77   R(38,42)                1.4012         estimate D2E/DX2                !
 ! R78   R(38,78)                1.5139         estimate D2E/DX2                !
 ! R79   R(39,43)                1.3793         estimate D2E/DX2                !
 ! R80   R(39,79)                1.5019         estimate D2E/DX2                !
 ! R81   R(40,41)                1.387          estimate D2E/DX2                !
 ! R82   R(40,44)                1.3846         estimate D2E/DX2                !
 ! R83   R(40,79)                1.5041         estimate D2E/DX2                !
 ! R84   R(41,45)                1.3842         estimate D2E/DX2                !
 ! R85   R(41,80)                1.508          estimate D2E/DX2                !
 ! R86   R(42,46)                1.3838         estimate D2E/DX2                !
 ! R87   R(42,80)                1.5072         estimate D2E/DX2                !
 ! R88   R(44,47)                1.4023         estimate D2E/DX2                !
 ! R89   R(45,48)                1.3987         estimate D2E/DX2                !
 ! R90   R(47,48)                1.4065         estimate D2E/DX2                !
 ! R91   R(47,49)                1.5191         estimate D2E/DX2                !
 ! R92   R(48,50)                1.5164         estimate D2E/DX2                !
 ! R93   R(49,51)                1.5042         estimate D2E/DX2                !
 ! R94   R(49,90)                1.7996         estimate D2E/DX2                !
 ! R95   R(50,52)                1.4949         estimate D2E/DX2                !
 ! R96   R(50,89)                1.801          estimate D2E/DX2                !
 ! R97   R(51,52)                1.3711         estimate D2E/DX2                !
 ! R98   R(51,55)                1.4077         estimate D2E/DX2                !
 ! R99   R(52,56)                1.3916         estimate D2E/DX2                !
 ! R100  R(53,55)                1.4265         estimate D2E/DX2                !
 ! R101  R(54,56)                1.5046         estimate D2E/DX2                !
 ! R102  R(54,102)               1.821          estimate D2E/DX2                !
 ! R103  R(55,83)                1.4124         estimate D2E/DX2                !
 ! R104  R(56,84)                1.4088         estimate D2E/DX2                !
 ! R105  R(57,59)                1.4254         estimate D2E/DX2                !
 ! R106  R(57,83)                1.4416         estimate D2E/DX2                !
 ! R107  R(58,60)                1.4022         estimate D2E/DX2                !
 ! R108  R(58,84)                1.4099         estimate D2E/DX2                !
 ! R109  R(59,60)                1.3816         estimate D2E/DX2                !
 ! R110  R(59,61)                1.5035         estimate D2E/DX2                !
 ! R111  R(60,62)                1.518          estimate D2E/DX2                !
 ! R112  R(61,63)                1.5052         estimate D2E/DX2                !
 ! R113  R(61,100)               1.8203         estimate D2E/DX2                !
 ! R114  R(62,64)                1.5045         estimate D2E/DX2                !
 ! R115  R(62,97)                1.7986         estimate D2E/DX2                !
 ! R116  R(63,64)                1.3824         estimate D2E/DX2                !
 ! R117  R(63,65)                1.3872         estimate D2E/DX2                !
 ! R118  R(64,66)                1.4031         estimate D2E/DX2                !
 ! R119  R(65,67)                1.3841         estimate D2E/DX2                !
 ! R120  R(66,68)                1.4012         estimate D2E/DX2                !
 ! R121  R(67,68)                1.4026         estimate D2E/DX2                !
 ! R122  R(67,69)                1.5038         estimate D2E/DX2                !
 ! R123  R(68,70)                1.5181         estimate D2E/DX2                !
 ! R124  R(69,71)                1.5011         estimate D2E/DX2                !
 ! R125  R(69,92)                1.7989         estimate D2E/DX2                !
 ! R126  R(70,72)                1.4975         estimate D2E/DX2                !
 ! R127  R(70,86)                1.8052         estimate D2E/DX2                !
 ! R128  R(71,72)                1.3695         estimate D2E/DX2                !
 ! R129  R(71,73)                1.4089         estimate D2E/DX2                !
 ! R130  R(72,74)                1.4175         estimate D2E/DX2                !
 ! R131  R(73,75)                1.3886         estimate D2E/DX2                !
 ! R132  R(74,76)                1.3664         estimate D2E/DX2                !
 ! R133  R(75,76)                1.4164         estimate D2E/DX2                !
 ! R134  R(75,77)                1.4172         estimate D2E/DX2                !
 ! R135  R(76,78)                1.5003         estimate D2E/DX2                !
 ! R136  R(77,81)                1.4376         estimate D2E/DX2                !
 ! R137  R(78,81)                1.5135         estimate D2E/DX2                !
 ! R138  R(78,94)                1.7994         estimate D2E/DX2                !
 ! R139  R(79,82)                1.4977         estimate D2E/DX2                !
 ! R140  R(79,101)               1.8188         estimate D2E/DX2                !
 ! R141  R(80,82)                1.4957         estimate D2E/DX2                !
 ! R142  R(80,87)                1.8023         estimate D2E/DX2                !
 ! R143  R(81,82)                1.3393         estimate D2E/DX2                !
 ! R144  R(83,84)                1.4283         estimate D2E/DX2                !
 ! A1    A(5,1,17)             113.063          estimate D2E/DX2                !
 ! A2    A(5,1,23)             110.2762         estimate D2E/DX2                !
 ! A3    A(5,1,99)             108.3409         estimate D2E/DX2                !
 ! A4    A(17,1,23)            101.4585         estimate D2E/DX2                !
 ! A5    A(17,1,99)            112.0176         estimate D2E/DX2                !
 ! A6    A(23,1,99)            111.6139         estimate D2E/DX2                !
 ! A7    A(6,2,43)             101.5932         estimate D2E/DX2                !
 ! A8    A(6,2,44)             110.6087         estimate D2E/DX2                !
 ! A9    A(6,2,91)             112.9315         estimate D2E/DX2                !
 ! A10   A(43,2,44)            108.4041         estimate D2E/DX2                !
 ! A11   A(43,2,91)            113.0323         estimate D2E/DX2                !
 ! A12   A(44,2,91)            109.9541         estimate D2E/DX2                !
 ! A13   A(7,3,18)             124.8477         estimate D2E/DX2                !
 ! A14   A(7,3,26)             110.0957         estimate D2E/DX2                !
 ! A15   A(18,3,26)            121.3462         estimate D2E/DX2                !
 ! A16   A(8,4,45)             111.6494         estimate D2E/DX2                !
 ! A17   A(8,4,46)             100.605          estimate D2E/DX2                !
 ! A18   A(8,4,88)             112.7616         estimate D2E/DX2                !
 ! A19   A(45,4,46)            108.1667         estimate D2E/DX2                !
 ! A20   A(45,4,88)            110.6276         estimate D2E/DX2                !
 ! A21   A(46,4,88)            112.5948         estimate D2E/DX2                !
 ! A22   A(1,5,9)              120.284          estimate D2E/DX2                !
 ! A23   A(1,5,29)             118.0425         estimate D2E/DX2                !
 ! A24   A(9,5,29)             120.2725         estimate D2E/DX2                !
 ! A25   A(2,6,10)             122.067          estimate D2E/DX2                !
 ! A26   A(2,6,15)             109.928          estimate D2E/DX2                !
 ! A27   A(10,6,15)            119.8532         estimate D2E/DX2                !
 ! A28   A(3,7,12)             109.5474         estimate D2E/DX2                !
 ! A29   A(3,7,30)             101.3345         estimate D2E/DX2                !
 ! A30   A(3,7,96)             112.3356         estimate D2E/DX2                !
 ! A31   A(12,7,30)            110.4668         estimate D2E/DX2                !
 ! A32   A(12,7,96)            110.2563         estimate D2E/DX2                !
 ! A33   A(30,7,96)            112.5879         estimate D2E/DX2                !
 ! A34   A(4,8,11)             121.6895         estimate D2E/DX2                !
 ! A35   A(4,8,16)             111.1666         estimate D2E/DX2                !
 ! A36   A(11,8,16)            123.5959         estimate D2E/DX2                !
 ! A37   A(5,9,13)             119.9152         estimate D2E/DX2                !
 ! A38   A(5,9,35)             120.4402         estimate D2E/DX2                !
 ! A39   A(13,9,35)            116.3303         estimate D2E/DX2                !
 ! A40   A(6,10,49)            123.4775         estimate D2E/DX2                !
 ! A41   A(6,10,53)            118.4743         estimate D2E/DX2                !
 ! A42   A(49,10,53)           109.7135         estimate D2E/DX2                !
 ! A43   A(8,11,50)            122.9924         estimate D2E/DX2                !
 ! A44   A(8,11,54)            122.5892         estimate D2E/DX2                !
 ! A45   A(50,11,54)           111.5121         estimate D2E/DX2                !
 ! A46   A(7,12,14)            116.9582         estimate D2E/DX2                !
 ! A47   A(7,12,36)            122.6833         estimate D2E/DX2                !
 ! A48   A(14,12,36)           119.0716         estimate D2E/DX2                !
 ! A49   A(9,13,15)            121.0689         estimate D2E/DX2                !
 ! A50   A(9,13,43)            121.359          estimate D2E/DX2                !
 ! A51   A(15,13,43)           108.8611         estimate D2E/DX2                !
 ! A52   A(12,14,16)           125.5101         estimate D2E/DX2                !
 ! A53   A(12,14,46)           120.8676         estimate D2E/DX2                !
 ! A54   A(16,14,46)           111.2424         estimate D2E/DX2                !
 ! A55   A(6,15,13)            108.2524         estimate D2E/DX2                !
 ! A56   A(6,15,17)            122.0654         estimate D2E/DX2                !
 ! A57   A(13,15,17)           119.9309         estimate D2E/DX2                !
 ! A58   A(8,16,14)            100.4508         estimate D2E/DX2                !
 ! A59   A(8,16,18)            112.1908         estimate D2E/DX2                !
 ! A60   A(8,16,98)            112.1052         estimate D2E/DX2                !
 ! A61   A(14,16,18)           108.9571         estimate D2E/DX2                !
 ! A62   A(14,16,98)           111.9355         estimate D2E/DX2                !
 ! A63   A(18,16,98)           110.781          estimate D2E/DX2                !
 ! A64   A(1,17,15)            122.3937         estimate D2E/DX2                !
 ! A65   A(1,17,19)            110.3486         estimate D2E/DX2                !
 ! A66   A(15,17,19)           117.7106         estimate D2E/DX2                !
 ! A67   A(3,18,16)            117.2932         estimate D2E/DX2                !
 ! A68   A(3,18,20)            119.4759         estimate D2E/DX2                !
 ! A69   A(16,18,20)           120.7783         estimate D2E/DX2                !
 ! A70   A(17,19,21)           109.8647         estimate D2E/DX2                !
 ! A71   A(17,19,53)           119.9148         estimate D2E/DX2                !
 ! A72   A(21,19,53)           120.1074         estimate D2E/DX2                !
 ! A73   A(18,20,22)           118.4139         estimate D2E/DX2                !
 ! A74   A(18,20,54)           122.2092         estimate D2E/DX2                !
 ! A75   A(22,20,54)           117.1109         estimate D2E/DX2                !
 ! A76   A(19,21,23)           107.1966         estimate D2E/DX2                !
 ! A77   A(19,21,57)           121.7034         estimate D2E/DX2                !
 ! A78   A(23,21,57)           120.8568         estimate D2E/DX2                !
 ! A79   A(20,22,24)           121.6656         estimate D2E/DX2                !
 ! A80   A(20,22,58)           122.8661         estimate D2E/DX2                !
 ! A81   A(24,22,58)           107.9649         estimate D2E/DX2                !
 ! A82   A(1,23,21)            110.6022         estimate D2E/DX2                !
 ! A83   A(1,23,25)            122.9546         estimate D2E/DX2                !
 ! A84   A(21,23,25)           121.8993         estimate D2E/DX2                !
 ! A85   A(22,24,26)           119.4059         estimate D2E/DX2                !
 ! A86   A(22,24,62)           111.0617         estimate D2E/DX2                !
 ! A87   A(26,24,62)           122.6952         estimate D2E/DX2                !
 ! A88   A(23,25,27)           121.5186         estimate D2E/DX2                !
 ! A89   A(23,25,61)           120.9305         estimate D2E/DX2                !
 ! A90   A(27,25,61)           112.3212         estimate D2E/DX2                !
 ! A91   A(3,26,24)            119.6162         estimate D2E/DX2                !
 ! A92   A(3,26,28)            112.6619         estimate D2E/DX2                !
 ! A93   A(24,26,28)           122.5102         estimate D2E/DX2                !
 ! A94   A(25,27,29)           111.9368         estimate D2E/DX2                !
 ! A95   A(25,27,65)           100.2201         estimate D2E/DX2                !
 ! A96   A(25,27,93)           113.143          estimate D2E/DX2                !
 ! A97   A(29,27,65)           107.8176         estimate D2E/DX2                !
 ! A98   A(29,27,93)           110.8375         estimate D2E/DX2                !
 ! A99   A(65,27,93)           112.3622         estimate D2E/DX2                !
 ! A100  A(26,28,30)           100.6493         estimate D2E/DX2                !
 ! A101  A(26,28,66)           109.2731         estimate D2E/DX2                !
 ! A102  A(26,28,85)           113.5476         estimate D2E/DX2                !
 ! A103  A(30,28,66)           110.987          estimate D2E/DX2                !
 ! A104  A(30,28,85)           112.874          estimate D2E/DX2                !
 ! A105  A(66,28,85)           109.2622         estimate D2E/DX2                !
 ! A106  A(5,29,27)            123.088          estimate D2E/DX2                !
 ! A107  A(5,29,31)            119.1277         estimate D2E/DX2                !
 ! A108  A(27,29,31)           115.8824         estimate D2E/DX2                !
 ! A109  A(7,30,28)            112.5011         estimate D2E/DX2                !
 ! A110  A(7,30,32)            122.0533         estimate D2E/DX2                !
 ! A111  A(28,30,32)           122.0377         estimate D2E/DX2                !
 ! A112  A(29,31,33)           120.5775         estimate D2E/DX2                !
 ! A113  A(29,31,69)           125.0237         estimate D2E/DX2                !
 ! A114  A(33,31,69)           109.7716         estimate D2E/DX2                !
 ! A115  A(30,32,34)           122.6411         estimate D2E/DX2                !
 ! A116  A(30,32,70)           121.7476         estimate D2E/DX2                !
 ! A117  A(34,32,70)           112.9363         estimate D2E/DX2                !
 ! A118  A(31,33,35)           122.0034         estimate D2E/DX2                !
 ! A119  A(31,33,73)           108.7018         estimate D2E/DX2                !
 ! A120  A(35,33,73)           122.0266         estimate D2E/DX2                !
 ! A121  A(32,34,36)           110.3075         estimate D2E/DX2                !
 ! A122  A(32,34,74)           101.2829         estimate D2E/DX2                !
 ! A123  A(32,34,95)           112.2682         estimate D2E/DX2                !
 ! A124  A(36,34,74)           110.7287         estimate D2E/DX2                !
 ! A125  A(36,34,95)           108.8404         estimate D2E/DX2                !
 ! A126  A(74,34,95)           113.2628         estimate D2E/DX2                !
 ! A127  A(9,35,33)            116.5721         estimate D2E/DX2                !
 ! A128  A(9,35,37)            121.0654         estimate D2E/DX2                !
 ! A129  A(33,35,37)           118.6162         estimate D2E/DX2                !
 ! A130  A(12,36,34)           118.1236         estimate D2E/DX2                !
 ! A131  A(12,36,38)           119.9744         estimate D2E/DX2                !
 ! A132  A(34,36,38)           121.239          estimate D2E/DX2                !
 ! A133  A(35,37,39)           119.2924         estimate D2E/DX2                !
 ! A134  A(35,37,77)           118.6219         estimate D2E/DX2                !
 ! A135  A(39,37,77)           117.7912         estimate D2E/DX2                !
 ! A136  A(36,38,42)           120.2462         estimate D2E/DX2                !
 ! A137  A(36,38,78)           120.9899         estimate D2E/DX2                !
 ! A138  A(42,38,78)           118.0837         estimate D2E/DX2                !
 ! A139  A(37,39,43)           118.9651         estimate D2E/DX2                !
 ! A140  A(37,39,79)           121.4989         estimate D2E/DX2                !
 ! A141  A(43,39,79)           117.1286         estimate D2E/DX2                !
 ! A142  A(41,40,44)           121.2698         estimate D2E/DX2                !
 ! A143  A(41,40,79)           111.2026         estimate D2E/DX2                !
 ! A144  A(44,40,79)           124.9721         estimate D2E/DX2                !
 ! A145  A(40,41,45)           120.6306         estimate D2E/DX2                !
 ! A146  A(40,41,80)           111.4953         estimate D2E/DX2                !
 ! A147  A(45,41,80)           125.3151         estimate D2E/DX2                !
 ! A148  A(38,42,46)           118.9036         estimate D2E/DX2                !
 ! A149  A(38,42,80)           123.4681         estimate D2E/DX2                !
 ! A150  A(46,42,80)           116.2535         estimate D2E/DX2                !
 ! A151  A(2,43,13)            110.2736         estimate D2E/DX2                !
 ! A152  A(2,43,39)            123.9622         estimate D2E/DX2                !
 ! A153  A(13,43,39)           121.7726         estimate D2E/DX2                !
 ! A154  A(2,44,40)            116.0315         estimate D2E/DX2                !
 ! A155  A(2,44,47)            124.0769         estimate D2E/DX2                !
 ! A156  A(40,44,47)           118.7908         estimate D2E/DX2                !
 ! A157  A(4,45,41)            116.3837         estimate D2E/DX2                !
 ! A158  A(4,45,48)            123.1622         estimate D2E/DX2                !
 ! A159  A(41,45,48)           119.0625         estimate D2E/DX2                !
 ! A160  A(4,46,14)            111.2344         estimate D2E/DX2                !
 ! A161  A(4,46,42)            125.3936         estimate D2E/DX2                !
 ! A162  A(14,46,42)           120.8768         estimate D2E/DX2                !
 ! A163  A(44,47,48)           119.9065         estimate D2E/DX2                !
 ! A164  A(44,47,49)           119.1557         estimate D2E/DX2                !
 ! A165  A(48,47,49)           120.3724         estimate D2E/DX2                !
 ! A166  A(45,48,47)           120.2799         estimate D2E/DX2                !
 ! A167  A(45,48,50)           117.913          estimate D2E/DX2                !
 ! A168  A(47,48,50)           121.0714         estimate D2E/DX2                !
 ! A169  A(10,49,47)           110.5855         estimate D2E/DX2                !
 ! A170  A(10,49,51)           101.2645         estimate D2E/DX2                !
 ! A171  A(10,49,90)           113.4035         estimate D2E/DX2                !
 ! A172  A(47,49,51)           108.6499         estimate D2E/DX2                !
 ! A173  A(47,49,90)           108.8814         estimate D2E/DX2                !
 ! A174  A(51,49,90)           113.8192         estimate D2E/DX2                !
 ! A175  A(11,50,48)           111.3733         estimate D2E/DX2                !
 ! A176  A(11,50,52)           100.7407         estimate D2E/DX2                !
 ! A177  A(11,50,89)           112.2428         estimate D2E/DX2                !
 ! A178  A(48,50,52)           108.9806         estimate D2E/DX2                !
 ! A179  A(48,50,89)           109.3874         estimate D2E/DX2                !
 ! A180  A(52,50,89)           113.8767         estimate D2E/DX2                !
 ! A181  A(49,51,52)           121.996          estimate D2E/DX2                !
 ! A182  A(49,51,55)           111.3774         estimate D2E/DX2                !
 ! A183  A(52,51,55)           119.6333         estimate D2E/DX2                !
 ! A184  A(50,52,51)           121.8777         estimate D2E/DX2                !
 ! A185  A(50,52,56)           112.6276         estimate D2E/DX2                !
 ! A186  A(51,52,56)           120.2034         estimate D2E/DX2                !
 ! A187  A(10,53,19)           121.4382         estimate D2E/DX2                !
 ! A188  A(10,53,55)           109.176          estimate D2E/DX2                !
 ! A189  A(19,53,55)           118.8229         estimate D2E/DX2                !
 ! A190  A(11,54,20)           111.7867         estimate D2E/DX2                !
 ! A191  A(11,54,56)           101.1006         estimate D2E/DX2                !
 ! A192  A(11,54,102)          111.4727         estimate D2E/DX2                !
 ! A193  A(20,54,56)           112.4833         estimate D2E/DX2                !
 ! A194  A(20,54,102)          109.1274         estimate D2E/DX2                !
 ! A195  A(56,54,102)          110.7196         estimate D2E/DX2                !
 ! A196  A(51,55,53)           107.8345         estimate D2E/DX2                !
 ! A197  A(51,55,83)           122.1647         estimate D2E/DX2                !
 ! A198  A(53,55,83)           121.9895         estimate D2E/DX2                !
 ! A199  A(52,56,54)           109.9636         estimate D2E/DX2                !
 ! A200  A(52,56,84)           120.7785         estimate D2E/DX2                !
 ! A201  A(54,56,84)           124.4829         estimate D2E/DX2                !
 ! A202  A(21,57,59)           117.7465         estimate D2E/DX2                !
 ! A203  A(21,57,83)           118.3299         estimate D2E/DX2                !
 ! A204  A(59,57,83)           119.8288         estimate D2E/DX2                !
 ! A205  A(22,58,60)           108.8087         estimate D2E/DX2                !
 ! A206  A(22,58,84)           120.4592         estimate D2E/DX2                !
 ! A207  A(60,58,84)           121.7124         estimate D2E/DX2                !
 ! A208  A(57,59,60)           119.2942         estimate D2E/DX2                !
 ! A209  A(57,59,61)           121.4958         estimate D2E/DX2                !
 ! A210  A(60,59,61)           116.5915         estimate D2E/DX2                !
 ! A211  A(58,60,59)           121.2621         estimate D2E/DX2                !
 ! A212  A(58,60,62)           109.6799         estimate D2E/DX2                !
 ! A213  A(59,60,62)           124.6236         estimate D2E/DX2                !
 ! A214  A(25,61,59)           113.8998         estimate D2E/DX2                !
 ! A215  A(25,61,63)           100.2767         estimate D2E/DX2                !
 ! A216  A(25,61,100)          111.8869         estimate D2E/DX2                !
 ! A217  A(59,61,63)           109.8496         estimate D2E/DX2                !
 ! A218  A(59,61,100)          109.6224         estimate D2E/DX2                !
 ! A219  A(63,61,100)          111.0019         estimate D2E/DX2                !
 ! A220  A(24,62,60)           101.1021         estimate D2E/DX2                !
 ! A221  A(24,62,64)           109.138          estimate D2E/DX2                !
 ! A222  A(24,62,97)           113.6582         estimate D2E/DX2                !
 ! A223  A(60,62,64)           110.0619         estimate D2E/DX2                !
 ! A224  A(60,62,97)           112.3256         estimate D2E/DX2                !
 ! A225  A(64,62,97)           110.2036         estimate D2E/DX2                !
 ! A226  A(61,63,64)           125.3831         estimate D2E/DX2                !
 ! A227  A(61,63,65)           111.4326         estimate D2E/DX2                !
 ! A228  A(64,63,65)           120.861          estimate D2E/DX2                !
 ! A229  A(62,64,63)           116.1308         estimate D2E/DX2                !
 ! A230  A(62,64,66)           123.6171         estimate D2E/DX2                !
 ! A231  A(63,64,66)           119.1082         estimate D2E/DX2                !
 ! A232  A(27,65,63)           111.377          estimate D2E/DX2                !
 ! A233  A(27,65,67)           125.4495         estimate D2E/DX2                !
 ! A234  A(63,65,67)           120.762          estimate D2E/DX2                !
 ! A235  A(28,66,64)           119.3022         estimate D2E/DX2                !
 ! A236  A(28,66,68)           119.8911         estimate D2E/DX2                !
 ! A237  A(64,66,68)           120.1113         estimate D2E/DX2                !
 ! A238  A(65,67,68)           119.2206         estimate D2E/DX2                !
 ! A239  A(65,67,69)           115.9396         estimate D2E/DX2                !
 ! A240  A(68,67,69)           123.6093         estimate D2E/DX2                !
 ! A241  A(66,68,67)           119.8995         estimate D2E/DX2                !
 ! A242  A(66,68,70)           119.7396         estimate D2E/DX2                !
 ! A243  A(67,68,70)           119.7495         estimate D2E/DX2                !
 ! A244  A(31,69,67)           108.0604         estimate D2E/DX2                !
 ! A245  A(31,69,71)           101.7996         estimate D2E/DX2                !
 ! A246  A(31,69,92)           113.0818         estimate D2E/DX2                !
 ! A247  A(67,69,71)           110.0376         estimate D2E/DX2                !
 ! A248  A(67,69,92)           110.4182         estimate D2E/DX2                !
 ! A249  A(71,69,92)           113.0555         estimate D2E/DX2                !
 ! A250  A(32,70,68)           110.6468         estimate D2E/DX2                !
 ! A251  A(32,70,72)           101.3204         estimate D2E/DX2                !
 ! A252  A(32,70,86)           112.2967         estimate D2E/DX2                !
 ! A253  A(68,70,72)           110.7127         estimate D2E/DX2                !
 ! A254  A(68,70,86)           108.6694         estimate D2E/DX2                !
 ! A255  A(72,70,86)           113.076          estimate D2E/DX2                !
 ! A256  A(69,71,72)           123.3612         estimate D2E/DX2                !
 ! A257  A(69,71,73)           109.4517         estimate D2E/DX2                !
 ! A258  A(72,71,73)           118.8196         estimate D2E/DX2                !
 ! A259  A(70,72,71)           122.149          estimate D2E/DX2                !
 ! A260  A(70,72,74)           111.2609         estimate D2E/DX2                !
 ! A261  A(71,72,74)           120.3223         estimate D2E/DX2                !
 ! A262  A(33,73,71)           109.1274         estimate D2E/DX2                !
 ! A263  A(33,73,75)           118.9279         estimate D2E/DX2                !
 ! A264  A(71,73,75)           120.8891         estimate D2E/DX2                !
 ! A265  A(34,74,72)           111.4449         estimate D2E/DX2                !
 ! A266  A(34,74,76)           121.4767         estimate D2E/DX2                !
 ! A267  A(72,74,76)           121.1484         estimate D2E/DX2                !
 ! A268  A(73,75,76)           119.7903         estimate D2E/DX2                !
 ! A269  A(73,75,77)           120.0724         estimate D2E/DX2                !
 ! A270  A(76,75,77)           110.5076         estimate D2E/DX2                !
 ! A271  A(74,76,75)           118.8084         estimate D2E/DX2                !
 ! A272  A(74,76,78)           123.1973         estimate D2E/DX2                !
 ! A273  A(75,76,78)           109.7247         estimate D2E/DX2                !
 ! A274  A(37,77,75)           121.5879         estimate D2E/DX2                !
 ! A275  A(37,77,81)           121.0193         estimate D2E/DX2                !
 ! A276  A(75,77,81)           107.1076         estimate D2E/DX2                !
 ! A277  A(38,78,76)           110.2929         estimate D2E/DX2                !
 ! A278  A(38,78,81)           109.4281         estimate D2E/DX2                !
 ! A279  A(38,78,94)           109.0509         estimate D2E/DX2                !
 ! A280  A(76,78,81)           101.7762         estimate D2E/DX2                !
 ! A281  A(76,78,94)           113.5319         estimate D2E/DX2                !
 ! A282  A(81,78,94)           112.5595         estimate D2E/DX2                !
 ! A283  A(39,79,40)           108.6074         estimate D2E/DX2                !
 ! A284  A(39,79,82)           113.7507         estimate D2E/DX2                !
 ! A285  A(39,79,101)          110.123          estimate D2E/DX2                !
 ! A286  A(40,79,82)           100.839          estimate D2E/DX2                !
 ! A287  A(40,79,101)          111.7652         estimate D2E/DX2                !
 ! A288  A(82,79,101)          111.4384         estimate D2E/DX2                !
 ! A289  A(41,80,42)           107.9633         estimate D2E/DX2                !
 ! A290  A(41,80,82)           100.4645         estimate D2E/DX2                !
 ! A291  A(41,80,87)           112.3928         estimate D2E/DX2                !
 ! A292  A(42,80,82)           111.3335         estimate D2E/DX2                !
 ! A293  A(42,80,87)           110.4256         estimate D2E/DX2                !
 ! A294  A(82,80,87)           113.7786         estimate D2E/DX2                !
 ! A295  A(77,81,78)           110.5139         estimate D2E/DX2                !
 ! A296  A(77,81,82)           121.3306         estimate D2E/DX2                !
 ! A297  A(78,81,82)           123.2061         estimate D2E/DX2                !
 ! A298  A(79,82,80)           112.1382         estimate D2E/DX2                !
 ! A299  A(79,82,81)           121.0622         estimate D2E/DX2                !
 ! A300  A(80,82,81)           121.2592         estimate D2E/DX2                !
 ! A301  A(55,83,57)           118.8251         estimate D2E/DX2                !
 ! A302  A(55,83,84)           116.5063         estimate D2E/DX2                !
 ! A303  A(57,83,84)           119.7906         estimate D2E/DX2                !
 ! A304  A(56,84,58)           116.8889         estimate D2E/DX2                !
 ! A305  A(56,84,83)           120.142          estimate D2E/DX2                !
 ! A306  A(58,84,83)           117.9999         estimate D2E/DX2                !
 ! D1    D(17,1,5,9)            19.7601         estimate D2E/DX2                !
 ! D2    D(17,1,5,29)         -146.7702         estimate D2E/DX2                !
 ! D3    D(23,1,5,9)           132.5576         estimate D2E/DX2                !
 ! D4    D(23,1,5,29)          -33.9727         estimate D2E/DX2                !
 ! D5    D(99,1,5,9)          -105.0189         estimate D2E/DX2                !
 ! D6    D(99,1,5,29)           88.4508         estimate D2E/DX2                !
 ! D7    D(5,1,17,15)          -20.4481         estimate D2E/DX2                !
 ! D8    D(5,1,17,19)          124.9043         estimate D2E/DX2                !
 ! D9    D(23,1,17,15)        -138.5221         estimate D2E/DX2                !
 ! D10   D(23,1,17,19)           6.8303         estimate D2E/DX2                !
 ! D11   D(99,1,17,15)         102.3095         estimate D2E/DX2                !
 ! D12   D(99,1,17,19)        -112.3381         estimate D2E/DX2                !
 ! D13   D(5,1,23,21)         -123.9263         estimate D2E/DX2                !
 ! D14   D(5,1,23,25)           32.4909         estimate D2E/DX2                !
 ! D15   D(17,1,23,21)          -3.8602         estimate D2E/DX2                !
 ! D16   D(17,1,23,25)         152.5571         estimate D2E/DX2                !
 ! D17   D(99,1,23,21)         115.5959         estimate D2E/DX2                !
 ! D18   D(99,1,23,25)         -87.9868         estimate D2E/DX2                !
 ! D19   D(43,2,6,10)         -137.9167         estimate D2E/DX2                !
 ! D20   D(43,2,6,15)           10.5077         estimate D2E/DX2                !
 ! D21   D(44,2,6,10)          -22.989          estimate D2E/DX2                !
 ! D22   D(44,2,6,15)          125.4353         estimate D2E/DX2                !
 ! D23   D(91,2,6,10)          100.7201         estimate D2E/DX2                !
 ! D24   D(91,2,6,15)         -110.8556         estimate D2E/DX2                !
 ! D25   D(6,2,43,13)           -8.1074         estimate D2E/DX2                !
 ! D26   D(6,2,43,39)          149.6486         estimate D2E/DX2                !
 ! D27   D(44,2,43,13)        -124.6551         estimate D2E/DX2                !
 ! D28   D(44,2,43,39)          33.1009         estimate D2E/DX2                !
 ! D29   D(91,2,43,13)         113.1855         estimate D2E/DX2                !
 ! D30   D(91,2,43,39)         -89.0585         estimate D2E/DX2                !
 ! D31   D(6,2,44,40)         -148.0708         estimate D2E/DX2                !
 ! D32   D(6,2,44,47)           19.7514         estimate D2E/DX2                !
 ! D33   D(43,2,44,40)         -37.4979         estimate D2E/DX2                !
 ! D34   D(43,2,44,47)         130.3244         estimate D2E/DX2                !
 ! D35   D(91,2,44,40)          86.5219         estimate D2E/DX2                !
 ! D36   D(91,2,44,47)        -105.6558         estimate D2E/DX2                !
 ! D37   D(18,3,7,12)           28.8949         estimate D2E/DX2                !
 ! D38   D(18,3,7,30)          145.6129         estimate D2E/DX2                !
 ! D39   D(18,3,7,96)          -93.9979         estimate D2E/DX2                !
 ! D40   D(26,3,7,12)         -129.494          estimate D2E/DX2                !
 ! D41   D(26,3,7,30)          -12.776          estimate D2E/DX2                !
 ! D42   D(26,3,7,96)          107.6132         estimate D2E/DX2                !
 ! D43   D(7,3,18,16)            5.5367         estimate D2E/DX2                !
 ! D44   D(7,3,18,20)         -156.8431         estimate D2E/DX2                !
 ! D45   D(26,3,18,16)         161.6458         estimate D2E/DX2                !
 ! D46   D(26,3,18,20)          -0.734          estimate D2E/DX2                !
 ! D47   D(7,3,26,24)          159.6094         estimate D2E/DX2                !
 ! D48   D(7,3,26,28)            4.4766         estimate D2E/DX2                !
 ! D49   D(18,3,26,24)           0.3364         estimate D2E/DX2                !
 ! D50   D(18,3,26,28)        -154.7964         estimate D2E/DX2                !
 ! D51   D(45,4,8,11)           22.6319         estimate D2E/DX2                !
 ! D52   D(45,4,8,16)         -136.8194         estimate D2E/DX2                !
 ! D53   D(46,4,8,11)          137.1886         estimate D2E/DX2                !
 ! D54   D(46,4,8,16)          -22.2627         estimate D2E/DX2                !
 ! D55   D(88,4,8,11)         -102.6486         estimate D2E/DX2                !
 ! D56   D(88,4,8,16)           97.9002         estimate D2E/DX2                !
 ! D57   D(8,4,45,41)          145.3889         estimate D2E/DX2                !
 ! D58   D(8,4,45,48)          -20.9928         estimate D2E/DX2                !
 ! D59   D(46,4,45,41)          35.5949         estimate D2E/DX2                !
 ! D60   D(46,4,45,48)        -130.7867         estimate D2E/DX2                !
 ! D61   D(88,4,45,41)         -88.1563         estimate D2E/DX2                !
 ! D62   D(88,4,45,48)         105.462          estimate D2E/DX2                !
 ! D63   D(8,4,46,14)           12.5559         estimate D2E/DX2                !
 ! D64   D(8,4,46,42)         -149.52           estimate D2E/DX2                !
 ! D65   D(45,4,46,14)         129.7153         estimate D2E/DX2                !
 ! D66   D(45,4,46,42)         -32.3606         estimate D2E/DX2                !
 ! D67   D(88,4,46,14)        -107.7266         estimate D2E/DX2                !
 ! D68   D(88,4,46,42)          90.1975         estimate D2E/DX2                !
 ! D69   D(1,5,9,13)            -9.2179         estimate D2E/DX2                !
 ! D70   D(1,5,9,35)          -167.9121         estimate D2E/DX2                !
 ! D71   D(29,5,9,13)          157.0109         estimate D2E/DX2                !
 ! D72   D(29,5,9,35)           -1.6833         estimate D2E/DX2                !
 ! D73   D(1,5,29,27)           10.6644         estimate D2E/DX2                !
 ! D74   D(1,5,29,31)          174.3084         estimate D2E/DX2                !
 ! D75   D(9,5,29,27)         -155.8675         estimate D2E/DX2                !
 ! D76   D(9,5,29,31)            7.7765         estimate D2E/DX2                !
 ! D77   D(2,6,10,49)            0.1396         estimate D2E/DX2                !
 ! D78   D(2,6,10,53)          145.099          estimate D2E/DX2                !
 ! D79   D(15,6,10,49)        -145.2783         estimate D2E/DX2                !
 ! D80   D(15,6,10,53)          -0.3188         estimate D2E/DX2                !
 ! D81   D(2,6,15,13)           -9.4303         estimate D2E/DX2                !
 ! D82   D(2,6,15,17)         -155.1787         estimate D2E/DX2                !
 ! D83   D(10,6,15,13)         139.7976         estimate D2E/DX2                !
 ! D84   D(10,6,15,17)          -5.9508         estimate D2E/DX2                !
 ! D85   D(3,7,12,14)          -32.4723         estimate D2E/DX2                !
 ! D86   D(3,7,12,36)          134.4332         estimate D2E/DX2                !
 ! D87   D(30,7,12,14)        -143.2733         estimate D2E/DX2                !
 ! D88   D(30,7,12,36)          23.6322         estimate D2E/DX2                !
 ! D89   D(96,7,12,14)          91.6449         estimate D2E/DX2                !
 ! D90   D(96,7,12,36)        -101.4495         estimate D2E/DX2                !
 ! D91   D(3,7,30,28)           17.1949         estimate D2E/DX2                !
 ! D92   D(3,7,30,32)         -142.3333         estimate D2E/DX2                !
 ! D93   D(12,7,30,28)         133.238          estimate D2E/DX2                !
 ! D94   D(12,7,30,32)         -26.2902         estimate D2E/DX2                !
 ! D95   D(96,7,30,28)        -103.0157         estimate D2E/DX2                !
 ! D96   D(96,7,30,32)          97.4561         estimate D2E/DX2                !
 ! D97   D(4,8,11,50)            2.7518         estimate D2E/DX2                !
 ! D98   D(4,8,11,54)         -156.302          estimate D2E/DX2                !
 ! D99   D(16,8,11,50)         159.6128         estimate D2E/DX2                !
 ! D100  D(16,8,11,54)           0.559          estimate D2E/DX2                !
 ! D101  D(4,8,16,14)           22.9056         estimate D2E/DX2                !
 ! D102  D(4,8,16,18)          138.5004         estimate D2E/DX2                !
 ! D103  D(4,8,16,98)          -96.1015         estimate D2E/DX2                !
 ! D104  D(11,8,16,14)        -136.0822         estimate D2E/DX2                !
 ! D105  D(11,8,16,18)         -20.4874         estimate D2E/DX2                !
 ! D106  D(11,8,16,98)         104.9106         estimate D2E/DX2                !
 ! D107  D(5,9,13,15)           -2.8044         estimate D2E/DX2                !
 ! D108  D(5,9,13,43)         -146.8178         estimate D2E/DX2                !
 ! D109  D(35,9,13,15)         156.7374         estimate D2E/DX2                !
 ! D110  D(35,9,13,43)          12.724          estimate D2E/DX2                !
 ! D111  D(5,9,35,33)           -7.1745         estimate D2E/DX2                !
 ! D112  D(5,9,35,37)          150.7158         estimate D2E/DX2                !
 ! D113  D(13,9,35,33)        -166.6021         estimate D2E/DX2                !
 ! D114  D(13,9,35,37)          -8.7118         estimate D2E/DX2                !
 ! D115  D(6,10,49,47)          25.9441         estimate D2E/DX2                !
 ! D116  D(6,10,49,51)         140.9755         estimate D2E/DX2                !
 ! D117  D(6,10,49,90)         -96.6871         estimate D2E/DX2                !
 ! D118  D(53,10,49,47)       -121.6358         estimate D2E/DX2                !
 ! D119  D(53,10,49,51)         -6.6044         estimate D2E/DX2                !
 ! D120  D(53,10,49,90)        115.733          estimate D2E/DX2                !
 ! D121  D(6,10,53,19)           3.2318         estimate D2E/DX2                !
 ! D122  D(6,10,53,55)        -140.9465         estimate D2E/DX2                !
 ! D123  D(49,10,53,19)        152.6531         estimate D2E/DX2                !
 ! D124  D(49,10,53,55)          8.4748         estimate D2E/DX2                !
 ! D125  D(8,11,50,48)         -29.5018         estimate D2E/DX2                !
 ! D126  D(8,11,50,52)        -144.9524         estimate D2E/DX2                !
 ! D127  D(8,11,50,89)          93.5351         estimate D2E/DX2                !
 ! D128  D(54,11,50,48)        131.6078         estimate D2E/DX2                !
 ! D129  D(54,11,50,52)         16.1572         estimate D2E/DX2                !
 ! D130  D(54,11,50,89)       -105.3553         estimate D2E/DX2                !
 ! D131  D(8,11,54,20)          20.7023         estimate D2E/DX2                !
 ! D132  D(8,11,54,56)         140.577          estimate D2E/DX2                !
 ! D133  D(8,11,54,102)       -101.738          estimate D2E/DX2                !
 ! D134  D(50,11,54,20)       -140.496          estimate D2E/DX2                !
 ! D135  D(50,11,54,56)        -20.6213         estimate D2E/DX2                !
 ! D136  D(50,11,54,102)        97.0637         estimate D2E/DX2                !
 ! D137  D(7,12,14,16)           4.1193         estimate D2E/DX2                !
 ! D138  D(7,12,14,46)         165.0379         estimate D2E/DX2                !
 ! D139  D(36,12,14,16)       -163.279          estimate D2E/DX2                !
 ! D140  D(36,12,14,46)         -2.3604         estimate D2E/DX2                !
 ! D141  D(7,12,36,34)           5.8053         estimate D2E/DX2                !
 ! D142  D(7,12,36,38)        -164.9796         estimate D2E/DX2                !
 ! D143  D(14,12,36,34)        172.4466         estimate D2E/DX2                !
 ! D144  D(14,12,36,38)          1.6617         estimate D2E/DX2                !
 ! D145  D(9,13,15,6)         -144.0101         estimate D2E/DX2                !
 ! D146  D(9,13,15,17)           2.5976         estimate D2E/DX2                !
 ! D147  D(43,13,15,6)           3.9687         estimate D2E/DX2                !
 ! D148  D(43,13,15,17)        150.5764         estimate D2E/DX2                !
 ! D149  D(9,13,43,2)          150.7985         estimate D2E/DX2                !
 ! D150  D(9,13,43,39)          -7.528          estimate D2E/DX2                !
 ! D151  D(15,13,43,2)           2.9299         estimate D2E/DX2                !
 ! D152  D(15,13,43,39)       -155.3966         estimate D2E/DX2                !
 ! D153  D(12,14,16,8)         148.1004         estimate D2E/DX2                !
 ! D154  D(12,14,16,18)         30.1021         estimate D2E/DX2                !
 ! D155  D(12,14,16,98)        -92.769          estimate D2E/DX2                !
 ! D156  D(46,14,16,8)         -14.3782         estimate D2E/DX2                !
 ! D157  D(46,14,16,18)       -132.3765         estimate D2E/DX2                !
 ! D158  D(46,14,16,98)        104.7524         estimate D2E/DX2                !
 ! D159  D(12,14,46,4)        -162.1867         estimate D2E/DX2                !
 ! D160  D(12,14,46,42)          0.8171         estimate D2E/DX2                !
 ! D161  D(16,14,46,4)           1.2241         estimate D2E/DX2                !
 ! D162  D(16,14,46,42)        164.2279         estimate D2E/DX2                !
 ! D163  D(6,15,17,1)          151.9066         estimate D2E/DX2                !
 ! D164  D(6,15,17,19)           8.9274         estimate D2E/DX2                !
 ! D165  D(13,15,17,1)           9.9873         estimate D2E/DX2                !
 ! D166  D(13,15,17,19)       -132.9919         estimate D2E/DX2                !
 ! D167  D(8,16,18,3)         -143.826          estimate D2E/DX2                !
 ! D168  D(8,16,18,20)          18.312          estimate D2E/DX2                !
 ! D169  D(14,16,18,3)         -33.5069         estimate D2E/DX2                !
 ! D170  D(14,16,18,20)        128.631          estimate D2E/DX2                !
 ! D171  D(98,16,18,3)          90.0537         estimate D2E/DX2                !
 ! D172  D(98,16,18,20)       -107.8083         estimate D2E/DX2                !
 ! D173  D(1,17,19,21)          -7.6092         estimate D2E/DX2                !
 ! D174  D(1,17,19,53)        -153.0179         estimate D2E/DX2                !
 ! D175  D(15,17,19,21)        139.5539         estimate D2E/DX2                !
 ! D176  D(15,17,19,53)         -5.8547         estimate D2E/DX2                !
 ! D177  D(3,18,20,22)           2.1666         estimate D2E/DX2                !
 ! D178  D(3,18,20,54)         164.5655         estimate D2E/DX2                !
 ! D179  D(16,18,20,22)       -159.5869         estimate D2E/DX2                !
 ! D180  D(16,18,20,54)          2.812          estimate D2E/DX2                !
 ! D181  D(17,19,21,23)          4.8562         estimate D2E/DX2                !
 ! D182  D(17,19,21,57)       -140.4525         estimate D2E/DX2                !
 ! D183  D(53,19,21,23)        150.188          estimate D2E/DX2                !
 ! D184  D(53,19,21,57)          4.8792         estimate D2E/DX2                !
 ! D185  D(17,19,53,10)         -0.1219         estimate D2E/DX2                !
 ! D186  D(17,19,53,55)        140.7573         estimate D2E/DX2                !
 ! D187  D(21,19,53,10)       -142.0093         estimate D2E/DX2                !
 ! D188  D(21,19,53,55)         -1.1301         estimate D2E/DX2                !
 ! D189  D(18,20,22,24)         -3.2992         estimate D2E/DX2                !
 ! D190  D(18,20,22,58)        142.7931         estimate D2E/DX2                !
 ! D191  D(54,20,22,24)       -166.5948         estimate D2E/DX2                !
 ! D192  D(54,20,22,58)        -20.5025         estimate D2E/DX2                !
 ! D193  D(18,20,54,11)        -22.1702         estimate D2E/DX2                !
 ! D194  D(18,20,54,56)       -135.1138         estimate D2E/DX2                !
 ! D195  D(18,20,54,102)       101.6008         estimate D2E/DX2                !
 ! D196  D(22,20,54,11)        140.4449         estimate D2E/DX2                !
 ! D197  D(22,20,54,56)         27.5013         estimate D2E/DX2                !
 ! D198  D(22,20,54,102)       -95.7841         estimate D2E/DX2                !
 ! D199  D(19,21,23,1)          -0.3577         estimate D2E/DX2                !
 ! D200  D(19,21,23,25)       -157.0656         estimate D2E/DX2                !
 ! D201  D(57,21,23,1)         145.3046         estimate D2E/DX2                !
 ! D202  D(57,21,23,25)        -11.4032         estimate D2E/DX2                !
 ! D203  D(19,21,57,59)        152.4173         estimate D2E/DX2                !
 ! D204  D(19,21,57,83)         -4.8193         estimate D2E/DX2                !
 ! D205  D(23,21,57,59)         11.716          estimate D2E/DX2                !
 ! D206  D(23,21,57,83)       -145.5207         estimate D2E/DX2                !
 ! D207  D(20,22,24,26)          2.935          estimate D2E/DX2                !
 ! D208  D(20,22,24,62)        154.7576         estimate D2E/DX2                !
 ! D209  D(58,22,24,26)       -147.5546         estimate D2E/DX2                !
 ! D210  D(58,22,24,62)          4.2681         estimate D2E/DX2                !
 ! D211  D(20,22,58,60)       -146.3755         estimate D2E/DX2                !
 ! D212  D(20,22,58,84)          1.2449         estimate D2E/DX2                !
 ! D213  D(24,22,58,60)          3.6812         estimate D2E/DX2                !
 ! D214  D(24,22,58,84)        151.3016         estimate D2E/DX2                !
 ! D215  D(1,23,25,27)          -5.2186         estimate D2E/DX2                !
 ! D216  D(1,23,25,61)        -157.6991         estimate D2E/DX2                !
 ! D217  D(21,23,25,27)        148.6071         estimate D2E/DX2                !
 ! D218  D(21,23,25,61)         -3.8733         estimate D2E/DX2                !
 ! D219  D(22,24,26,3)          -1.3916         estimate D2E/DX2                !
 ! D220  D(22,24,26,28)        151.211          estimate D2E/DX2                !
 ! D221  D(62,24,26,3)        -149.8161         estimate D2E/DX2                !
 ! D222  D(62,24,26,28)          2.7865         estimate D2E/DX2                !
 ! D223  D(22,24,62,60)         -9.6404         estimate D2E/DX2                !
 ! D224  D(22,24,62,64)       -125.6247         estimate D2E/DX2                !
 ! D225  D(22,24,62,97)        110.9304         estimate D2E/DX2                !
 ! D226  D(26,24,62,60)        141.0968         estimate D2E/DX2                !
 ! D227  D(26,24,62,64)         25.1125         estimate D2E/DX2                !
 ! D228  D(26,24,62,97)        -98.3324         estimate D2E/DX2                !
 ! D229  D(23,25,27,29)        -20.0885         estimate D2E/DX2                !
 ! D230  D(23,25,27,65)       -134.1553         estimate D2E/DX2                !
 ! D231  D(23,25,27,93)        106.0108         estimate D2E/DX2                !
 ! D232  D(61,25,27,29)        134.5424         estimate D2E/DX2                !
 ! D233  D(61,25,27,65)         20.4757         estimate D2E/DX2                !
 ! D234  D(61,25,27,93)        -99.3582         estimate D2E/DX2                !
 ! D235  D(23,25,61,59)         16.7207         estimate D2E/DX2                !
 ! D236  D(23,25,61,63)        133.9658         estimate D2E/DX2                !
 ! D237  D(23,25,61,100)      -108.2997         estimate D2E/DX2                !
 ! D238  D(27,25,61,59)       -138.0787         estimate D2E/DX2                !
 ! D239  D(27,25,61,63)        -20.8335         estimate D2E/DX2                !
 ! D240  D(27,25,61,100)        96.9009         estimate D2E/DX2                !
 ! D241  D(3,26,28,30)           5.9941         estimate D2E/DX2                !
 ! D242  D(3,26,28,66)         122.8546         estimate D2E/DX2                !
 ! D243  D(3,26,28,85)        -114.8958         estimate D2E/DX2                !
 ! D244  D(24,26,28,30)       -148.3153         estimate D2E/DX2                !
 ! D245  D(24,26,28,66)        -31.4547         estimate D2E/DX2                !
 ! D246  D(24,26,28,85)         90.7948         estimate D2E/DX2                !
 ! D247  D(25,27,29,5)          17.1371         estimate D2E/DX2                !
 ! D248  D(25,27,29,31)       -146.9951         estimate D2E/DX2                !
 ! D249  D(65,27,29,5)         126.4277         estimate D2E/DX2                !
 ! D250  D(65,27,29,31)        -37.7045         estimate D2E/DX2                !
 ! D251  D(93,27,29,5)        -110.2104         estimate D2E/DX2                !
 ! D252  D(93,27,29,31)         85.6574         estimate D2E/DX2                !
[...]
 Alpha virt. eigenvalues --    1.60698   1.60858   1.61133   1.61662   1.62171
 Alpha virt. eigenvalues --    1.62329   1.62599   1.62844   1.62992   1.63237
 Alpha virt. eigenvalues --    1.63446   1.63535   1.63900   1.63990   1.64068
 Alpha virt. eigenvalues --    1.64468   1.64937   1.65185   1.65369   1.65499
 Alpha virt. eigenvalues --    1.65671   1.65911   1.66327   1.66381   1.66632
 Alpha virt. eigenvalues --    1.66837   1.66974   1.67404   1.67735   1.67808
 Alpha virt. eigenvalues --    1.67972   1.68052   1.68478   1.68818   1.68921
 Alpha virt. eigenvalues --    1.69106   1.69429   1.69503   1.69667   1.69902
 Alpha virt. eigenvalues --    1.70409   1.70950   1.70982   1.71345   1.71360
 Alpha virt. eigenvalues --    1.71697   1.71843   1.72223   1.72352   1.72429
 Alpha virt. eigenvalues --    1.72605   1.72676   1.73195   1.73449   1.73711
 Alpha virt. eigenvalues --    1.73916   1.73995   1.74191   1.74589   1.74747
 Alpha virt. eigenvalues --    1.74926   1.75281   1.75341   1.75580   1.75699
 Alpha virt. eigenvalues --    1.75938   1.76099   1.76283   1.76544   1.76809
 Alpha virt. eigenvalues --    1.76929   1.77046   1.77160   1.77264   1.77528
 Alpha virt. eigenvalues --    1.77921   1.78113   1.78241   1.78623   1.78842
 Alpha virt. eigenvalues --    1.78987   1.79366   1.79485   1.79850   1.80151
 Alpha virt. eigenvalues --    1.80376   1.80743   1.80903   1.80986   1.81577
 Alpha virt. eigenvalues --    1.81604   1.81849   1.82262   1.82531   1.82878
 Alpha virt. eigenvalues --    1.82924   1.83218   1.83443   1.83541   1.83995
 Alpha virt. eigenvalues --    1.84172   1.84420   1.84681   1.84894   1.85107
 Alpha virt. eigenvalues --    1.85469   1.85991   1.86324   1.86734   1.86816
 Alpha virt. eigenvalues --    1.87359   1.87896   1.87986   1.88295   1.88575
 Alpha virt. eigenvalues --    1.89110   1.89398   1.89515   1.89561   1.89891
 Alpha virt. eigenvalues --    1.90436   1.90636   1.90877   1.91165   1.91346
 Alpha virt. eigenvalues --    1.92131   1.92364   1.92398   1.92667   1.92997
 Alpha virt. eigenvalues --    1.93240   1.93565   1.93847   1.94522   1.94910
 Alpha virt. eigenvalues --    1.95341   1.95554   1.95935   1.96483   1.96825
 Alpha virt. eigenvalues --    1.97376   1.97462   1.97568   1.97867   1.98438
 Alpha virt. eigenvalues --    1.98929   1.99384   1.99894   2.00007   2.00300
 Alpha virt. eigenvalues --    2.00703   2.00980   2.01566   2.01769   2.02039
 Alpha virt. eigenvalues --    2.02122   2.02595   2.03183   2.03441   2.03707
 Alpha virt. eigenvalues --    2.03903   2.04413   2.04476   2.04691   2.05277
 Alpha virt. eigenvalues --    2.05390   2.05858   2.06761   2.07171   2.07326
 Alpha virt. eigenvalues --    2.07759   2.08103   2.08474   2.08748   2.09091
 Alpha virt. eigenvalues --    2.09351   2.09624   2.10083   2.10498   2.11057
 Alpha virt. eigenvalues --    2.11764   2.12161   2.12636   2.12818   2.13195
 Alpha virt. eigenvalues --    2.13465   2.13800   2.14001   2.14635   2.15014
 Alpha virt. eigenvalues --    2.15468   2.15589   2.15951   2.16461   2.16697
 Alpha virt. eigenvalues --    2.17093   2.17315   2.17849   2.17977   2.18410
 Alpha virt. eigenvalues --    2.18655   2.19041   2.19285   2.20172   2.20355
 Alpha virt. eigenvalues --    2.20446   2.21058   2.21403   2.21676   2.21939
 Alpha virt. eigenvalues --    2.22188   2.22729   2.23207   2.24261   2.24414
 Alpha virt. eigenvalues --    2.24847   2.25207   2.25477   2.25561   2.26199
 Alpha virt. eigenvalues --    2.26728   2.27449   2.27661   2.27949   2.28042
 Alpha virt. eigenvalues --    2.28504   2.28966   2.29610   2.29835   2.30189
 Alpha virt. eigenvalues --    2.30823   2.31012   2.31613   2.32431   2.32750
 Alpha virt. eigenvalues --    2.33032   2.33631   2.33936   2.34967   2.35128
 Alpha virt. eigenvalues --    2.35455   2.35903   2.36966   2.37457   2.37681
 Alpha virt. eigenvalues --    2.37994   2.38516   2.39257   2.39854   2.40157
 Alpha virt. eigenvalues --    2.40647   2.41036   2.41254   2.41773   2.41944
 Alpha virt. eigenvalues --    2.42703   2.43184   2.43632   2.44396   2.45067
 Alpha virt. eigenvalues --    2.45186   2.45805   2.46426   2.46595   2.46829
 Alpha virt. eigenvalues --    2.47263   2.47433   2.47924   2.48773   2.49105
 Alpha virt. eigenvalues --    2.49267   2.49901   2.50282   2.51278   2.51528
 Alpha virt. eigenvalues --    2.51724   2.52154   2.52617   2.52916   2.53180
 Alpha virt. eigenvalues --    2.53714   2.54352   2.54736   2.55017   2.55418
 Alpha virt. eigenvalues --    2.55588   2.56277   2.56581   2.56759   2.56908
 Alpha virt. eigenvalues --    2.57255   2.57713   2.57754   2.57962   2.58523
 Alpha virt. eigenvalues --    2.58761   2.59281   2.59592   2.60121   2.60400
 Alpha virt. eigenvalues --    2.60755   2.61164   2.61652   2.61895   2.62196
 Alpha virt. eigenvalues --    2.62450   2.62680   2.63382   2.63456   2.63755
 Alpha virt. eigenvalues --    2.64345   2.64780   2.65364   2.65438   2.65801
 Alpha virt. eigenvalues --    2.65831   2.66189   2.66303   2.66916   2.67192
 Alpha virt. eigenvalues --    2.67637   2.68037   2.68175   2.68448   2.69284
 Alpha virt. eigenvalues --    2.69524   2.69951   2.70478   2.70655   2.70910
 Alpha virt. eigenvalues --    2.71449   2.71698   2.72336   2.72550   2.73040
 Alpha virt. eigenvalues --    2.73198   2.73592   2.73695   2.74283   2.74455
 Alpha virt. eigenvalues --    2.74821   2.75360   2.75477   2.76391   2.76716
 Alpha virt. eigenvalues --    2.76989   2.77296   2.77523   2.77882   2.78152
 Alpha virt. eigenvalues --    2.78771   2.79183   2.79636   2.80049   2.80317
 Alpha virt. eigenvalues --    2.80870   2.81564   2.82025   2.82400   2.82854
 Alpha virt. eigenvalues --    2.83337   2.83713   2.84491   2.84967   2.85140
 Alpha virt. eigenvalues --    2.85823   2.86318   2.86661   2.87271   2.87655
 Alpha virt. eigenvalues --    2.88014   2.88525   2.88694   2.89682   2.90360
 Alpha virt. eigenvalues --    2.90887   2.91481   2.92128   2.93031   2.93461
 Alpha virt. eigenvalues --    2.94021   2.94804   2.95648   2.95887   2.97562
 Alpha virt. eigenvalues --    2.98391   2.98968   2.99421   3.00774   3.02335
 Alpha virt. eigenvalues --    3.03970   3.05112   3.06886   3.08360   3.08499
 Alpha virt. eigenvalues --    3.08622   3.09763   3.12271   3.13417   3.13834
 Alpha virt. eigenvalues --    3.15625   3.16018   3.17013   3.17969   3.18572
 Alpha virt. eigenvalues --    3.19785   3.20940   3.22615   3.23930   3.24052
 Alpha virt. eigenvalues --    3.24927   3.27695   3.30362   3.30962   3.33250
 Alpha virt. eigenvalues --    3.35124   3.39288   3.40265   3.41232   3.42109
 Alpha virt. eigenvalues --    3.43165   3.47270   3.48448   3.51374   3.52046
 Alpha virt. eigenvalues --    4.00438   4.00929   4.02528   4.02995   4.03706
 Alpha virt. eigenvalues --    4.04509   4.04966   4.07001   4.07175   4.07620
 Alpha virt. eigenvalues --    4.07915   4.08964   4.09027   4.10084   4.11030
 Alpha virt. eigenvalues --    4.11545   4.12282   4.12572   4.14011   4.14394
 Alpha virt. eigenvalues --    4.14724   4.15419   4.15852   4.17148   4.18379
 Alpha virt. eigenvalues --    4.18622   4.19471   4.19977   4.20654   4.21056
 Alpha virt. eigenvalues --    4.21682   4.22541   4.22722   4.24150   4.24752
 Alpha virt. eigenvalues --    4.25149   4.25444   4.26044   4.26615   4.26966
 Alpha virt. eigenvalues --    4.27194   4.27709   4.27871   4.28371   4.29161
 Alpha virt. eigenvalues --    4.29327   4.29573   4.29881   4.30425   4.31708
 Alpha virt. eigenvalues --    4.32414   4.33660   4.34763   4.35738   4.36209
 Alpha virt. eigenvalues --    4.37351   4.38143   4.39171   4.39602   4.39815
 Alpha virt. eigenvalues --    4.40922   4.41247   4.42098   4.42533   4.42752
 Alpha virt. eigenvalues --    4.43863   4.44776   4.45570   4.47539   4.48722
 Alpha virt. eigenvalues --    4.48938   4.49829   4.52347   4.52799   4.53284
 Alpha virt. eigenvalues --    4.54817   4.57389   4.58093   4.58953   4.61112
 Alpha virt. eigenvalues --    4.63136   4.63949   4.65459   4.66335   4.68413
 Alpha virt. eigenvalues --    4.69083   4.75132   4.78023   4.78821   4.79166
 Alpha virt. eigenvalues --    4.81318   4.82440   4.84792   4.88230   4.92942
 Alpha virt. eigenvalues --    4.95352   4.97676   5.01672   5.04823   5.09317
 Alpha virt. eigenvalues --    5.14907   5.18362
          Condensed to atoms (all electrons):
 Mulliken charges:
               1
     1  C   -0.360448
     2  C   -0.384064
     3  C    0.107950
     4  C   -0.381534
     5  C    0.099327
     6  C    0.092295
     7  C   -0.381378
     8  C    0.182123
     9  C    0.054582
    10  C    0.100647
    11  C    0.180308
    12  C    0.146370
    13  C   -0.011071
    14  C    0.116433
    15  C    0.046472
    16  C   -0.384316
    17  C    0.062101
    18  C    0.149827
    19  C    0.020841
    20  C    0.118198
    21  C   -0.022497
    22  C    0.045916
    23  C    0.109905
    24  C    0.085082
    25  C    0.164941
    26  C    0.128896
    27  C   -0.371190
    28  C   -0.377348
    29  C    0.154539
    30  C    0.188110
    31  C    0.084227
    32  C    0.177814
    33  C    0.004517
    34  C   -0.373019
    35  C    0.038021
    36  C    0.122701
    37  C    0.067237
    38  C    0.123419
    39  C    0.118715
    40  C    0.120355
    41  C    0.113889
    42  C    0.144988
    43  C    0.087651
    44  C    0.139707
    45  C    0.144233
    46  C    0.117134
    47  C    0.123061
    48  C    0.122566
    49  C   -0.387937
    50  C   -0.373707
    51  C    0.088476
    52  C    0.136257
    53  C    0.028249
    54  C   -0.362063
    55  C    0.010123
    56  C    0.083504
    57  C    0.063061
    58  C   -0.018008
    59  C    0.118407
    60  C    0.087915
    61  C   -0.363223
    62  C   -0.393918
    63  C    0.115898
    64  C    0.147239
    65  C    0.115533
    66  C    0.124596
    67  C    0.147961
    68  C    0.119495
    69  C   -0.388919
    70  C   -0.375034
    71  C    0.086003
    72  C    0.126782
    73  C    0.015967
    74  C    0.123190
    75  C    0.020343
    76  C    0.089597
    77  C   -0.018836
    78  C   -0.385890
    79  C   -0.358792
    80  C   -0.376793
    81  C    0.110203
    82  C    0.161633
    83  C    0.037979
    84  C    0.060326
    85  Cl   0.032239
    86  Cl   0.028517
    87  Cl   0.030340
    88  Cl   0.036028
    89  Cl   0.031271
    90  Cl   0.034173
    91  Cl   0.031271
    92  Cl   0.028714
    93  Cl   0.026501
    94  Cl   0.026910
    95  Cl   0.028165
    96  Cl   0.030510
    97  Cl   0.033908
    98  Cl   0.031223
    99  Cl  -0.007140
   100  Cl   0.000332
   101  Cl  -0.004653
   102  Cl   0.007836
 Sum of Mulliken charges =  -0.00000
 Mulliken charges with hydrogens summed into heavy atoms:
               1
     1  C   -0.360448
     2  C   -0.384064
     3  C    0.107950
     4  C   -0.381534
     5  C    0.099327
     6  C    0.092295
     7  C   -0.381378
     8  C    0.182123
     9  C    0.054582
    10  C    0.100647
    11  C    0.180308
    12  C    0.146370
    13  C   -0.011071
    14  C    0.116433
    15  C    0.046472
    16  C   -0.384316
    17  C    0.062101
    18  C    0.149827
    19  C    0.020841
    20  C    0.118198
    21  C   -0.022497
    22  C    0.045916
    23  C    0.109905
    24  C    0.085082
    25  C    0.164941
    26  C    0.128896
    27  C   -0.371190
    28  C   -0.377348
    29  C    0.154539
    30  C    0.188110
    31  C    0.084227
    32  C    0.177814
    33  C    0.004517
    34  C   -0.373019
    35  C    0.038021
    36  C    0.122701
    37  C    0.067237
    38  C    0.123419
    39  C    0.118715
    40  C    0.120355
    41  C    0.113889
    42  C    0.144988
    43  C    0.087651
    44  C    0.139707
    45  C    0.144233
    46  C    0.117134
    47  C    0.123061
    48  C    0.122566
    49  C   -0.387937
    50  C   -0.373707
    51  C    0.088476
    52  C    0.136257
    53  C    0.028249
    54  C   -0.362063
    55  C    0.010123
    56  C    0.083504
    57  C    0.063061
    58  C   -0.018008
    59  C    0.118407
    60  C    0.087915
    61  C   -0.363223
    62  C   -0.393918
    63  C    0.115898
    64  C    0.147239
    65  C    0.115533
    66  C    0.124596
    67  C    0.147961
    68  C    0.119495
    69  C   -0.388919
    70  C   -0.375034
    71  C    0.086003
    72  C    0.126782
    73  C    0.015967
    74  C    0.123190
    75  C    0.020343
    76  C    0.089597
    77  C   -0.018836
    78  C   -0.385890
    79  C   -0.358792
    80  C   -0.376793
    81  C    0.110203
    82  C    0.161633
    83  C    0.037979
    84  C    0.060326
    85  Cl   0.032239
    86  Cl   0.028517
    87  Cl   0.030340
    88  Cl   0.036028
    89  Cl   0.031271
    90  Cl   0.034173
    91  Cl   0.031271
    92  Cl   0.028714
    93  Cl   0.026501
    94  Cl   0.026910
    95  Cl   0.028165
    96  Cl   0.030510
    97  Cl   0.033908
    98  Cl   0.031223
    99  Cl  -0.007140
   100  Cl   0.000332
   101  Cl  -0.004653
   102  Cl   0.007836
 Electronic spatial extent (au):  <R**2>=          76758.7696
 Charge=              0.0000 electrons
 Dipole moment (field-independent basis, Debye):
    X=             -0.3448    Y=              3.4911    Z=              0.0277  Tot=              3.5082
 Quadrupole moment (field-independent basis, Debye-Ang):
   XX=           -744.8070   YY=           -721.7842   ZZ=           -703.1945
   XY=             -9.4704   XZ=             -7.4695   YZ=              4.1346
 Traceless Quadrupole moment (field-independent basis, Debye-Ang):
   XX=            -21.5451   YY=              1.4777   ZZ=             20.0674
   XY=             -9.4704   XZ=             -7.4695   YZ=              4.1346
 Octapole moment (field-independent basis, Debye-Ang**2):
  XXX=            -20.4903  YYY=            -46.2351  ZZZ=            -12.3373  XYY=            -60.7400
  XXY=            -53.4243  XXZ=              3.5217  XZZ=             44.4793  YZZ=             22.4954
  YYZ=             29.1899  XYZ=            -21.4243
 Hexadecapole moment (field-independent basis, Debye-Ang**3):
 XXXX=         -40954.3494 YYYY=         -36355.2800 ZZZZ=         -29715.5776 XXXY=            -35.3111
 XXXZ=             -5.5904 YYYX=           -113.4769 YYYZ=             58.7139 ZZZX=            -87.4344
 ZZZY=            -37.4371 XXYY=         -13032.6527 XXZZ=         -12006.3269 YYZZ=         -10947.3845
 XXYZ=            -10.1418 YYXZ=              2.1019 ZZXY=            -37.0036
 N-N= 3.012424756905D+04 E-N=-8.732239864072D+04  KE= 1.142938947468D+04
 Leave Link  601 at Mon Jun 27 01:24:43 2022, MaxMem=  1342177280 cpu:              18.7 elap:               1.1
 (Enter /home/mkliu/g16/l9999.exe)
 1\1\GINC-NODE04\FOpt\RB3LYP\6-31G(d,p)\C84Cl18\MKLIU\27-Jun-2022\0\\#P
  opt b3lyp/6-31G(d, p) empiricaldispersion=GD3\\force\\0,1\C,8.4227512
 209,18.5965281299,10.8260234069\C,12.5923567148,19.9511309153,8.891602
 1584\C,8.2584368339,26.8428960688,10.5177919395\C,12.4883906793,25.730
 3605199,8.9296626482\C,8.0134881185,19.1101896145,9.4555264256\C,12.06
 72499943,19.459630369,10.2163284217\C,7.8823358756,27.1055265306,9.074
 0626184\C,11.9001658517,26.1852182713,10.2421928155\C,8.9858051598,19.
 218892574,8.3984131788\C,12.3517487143,20.101243208,11.395703592\C,12.
 1481788919,25.5478705181,11.3812891524\C,8.9754872022,26.6038433895,8.
 1480572894\C,10.3701319067,19.0412597568,8.6934548835\C,10.2843878326,
 26.6430501399,8.6238751154\C,10.8143215514,18.7920231078,10.0468802009
 \C,10.6890215868,27.0643109369,10.0241050641\C,9.9055963213,18.6782466
 259,11.0747053088\C,9.571110913,26.7581252494,10.9949642498\C,10.15030
 47153,19.4168135257,12.2674334065\C,9.8257648475,26.0505223689,12.1850
 503231\C,8.9436988467,19.9686928161,12.7810368219\C,8.7547619205,25.41
 41706615,12.828957394\C,7.8767327611,19.5048280474,11.9280005033\C,7.4
 417975322,25.5235398868,12.3514123718\C,6.7221550148,20.1749139677,11.
 7983923699\C,7.1979871817,26.2229569116,11.1944500285\C,5.920873004,20
 .1434200431,10.5293149368\C,6.0430144434,25.8978331945,10.2837925166\C
 ,6.7542206227,19.7366076039,9.3224464641\C,6.6270365716,26.2753040314,
 8.9422102719\C,6.412674857,20.323847151,8.1108623021\C,6.3350917707,25
 .6108049127,7.8328446757\C,7.3411819719,20.3893745733,7.050953279\C,7.
 2233813359,25.6451644672,6.6040892271\C,8.6734482325,19.9418032959,7.1
 959603626\C,8.6909452241,25.8480752905,6.9952943443\C,9.7217258993,20.
 6088454802,6.4320745617\C,9.7222393154,25.1141119685,6.3601678358\C,11
 .0762264893,20.5435405672,6.8974116864\C,12.7351636931,22.1587492035,7
 .7676912309\C,12.7226787848,23.550108563,7.7696339241\C,11.0298377458,
 25.1278254696,6.8851815611\C,11.3707314033,19.7414072146,7.9866185382\
 C,12.9228777783,21.436647391,8.946512738\C,12.8846641343,24.2659301081
 ,8.9540641267\C,11.2945612979,25.9099467889,8.0068653519\C,13.13610321
 12,22.143907282,10.149430011\C,13.1090799362,23.5638670397,10.15149373
 27\C,13.1832595555,21.3719787611,11.4722243587\C,13.0695220067,24.3450
 06418,11.4671531583\C,12.4343348334,22.1508187538,12.5385336437\C,12.3
 725555927,23.5288973848,12.5222053545\C,11.3553574041,20.1225738625,12
 .4022976148\C,11.2182654341,25.6169000683,12.5703597691\C,11.357117284
 4,21.4075218255,13.0509273335\C,11.26610357,24.1813229144,13.056939228
 \C,8.9008850721,21.2896332686,13.3332070952\C,8.8897494521,24.12050428
 97,13.4913431518\C,7.6744320913,22.0186324558,13.2437789108\C,7.691783
 5348,23.4092399647,13.3512567768\C,6.4365115488,21.3973406099,12.62530
 29959\C,6.6123871839,24.3349633335,12.7706955799\C,5.8503679452,22.313
 6841703,11.5666283325\C,5.9555338273,23.700983122,11.5606925278\C,5.55
 47056025,21.6146399757,10.400155144\C,5.7200410825,24.4021955976,10.35
 73630851\C,5.3418636302,22.2848605054,9.1963750461\C,5.4075789386,23.6
 949027614,9.1747076204\C,5.3658649256,21.4364183695,7.9404544253\C,5.3
 781549228,24.4372097729,7.833305887\C,5.9351871804,22.2169169888,6.777
 7364379\C,5.9513897414,23.5890286916,6.7281818616\C,7.0042840917,21.49
 62447148,6.201118571\C,6.9936463309,24.2715014073,6.0373248963\C,8.020
 3976074,22.1587680357,5.5101024894\C,7.9919003878,23.5774792104,5.4054
 979869\C,9.3611359306,21.6913831703,5.590664706\C,9.3986195955,24.1091
 475048,5.2576835612\C,12.0876191197,21.6044727546,6.5141669459\C,12.08
 34785208,24.0990457268,6.5028911173\C,10.2297986047,22.841146329,5.440
 3306381\C,11.4723535593,22.8488051787,5.93837035\C,10.1486760111,22.02
 00850001,13.4888416511\C,10.138990238,23.4570363814,13.5335509137\Cl,4
 .541132119,26.881736383,10.6931105116\Cl,3.6474298248,24.96167621,7.46
 14308448\Cl,13.3305412133,24.8469008858,5.3676559224\Cl,13.92109745,26
 .7785186362,8.4389685551\Cl,14.7758561964,24.8324497651,11.9598194157\
 Cl,14.9257804298,21.0235688433,11.934389048\Cl,14.0603350598,18.975345
 2405,8.3655565919\Cl,3.6889303082,20.7917628799,7.5437055361\Cl,4.4274
 105319,19.0682266898,10.6838934244\Cl,9.680400098,24.877348711,3.61048
 76585\Cl,6.7114307977,26.9720231376,5.4281922275\Cl,7.5468877141,28.89
 4599829,8.7672006348\Cl,5.3548785859,24.7889723627,14.0312686954\Cl,11
 .135947878,28.852227915,10.0999793462\Cl,7.7986735281,16.8523128385,11
 .0410040099\Cl,5.1843426439,21.0293979255,13.9648717764\Cl,13.35293225
 22,20.8977769417,5.3291430809\Cl,11.8782864665,26.7567321199,13.889145
 4278\\Version=ES64L-G16RevA.03\State=1-A\HF=-11484.5975316\RMSD=2.612e
 -09\RMSF=3.046e-05\Dipole=0.3174357,-1.2529211,0.4841908\Quadrupole=-1
 2.8405932,-0.1518036,12.9923967,-5.6156043,10.776712,3.9411326\PG=C01 
 [X(C84Cl18)]\\@


 THE WHOLE OF SCIENCE IS NOTHING MORE THAN A REFINEMENT OF EVERYDAY THINKING.
                                                              -- A. EINSTEIN
 Job cpu time:       1 days 21 hours 52 minutes  7.6 seconds.
 Elapsed time:       0 days  1 hours 54 minutes 49.5 seconds.
 File lengths (MBytes):  RWF=   1574 Int=      0 D2E=      0 Chk=    196 Scr=      1
 Normal termination of Gaussian 16 at Mon Jun 27 01:24:47 2022.
