 Entering Gaussian System, Link 0=g16
 Input=20_addons_C84_11_Cl22_rank_6.gjf
 Output=20_addons_C84_11_Cl22_rank_6.log
 Initial command:
 /home/mkliu/g16/l1.exe "/data/scratch/Gau-81966.inp" -scrdir="/data/scratch/"
 Entering Link 1 = /home/mkliu/g16/l1.exe PID=     81967.
  
 Copyright (c) 1988,1990,1992,1993,1995,1998,2003,2009,2016,
            Gaussian, Inc.  All Rights Reserved.
  
 This is part of the Gaussian(R) 16 program.  It is based on
 the Gaussian(R) 09 system (copyright 2009, Gaussian, Inc.),
 the Gaussian(R) 03 system (copyright 2003, Gaussian, Inc.),
 the Gaussian(R) 98 system (copyright 1998, Gaussian, Inc.),
 the Gaussian(R) 94 system (copyright 1995, Gaussian, Inc.),
 the Gaussian 92(TM) system (copyright 1992, Gaussian, Inc.),
 the Gaussian 90(TM) system (copyright 1990, Gaussian, Inc.),
 the Gaussian 88(TM) system (copyright 1988, Gaussian, Inc.),
 the Gaussian 86(TM) system (copyright 1986, Carnegie Mellon
 University), and the Gaussian 82(TM) system (copyright 1983,
 Carnegie Mellon University). Gaussian is a federally registered
 trademark of Gaussian, Inc.
  
 This software contains proprietary and confidential information,
 including trade secrets, belonging to Gaussian, Inc.
  
 This software is provided under written license and may be
 used, copied, transmitted, or stored only in accord with that
 written license.
  
 The following legend is applicable only to US Government
 contracts under FAR:
  
                    RESTRICTED RIGHTS LEGEND
  
 Use, reproduction and disclosure by the US Government is
 subject to restrictions as set forth in subparagraphs (a)
 and (c) of the Commercial Computer Software - Restricted
 Rights clause in FAR 52.227-19.
  
 Gaussian, Inc.
 340 Quinnipiac St., Bldg. 40, Wallingford CT 06492
  
  
 ---------------------------------------------------------------
 Warning -- This program may not be used in any manner that
 competes with the business of Gaussian, Inc. or will provide
 assistance to any competitor of Gaussian, Inc.  The licensee
 of this program is prohibited from giving any competitor of
 Gaussian, Inc. access to this program.  By using this program,
 the user acknowledges that Gaussian, Inc. is engaged in the
 business of creating and licensing software in the field of
 computational chemistry and represents and warrants to the
 licensee that it is not a competitor of Gaussian, Inc. and that
 it will not use this program in any manner prohibited above.
 ---------------------------------------------------------------
  

 Cite this work as:
 Gaussian 16, Revision A.03,
 M. J. Frisch, G. W. Trucks, H. B. Schlegel, G. E. Scuseria, 
 M. A. Robb, J. R. Cheeseman, G. Scalmani, V. Barone, 
 G. A. Petersson, H. Nakatsuji, X. Li, M. Caricato, A. V. Marenich, 
 J. Bloino, B. G. Janesko, R. Gomperts, B. Mennucci, H. P. Hratchian, 
 J. V. Ortiz, A. F. Izmaylov, J. L. Sonnenberg, D. Williams-Young, 
 F. Ding, F. Lipparini, F. Egidi, J. Goings, B. Peng, A. Petrone, 
 T. Henderson, D. Ranasinghe, V. G. Zakrzewski, J. Gao, N. Rega, 
 G. Zheng, W. Liang, M. Hada, M. Ehara, K. Toyota, R. Fukuda, 
 J. Hasegawa, M. Ishida, T. Nakajima, Y. Honda, O. Kitao, H. Nakai, 
 T. Vreven, K. Throssell, J. A. Montgomery, Jr., J. E. Peralta, 
 F. Ogliaro, M. J. Bearpark, J. J. Heyd, E. N. Brothers, K. N. Kudin, 
 V. N. Staroverov, T. A. Keith, R. Kobayashi, J. Normand, 
 K. Raghavachari, A. P. Rendell, J. C. Burant, S. S. Iyengar, 
 J. Tomasi, M. Cossi, J. M. Millam, M. Klene, C. Adamo, R. Cammi, 
 J. W. Ochterski, R. L. Martin, K. Morokuma, O. Farkas, 
 J. B. Foresman, and D. J. Fox, Gaussian, Inc., Wallingford CT, 2016.
 
 ******************************************
 Gaussian 16:  ES64L-G16RevA.03 25-Dec-2016
                28-Jun-2022 
 ******************************************
 %mem=10GB
 %chk=20_addons_C84_11_Cl22_rank_6.chk
 %nprocshared=24
 Will use up to   24 processors via shared memory.
 ------------------------------------------------
 #P opt b3lyp/6-31G(d, p) empiricaldispersion=GD3
 ------------------------------------------------
 1/18=20,19=15,26=3,38=1/1,3;
 2/9=110,12=2,17=6,18=5,40=1/2;
 3/5=1,6=6,7=101,11=2,25=1,30=1,71=1,74=-5,124=31/1,2,3;
 4//1;
 5/5=2,38=5/2;
 6/7=2,8=2,9=2,10=2,28=1/1;
 7//1,2,3,16;
 1/18=20,19=15,26=3/3(2);
 2/9=110/2;
 99//99;
 2/9=110/2;
 3/5=1,6=6,7=101,11=2,25=1,30=1,71=1,74=-5,124=31/1,2,3;
 4/5=5,16=3,69=1/1;
 5/5=2,38=5/2;
 7//1,2,3,16;
 1/18=20,19=15,26=3/3(-5);
 2/9=110/2;
 6/7=2,8=2,9=2,10=2,19=2,28=1/1;
 99/9=1/99;
 Leave Link    1 at Tue Jun 28 16:28:49 2022, MaxMem=  1342177280 cpu:               0.7 elap:               0.0
 (Enter /home/mkliu/g16/l101.exe)
 -----
 force
 -----
 Symbolic Z-matrix:
 Charge =  0 Multiplicity = 1
 C                     8.42554   18.67402   10.80553 
 C                     12.56837   19.99765   8.87934 
 C                     8.27761   26.82921   10.52851 
 C                     12.48325   25.73358   8.9011 
 C                     8.02609   19.20154   9.44416 
 C                     12.04366   19.52791   10.20224 
 C                     7.97305   26.76135   9.14515 
 C                     11.86693   26.14078   10.20789 
 C                     8.98317   19.30424   8.39203 
 C                     12.29763   20.17949   11.38144 
 C                     12.10611   25.47819   11.37992 
 C                     8.96799   26.56016   8.1561 
 C                     10.35689   19.10573   8.6757 
 C                     10.29266   26.61733   8.60513 
 C                     10.80037   18.89055   10.02638 
 C                     10.61137   26.73104   10.00156 
 C                     9.88949   18.81097   11.05854 
 C                     9.60934   26.70859   10.99054 
 C                     10.16429   19.46242   12.26207 
 C                     9.88174   26.03507   12.21157 
 C                     8.90307   19.86782   12.95561 
 C                     8.74773   25.58508   13.0861 
 C                     7.86839   19.53422   11.90826 
 C                     7.40902   25.57545   12.40091 
 C                     6.74404   20.21872   11.76912 
 C                     7.19249   26.22504   11.24672 
 C                     5.94572   20.1993   10.49864 
 C                     6.06151   25.89697   10.29999 
 C                     6.80028   19.83581   9.31637 
 C                     6.68289   26.22511   8.97887 
 C                     6.46614   20.4363   8.10058 
 C                     6.39083   25.54315   7.82721 
 C                     7.35422   20.46037   7.04328 
 C                     7.32446   25.41812   6.79573 
 C                     8.67509   20.01369   7.19582 
 C                     8.67315   25.80788   6.97684 
 C                     9.72577   20.64826   6.43017 
 C                     9.73738   25.12149   6.32292 
 C                     11.06263   20.5852   6.88599 
 C                     12.6835   22.18322   7.77197 
 C                     12.66991   23.57032   7.76938 
 C                     11.03974   25.15314   6.83342 
 C                     11.35785   19.79517   7.98254 
 C                     12.87545   21.4705   8.94238 
 C                     12.83533   24.27352   8.9492 
 C                     11.32308   25.93794   7.94669 
 C                     13.08807   22.16953   10.1393 
 C                     13.0593   23.57055   10.14279 
 C                     13.14514   21.41264   11.45329 
 C                     13.05373   24.3223   11.46174 
 C                     12.44341   22.18207   12.53827 
 C                     12.41103   23.50484   12.54342 
 C                     11.34936   20.14516   12.4185 
 C                     11.1115   25.42958   12.37743 
 C                     11.456    21.34289   13.30339 
 C                     11.37271   24.27296   13.30722 
 C                     8.91531   21.3554   13.23518 
 C                     8.91288   24.12376   13.39519 
 C                     7.70894   22.05686   13.12088 
 C                     7.7199    23.43632   13.21971 
 C                     6.44609   21.43474   12.59297 
 C                     6.61722   24.35342   12.7517 
 C                     5.87453   22.34827   11.53962 
 C                     5.97718   23.72939   11.53621 
 C                     5.5829    21.65572   10.3737 
 C                     5.74458   24.41817   10.33991 
 C                     5.36934   22.32341   9.17818 
 C                     5.43286   23.72082   9.15894 
 C                     5.38656   21.4819   7.93183 
 C                     5.37596   24.43876   7.81934 
 C                     5.91218   22.2529   6.75528 
 C                     5.91239   23.57859   6.70336 
 C                     6.87776   21.40308   5.97647 
 C                     6.85279   24.37733   5.82598 
 C                     8.023     22.21382   5.51615 
 C                     7.99941   23.56565   5.38795 
 C                     9.36027   21.73034   5.60266 
 C                     9.39325   24.1093   5.25967 
 C                     12.07574   21.63097   6.51147 
 C                     12.0858   24.11878   6.48742 
 C                     10.22199   22.8649   5.45053 
 C                     11.47527   22.87238   5.92682 
 C                     10.12143   22.05228   13.40212 
 C                     10.12007   23.4515   13.46206 
 Cl                    4.57147   26.8403   10.65784 
 Cl                    3.69039   24.99499   7.52219 
 Cl                    13.35559   24.83914   5.42845 
 Cl                    13.92477   26.71218   8.4526 
 Cl                    14.74053   24.81275   11.8683 
 Cl                    14.86996   21.07296   11.85335 
 Cl                    14.0152   19.08401   8.32783 
 Cl                    3.76154   20.77261   7.62079 
 Cl                    4.50476   19.12612   10.60801 
 Cl                    5.37628   24.64428   14.02702 
 Cl                    7.86571   16.9543   10.94103 
 Cl                    5.28584   21.11131   13.93011 
 Cl                    8.61694   18.98072   14.49859 
 Cl                    12.03504   20.94837   14.96695 
 Cl                    11.96431   24.81531   14.92227 
 Cl                    8.70095   26.57796   14.60742 
 Cl                    13.336    20.91731   5.4139 
 Cl                    9.66279   24.87092   3.6407 
 Cl                    6.0923    20.51638   4.61455 
 Cl                    5.97533   25.14696   4.43063 
 
 ITRead=  0  0  0  0  0  0  0  0  0  0  0  0  0  0  0  0  0  0  0  0
 ITRead=  0  0  0  0  0  0  0  0  0  0  0  0  0  0  0  0  0  0  0  0
 ITRead=  0  0  0  0  0  0  0  0  0  0  0  0  0  0  0  0  0  0  0  0
 ITRead=  0  0  0  0  0  0  0  0  0  0  0  0  0  0  0  0  0  0  0  0
 ITRead=  0  0  0  0  0  0  0  0  0  0  0  0  0  0  0  0  0  0  0  0
 ITRead=  0  0  0  0
 MicOpt= -1 -1 -1 -1 -1 -1 -1 -1 -1 -1 -1 -1 -1 -1 -1 -1 -1 -1 -1 -1
 MicOpt= -1 -1 -1 -1 -1 -1 -1 -1 -1 -1 -1 -1 -1 -1 -1 -1 -1 -1 -1 -1
 MicOpt= -1 -1 -1 -1 -1 -1 -1 -1 -1 -1 -1 -1 -1 -1 -1 -1 -1 -1 -1 -1
 MicOpt= -1 -1 -1 -1 -1 -1 -1 -1 -1 -1 -1 -1 -1 -1 -1 -1 -1 -1 -1 -1
 MicOpt= -1 -1 -1 -1 -1 -1 -1 -1 -1 -1 -1 -1 -1 -1 -1 -1 -1 -1 -1 -1
 MicOpt= -1 -1 -1 -1
 NAtoms=    104 NQM=      104 NQMF=       0 NMMI=      0 NMMIF=      0
                NMic=       0 NMicF=      0.
                    Isotopes and Nuclear Properties:
 (Nuclear quadrupole moments (NQMom) in fm**2, nuclear magnetic moments (NMagM)
  in nuclear magnetons)

  Atom         1           2           3           4           5           6           7           8           9          10
 IAtWgt=          12          12          12          12          12          12          12          12          12          12
 AtmWgt=  12.0000000  12.0000000  12.0000000  12.0000000  12.0000000  12.0000000  12.0000000  12.0000000  12.0000000  12.0000000
 NucSpn=           0           0           0           0           0           0           0           0           0           0
 AtZEff=  -0.0000000  -0.0000000  -0.0000000  -0.0000000  -0.0000000  -0.0000000  -0.0000000  -0.0000000  -0.0000000  -0.0000000
 NQMom=    0.0000000   0.0000000   0.0000000   0.0000000   0.0000000   0.0000000   0.0000000   0.0000000   0.0000000   0.0000000
 NMagM=    0.0000000   0.0000000   0.0000000   0.0000000   0.0000000   0.0000000   0.0000000   0.0000000   0.0000000   0.0000000
 AtZNuc=   6.0000000   6.0000000   6.0000000   6.0000000   6.0000000   6.0000000   6.0000000   6.0000000   6.0000000   6.0000000

  Atom        11          12          13          14          15          16          17          18          19          20
 IAtWgt=          12          12          12          12          12          12          12          12          12          12
 AtmWgt=  12.0000000  12.0000000  12.0000000  12.0000000  12.0000000  12.0000000  12.0000000  12.0000000  12.0000000  12.0000000
 NucSpn=           0           0           0           0           0           0           0           0           0           0
 AtZEff=  -0.0000000  -0.0000000  -0.0000000  -0.0000000  -0.0000000  -0.0000000  -0.0000000  -0.0000000  -0.0000000  -0.0000000
 NQMom=    0.0000000   0.0000000   0.0000000   0.0000000   0.0000000   0.0000000   0.0000000   0.0000000   0.0000000   0.0000000
 NMagM=    0.0000000   0.0000000   0.0000000   0.0000000   0.0000000   0.0000000   0.0000000   0.0000000   0.0000000   0.0000000
 AtZNuc=   6.0000000   6.0000000   6.0000000   6.0000000   6.0000000   6.0000000   6.0000000   6.0000000   6.0000000   6.0000000

  Atom        21          22          23          24          25          26          27          28          29          30
 IAtWgt=          12          12          12          12          12          12          12          12          12          12
 AtmWgt=  12.0000000  12.0000000  12.0000000  12.0000000  12.0000000  12.0000000  12.0000000  12.0000000  12.0000000  12.0000000
 NucSpn=           0           0           0           0           0           0           0           0           0           0
 AtZEff=  -0.0000000  -0.0000000  -0.0000000  -0.0000000  -0.0000000  -0.0000000  -0.0000000  -0.0000000  -0.0000000  -0.0000000
 NQMom=    0.0000000   0.0000000   0.0000000   0.0000000   0.0000000   0.0000000   0.0000000   0.0000000   0.0000000   0.0000000
 NMagM=    0.0000000   0.0000000   0.0000000   0.0000000   0.0000000   0.0000000   0.0000000   0.0000000   0.0000000   0.0000000
 AtZNuc=   6.0000000   6.0000000   6.0000000   6.0000000   6.0000000   6.0000000   6.0000000   6.0000000   6.0000000   6.0000000

  Atom        31          32          33          34          35          36          37          38          39          40
 IAtWgt=          12          12          12          12          12          12          12          12          12          12
 AtmWgt=  12.0000000  12.0000000  12.0000000  12.0000000  12.0000000  12.0000000  12.0000000  12.0000000  12.0000000  12.0000000
 NucSpn=           0           0           0           0           0           0           0           0           0           0
 AtZEff=  -0.0000000  -0.0000000  -0.0000000  -0.0000000  -0.0000000  -0.0000000  -0.0000000  -0.0000000  -0.0000000  -0.0000000
 NQMom=    0.0000000   0.0000000   0.0000000   0.0000000   0.0000000   0.0000000   0.0000000   0.0000000   0.0000000   0.0000000
 NMagM=    0.0000000   0.0000000   0.0000000   0.0000000   0.0000000   0.0000000   0.0000000   0.0000000   0.0000000   0.0000000
 AtZNuc=   6.0000000   6.0000000   6.0000000   6.0000000   6.0000000   6.0000000   6.0000000   6.0000000   6.0000000   6.0000000

  Atom        41          42          43          44          45          46          47          48          49          50
 IAtWgt=          12          12          12          12          12          12          12          12          12          12
 AtmWgt=  12.0000000  12.0000000  12.0000000  12.0000000  12.0000000  12.0000000  12.0000000  12.0000000  12.0000000  12.0000000
 NucSpn=           0           0           0           0           0           0           0           0           0           0
 AtZEff=  -0.0000000  -0.0000000  -0.0000000  -0.0000000  -0.0000000  -0.0000000  -0.0000000  -0.0000000  -0.0000000  -0.0000000
 NQMom=    0.0000000   0.0000000   0.0000000   0.0000000   0.0000000   0.0000000   0.0000000   0.0000000   0.0000000   0.0000000
 NMagM=    0.0000000   0.0000000   0.0000000   0.0000000   0.0000000   0.0000000   0.0000000   0.0000000   0.0000000   0.0000000
 AtZNuc=   6.0000000   6.0000000   6.0000000   6.0000000   6.0000000   6.0000000   6.0000000   6.0000000   6.0000000   6.0000000

  Atom        51          52          53          54          55          56          57          58          59          60
 IAtWgt=          12          12          12          12          12          12          12          12          12          12
 AtmWgt=  12.0000000  12.0000000  12.0000000  12.0000000  12.0000000  12.0000000  12.0000000  12.0000000  12.0000000  12.0000000
 NucSpn=           0           0           0           0           0           0           0           0           0           0
 AtZEff=  -0.0000000  -0.0000000  -0.0000000  -0.0000000  -0.0000000  -0.0000000  -0.0000000  -0.0000000  -0.0000000  -0.0000000
 NQMom=    0.0000000   0.0000000   0.0000000   0.0000000   0.0000000   0.0000000   0.0000000   0.0000000   0.0000000   0.0000000
 NMagM=    0.0000000   0.0000000   0.0000000   0.0000000   0.0000000   0.0000000   0.0000000   0.0000000   0.0000000   0.0000000
 AtZNuc=   6.0000000   6.0000000   6.0000000   6.0000000   6.0000000   6.0000000   6.0000000   6.0000000   6.0000000   6.0000000

  Atom        61          62          63          64          65          66          67          68          69          70
 IAtWgt=          12          12          12          12          12          12          12          12          12          12
 AtmWgt=  12.0000000  12.0000000  12.0000000  12.0000000  12.0000000  12.0000000  12.0000000  12.0000000  12.0000000  12.0000000
 NucSpn=           0           0           0           0           0           0           0           0           0           0
 AtZEff=  -0.0000000  -0.0000000  -0.0000000  -0.0000000  -0.0000000  -0.0000000  -0.0000000  -0.0000000  -0.0000000  -0.0000000
 NQMom=    0.0000000   0.0000000   0.0000000   0.0000000   0.0000000   0.0000000   0.0000000   0.0000000   0.0000000   0.0000000
 NMagM=    0.0000000   0.0000000   0.0000000   0.0000000   0.0000000   0.0000000   0.0000000   0.0000000   0.0000000   0.0000000
 AtZNuc=   6.0000000   6.0000000   6.0000000   6.0000000   6.0000000   6.0000000   6.0000000   6.0000000   6.0000000   6.0000000

  Atom        71          72          73          74          75          76          77          78          79          80
 IAtWgt=          12          12          12          12          12          12          12          12          12          12
 AtmWgt=  12.0000000  12.0000000  12.0000000  12.0000000  12.0000000  12.0000000  12.0000000  12.0000000  12.0000000  12.0000000
 NucSpn=           0           0           0           0           0           0           0           0           0           0
 AtZEff=  -0.0000000  -0.0000000  -0.0000000  -0.0000000  -0.0000000  -0.0000000  -0.0000000  -0.0000000  -0.0000000  -0.0000000
 NQMom=    0.0000000   0.0000000   0.0000000   0.0000000   0.0000000   0.0000000   0.0000000   0.0000000   0.0000000   0.0000000
 NMagM=    0.0000000   0.0000000   0.0000000   0.0000000   0.0000000   0.0000000   0.0000000   0.0000000   0.0000000   0.0000000
 AtZNuc=   6.0000000   6.0000000   6.0000000   6.0000000   6.0000000   6.0000000   6.0000000   6.0000000   6.0000000   6.0000000

  Atom        81          82          83          84          85          86          87          88          89          90
 IAtWgt=          12          12          12          12          35          35          35          35          35          35
 AtmWgt=  12.0000000  12.0000000  12.0000000  12.0000000  34.9688527  34.9688527  34.9688527  34.9688527  34.9688527  34.9688527
 NucSpn=           0           0           0           0           3           3           3           3           3           3
 AtZEff=  -0.0000000  -0.0000000  -0.0000000  -0.0000000  -0.0000000  -0.0000000  -0.0000000  -0.0000000  -0.0000000  -0.0000000
 NQMom=    0.0000000   0.0000000   0.0000000   0.0000000  -8.1650000  -8.1650000  -8.1650000  -8.1650000  -8.1650000  -8.1650000
 NMagM=    0.0000000   0.0000000   0.0000000   0.0000000   0.8218740   0.8218740   0.8218740   0.8218740   0.8218740   0.8218740
 AtZNuc=   6.0000000   6.0000000   6.0000000   6.0000000  17.0000000  17.0000000  17.0000000  17.0000000  17.0000000  17.0000000

  Atom        91          92          93          94          95          96          97          98          99         100
 IAtWgt=          35          35          35          35          35          35          35          35          35          35
 AtmWgt=  34.9688527  34.9688527  34.9688527  34.9688527  34.9688527  34.9688527  34.9688527  34.9688527  34.9688527  34.9688527
 NucSpn=           3           3           3           3           3           3           3           3           3           3
 AtZEff=  -0.0000000  -0.0000000  -0.0000000  -0.0000000  -0.0000000  -0.0000000  -0.0000000  -0.0000000  -0.0000000  -0.0000000
 NQMom=   -8.1650000  -8.1650000  -8.1650000  -8.1650000  -8.1650000  -8.1650000  -8.1650000  -8.1650000  -8.1650000  -8.1650000
 NMagM=    0.8218740   0.8218740   0.8218740   0.8218740   0.8218740   0.8218740   0.8218740   0.8218740   0.8218740   0.8218740
 AtZNuc=  17.0000000  17.0000000  17.0000000  17.0000000  17.0000000  17.0000000  17.0000000  17.0000000  17.0000000  17.0000000

  Atom       101         102         103         104
 IAtWgt=          35          35          35          35
 AtmWgt=  34.9688527  34.9688527  34.9688527  34.9688527
 NucSpn=           3           3           3           3
 AtZEff=  -0.0000000  -0.0000000  -0.0000000  -0.0000000
 NQMom=   -8.1650000  -8.1650000  -8.1650000  -8.1650000
 NMagM=    0.8218740   0.8218740   0.8218740   0.8218740
 AtZNuc=  17.0000000  17.0000000  17.0000000  17.0000000
 Leave Link  101 at Tue Jun 28 16:28:49 2022, MaxMem=  1342177280 cpu:               6.7 elap:               0.3
 (Enter /home/mkliu/g16/l103.exe)

 GradGradGradGradGradGradGradGradGradGradGradGradGradGradGradGradGradGrad
 Berny optimization.
 Initialization pass.
                           ----------------------------
                           !    Initial Parameters    !
                           ! (Angstroms and Degrees)  !
 --------------------------                            --------------------------
 ! Name  Definition              Value          Derivative Info.                !
 --------------------------------------------------------------------------------
 ! R1    R(1,5)                  1.5137         estimate D2E/DX2                !
 ! R2    R(1,17)                 1.492          estimate D2E/DX2                !
 ! R3    R(1,23)                 1.5054         estimate D2E/DX2                !
 ! R4    R(1,95)                 1.8136         estimate D2E/DX2                !
 ! R5    R(2,6)                  1.4987         estimate D2E/DX2                !
 ! R6    R(2,43)                 1.5201         estimate D2E/DX2                !
 ! R7    R(2,44)                 1.5058         estimate D2E/DX2                !
 ! R8    R(2,91)                 1.7978         estimate D2E/DX2                !
 ! R9    R(3,7)                  1.4181         estimate D2E/DX2                !
 ! R10   R(3,18)                 1.4148         estimate D2E/DX2                !
 ! R11   R(3,26)                 1.4347         estimate D2E/DX2                !
 ! R12   R(4,8)                  1.5011         estimate D2E/DX2                !
 ! R13   R(4,45)                 1.5027         estimate D2E/DX2                !
 ! R14   R(4,46)                 1.5161         estimate D2E/DX2                !
 ! R15   R(4,88)                 1.7991         estimate D2E/DX2                !
 ! R16   R(5,9)                  1.426          estimate D2E/DX2                !
 ! R17   R(5,29)                 1.3861         estimate D2E/DX2                !
 ! R18   R(6,10)                 1.371          estimate D2E/DX2                !
 ! R19   R(6,15)                 1.4082         estimate D2E/DX2                !
 ! R20   R(7,12)                 1.4173         estimate D2E/DX2                !
 ! R21   R(7,30)                 1.407          estimate D2E/DX2                !
 ! R22   R(8,11)                 1.3674         estimate D2E/DX2                !
 ! R23   R(8,16)                 1.4026         estimate D2E/DX2                !
 ! R24   R(9,13)                 1.4167         estimate D2E/DX2                !
 ! R25   R(9,35)                 1.4245         estimate D2E/DX2                !
 ! R26   R(10,49)                1.498          estimate D2E/DX2                !
 ! R27   R(10,53)                1.4057         estimate D2E/DX2                !
 ! R28   R(11,50)                1.4969         estimate D2E/DX2                !
 ! R29   R(11,54)                1.4095         estimate D2E/DX2                !
 ! R30   R(12,14)                1.3999         estimate D2E/DX2                !
 ! R31   R(12,36)                1.4295         estimate D2E/DX2                !
 ! R32   R(13,15)                1.4378         estimate D2E/DX2                !
 ! R33   R(13,43)                1.3992         estimate D2E/DX2                !
 ! R34   R(14,16)                1.4368         estimate D2E/DX2                !
 ! R35   R(14,46)                1.3989         estimate D2E/DX2                !
 ! R36   R(15,17)                1.3789         estimate D2E/DX2                !
 ! R37   R(16,18)                1.4081         estimate D2E/DX2                !
 ! R38   R(17,19)                1.3958         estimate D2E/DX2                !
 ! R39   R(18,20)                1.4208         estimate D2E/DX2                !
 ! R40   R(19,21)                1.4953         estimate D2E/DX2                !
 ! R41   R(19,53)                1.3766         estimate D2E/DX2                !
 ! R42   R(20,22)                1.5011         estimate D2E/DX2                !
 ! R43   R(20,54)                1.3807         estimate D2E/DX2                !
 ! R44   R(21,23)                1.5096         estimate D2E/DX2                !
 ! R45   R(21,57)                1.5137         estimate D2E/DX2                !
 ! R46   R(21,97)                1.8027         estimate D2E/DX2                !
 ! R47   R(22,24)                1.5039         estimate D2E/DX2                !
 ! R48   R(22,58)                1.5028         estimate D2E/DX2                !
 ! R49   R(22,100)               1.8173         estimate D2E/DX2                !
 ! R50   R(23,25)                1.3237         estimate D2E/DX2                !
 ! R51   R(24,26)                1.342          estimate D2E/DX2                !
 ! R52   R(24,62)                1.4978         estimate D2E/DX2                !
 ! R53   R(25,27)                1.5006         estimate D2E/DX2                !
 ! R54   R(25,61)                1.4987         estimate D2E/DX2                !
 ! R55   R(26,28)                1.511          estimate D2E/DX2                !
 ! R56   R(27,29)                1.5034         estimate D2E/DX2                !
 ! R57   R(27,65)                1.5061         estimate D2E/DX2                !
 ! R58   R(27,93)                1.8            estimate D2E/DX2                !
 ! R59   R(28,30)                1.4964         estimate D2E/DX2                !
 ! R60   R(28,66)                1.5129         estimate D2E/DX2                !
 ! R61   R(28,85)                1.7995         estimate D2E/DX2                !
 ! R62   R(29,31)                1.3966         estimate D2E/DX2                !
 ! R63   R(30,32)                1.3699         estimate D2E/DX2                !
 ! R64   R(31,33)                1.381          estimate D2E/DX2                !
 ! R65   R(31,69)                1.5124         estimate D2E/DX2                !
 ! R66   R(32,34)                1.3969         estimate D2E/DX2                !
 ! R67   R(32,70)                1.4999         estimate D2E/DX2                !
 ! R68   R(33,35)                1.4027         estimate D2E/DX2                !
 ! R69   R(33,73)                1.5013         estimate D2E/DX2                !
 ! R70   R(34,36)                1.4155         estimate D2E/DX2                !
 ! R71   R(34,74)                1.4987         estimate D2E/DX2                !
 ! R72   R(35,37)                1.4467         estimate D2E/DX2                !
 ! R73   R(36,38)                1.4252         estimate D2E/DX2                !
 ! R74   R(37,39)                1.4138         estimate D2E/DX2                !
 ! R75   R(37,77)                1.4104         estimate D2E/DX2                !
 ! R76   R(38,42)                1.3992         estimate D2E/DX2                !
 ! R77   R(38,78)                1.5078         estimate D2E/DX2                !
 ! R78   R(39,43)                1.3834         estimate D2E/DX2                !
 ! R79   R(39,79)                1.5034         estimate D2E/DX2                !
 ! R80   R(40,41)                1.3872         estimate D2E/DX2                !
 ! R81   R(40,44)                1.3837         estimate D2E/DX2                !
 ! R82   R(40,79)                1.5044         estimate D2E/DX2                !
 ! R83   R(41,45)                1.3834         estimate D2E/DX2                !
 ! R84   R(41,80)                1.5118         estimate D2E/DX2                !
 ! R85   R(42,46)                1.3912         estimate D2E/DX2                !
 ! R86   R(42,80)                1.5112         estimate D2E/DX2                !
 ! R87   R(44,47)                1.4023         estimate D2E/DX2                !
 ! R88   R(45,48)                1.4032         estimate D2E/DX2                !
 ! R89   R(47,48)                1.4013         estimate D2E/DX2                !
 ! R90   R(47,49)                1.5175         estimate D2E/DX2                !
 ! R91   R(48,50)                1.5182         estimate D2E/DX2                !
 ! R92   R(49,51)                1.5039         estimate D2E/DX2                !
 ! R93   R(49,90)                1.8029         estimate D2E/DX2                !
 ! R94   R(50,52)                1.5004         estimate D2E/DX2                !
 ! R95   R(50,89)                1.8031         estimate D2E/DX2                !
 ! R96   R(51,52)                1.3232         estimate D2E/DX2                !
 ! R97   R(51,55)                1.5049         estimate D2E/DX2                !
 ! R98   R(52,56)                1.5005         estimate D2E/DX2                !
 ! R99   R(53,55)                1.493          estimate D2E/DX2                !
 ! R100  R(54,56)                1.5068         estimate D2E/DX2                !
 ! R101  R(55,83)                1.5146         estimate D2E/DX2                !
 ! R102  R(55,98)                1.8051         estimate D2E/DX2                !
 ! R103  R(56,84)                1.5059         estimate D2E/DX2                !
 ! R104  R(56,99)                1.8035         estimate D2E/DX2                !
 ! R105  R(57,59)                1.4002         estimate D2E/DX2                !
 ! R106  R(57,83)                1.4029         estimate D2E/DX2                !
 ! R107  R(58,60)                1.388          estimate D2E/DX2                !
 ! R108  R(58,84)                1.3834         estimate D2E/DX2                !
 ! R109  R(59,60)                1.383          estimate D2E/DX2                !
 ! R110  R(59,61)                1.5035         estimate D2E/DX2                !
 ! R111  R(60,62)                1.5086         estimate D2E/DX2                !
 ! R112  R(61,63)                1.5069         estimate D2E/DX2                !
 ! R113  R(61,96)                1.7997         estimate D2E/DX2                !
 ! R114  R(62,64)                1.5088         estimate D2E/DX2                !
 ! R115  R(62,94)                1.803          estimate D2E/DX2                !
 ! R116  R(63,64)                1.3849         estimate D2E/DX2                !
 ! R117  R(63,65)                1.3871         estimate D2E/DX2                !
 ! R118  R(64,66)                1.3999         estimate D2E/DX2                !
 ! R119  R(65,67)                1.3859         estimate D2E/DX2                !
 ! R120  R(66,68)                1.4065         estimate D2E/DX2                !
 ! R121  R(67,68)                1.399          estimate D2E/DX2                !
 ! R122  R(67,69)                1.5039         estimate D2E/DX2                !
 ! R123  R(68,70)                1.5209         estimate D2E/DX2                !
 ! R124  R(69,71)                1.5017         estimate D2E/DX2                !
 ! R125  R(69,92)                1.8001         estimate D2E/DX2                !
 ! R126  R(70,72)                1.5077         estimate D2E/DX2                !
 ! R127  R(70,86)                1.7997         estimate D2E/DX2                !
 ! R128  R(71,72)                1.3267         estimate D2E/DX2                !
 ! R129  R(71,73)                1.5037         estimate D2E/DX2                !
 ! R130  R(72,74)                1.514          estimate D2E/DX2                !
 ! R131  R(73,75)                1.4767         estimate D2E/DX2                !
 ! R132  R(73,103)               1.805          estimate D2E/DX2                !
 ! R133  R(74,76)                1.4715         estimate D2E/DX2                !
 ! R134  R(74,104)               1.8191         estimate D2E/DX2                !
 ! R135  R(75,76)                1.3581         estimate D2E/DX2                !
 ! R136  R(75,77)                1.4246         estimate D2E/DX2                !
 ! R137  R(76,78)                1.5016         estimate D2E/DX2                !
 ! R138  R(77,81)                1.4328         estimate D2E/DX2                !
 ! R139  R(78,81)                1.5072         estimate D2E/DX2                !
 ! R140  R(78,102)               1.8094         estimate D2E/DX2                !
 ! R141  R(79,82)                1.4978         estimate D2E/DX2                !
 ! R142  R(79,101)               1.8172         estimate D2E/DX2                !
 ! R143  R(80,82)                1.4968         estimate D2E/DX2                !
 ! R144  R(80,87)                1.8035         estimate D2E/DX2                !
 ! R145  R(81,82)                1.3408         estimate D2E/DX2                !
 ! R146  R(83,84)                1.4005         estimate D2E/DX2                !
 ! A1    A(5,1,17)             112.3011         estimate D2E/DX2                !
 ! A2    A(5,1,23)             111.2231         estimate D2E/DX2                !
 ! A3    A(5,1,95)             108.4334         estimate D2E/DX2                !
 ! A4    A(17,1,23)            100.7468         estimate D2E/DX2                !
 ! A5    A(17,1,95)            112.1639         estimate D2E/DX2                !
 ! A6    A(23,1,95)            111.891          estimate D2E/DX2                !
 ! A7    A(6,2,43)             101.5488         estimate D2E/DX2                !
 ! A8    A(6,2,44)             109.9388         estimate D2E/DX2                !
 ! A9    A(6,2,91)             113.1571         estimate D2E/DX2                !
 ! A10   A(43,2,44)            108.5053         estimate D2E/DX2                !
 ! A11   A(43,2,91)            113.0919         estimate D2E/DX2                !
 ! A12   A(44,2,91)            110.2293         estimate D2E/DX2                !
 ! A13   A(7,3,18)             121.108          estimate D2E/DX2                !
 ! A14   A(7,3,26)             107.8032         estimate D2E/DX2                !
 ! A15   A(18,3,26)            120.8352         estimate D2E/DX2                !
 ! A16   A(8,4,45)             109.3842         estimate D2E/DX2                !
 ! A17   A(8,4,46)             101.3774         estimate D2E/DX2                !
 ! A18   A(8,4,88)             113.4808         estimate D2E/DX2                !
 ! A19   A(45,4,46)            109.2932         estimate D2E/DX2                !
 ! A20   A(45,4,88)            110.411          estimate D2E/DX2                !
 ! A21   A(46,4,88)            112.5122         estimate D2E/DX2                !
 ! A22   A(1,5,9)              120.768          estimate D2E/DX2                !
 ! A23   A(1,5,29)             118.4097         estimate D2E/DX2                !
 ! A24   A(9,5,29)             119.5098         estimate D2E/DX2                !
 ! A25   A(2,6,10)             123.0524         estimate D2E/DX2                !
 ! A26   A(2,6,15)             109.9227         estimate D2E/DX2                !
 ! A27   A(10,6,15)            119.0842         estimate D2E/DX2                !
 ! A28   A(3,7,12)             122.4654         estimate D2E/DX2                !
 ! A29   A(3,7,30)             109.2956         estimate D2E/DX2                !
 ! A30   A(12,7,30)            120.4734         estimate D2E/DX2                !
 ! A31   A(4,8,11)             122.8807         estimate D2E/DX2                !
 ! A32   A(4,8,16)             110.7087         estimate D2E/DX2                !
 ! A33   A(11,8,16)            119.1144         estimate D2E/DX2                !
 ! A34   A(5,9,13)             119.5365         estimate D2E/DX2                !
 ! A35   A(5,9,35)             120.6832         estimate D2E/DX2                !
 ! A36   A(13,9,35)            116.5928         estimate D2E/DX2                !
 ! A37   A(6,10,49)            122.4998         estimate D2E/DX2                !
 ! A38   A(6,10,53)            119.8671         estimate D2E/DX2                !
 ! A39   A(49,10,53)           111.4921         estimate D2E/DX2                !
 ! A40   A(8,11,50)            122.1223         estimate D2E/DX2                !
 ! A41   A(8,11,54)            119.9912         estimate D2E/DX2                !
 ! A42   A(50,11,54)           112.4208         estimate D2E/DX2                !
 ! A43   A(7,12,14)            115.7633         estimate D2E/DX2                !
 ! A44   A(7,12,36)            120.3716         estimate D2E/DX2                !
 ! A45   A(14,12,36)           118.769          estimate D2E/DX2                !
 ! A46   A(9,13,15)            120.5411         estimate D2E/DX2                !
 ! A47   A(9,13,43)            121.699          estimate D2E/DX2                !
 ! A48   A(15,13,43)           108.57           estimate D2E/DX2                !
 ! A49   A(12,14,16)           121.6597         estimate D2E/DX2                !
 ! A50   A(12,14,46)           121.7497         estimate D2E/DX2                !
 ! A51   A(16,14,46)           109.4204         estimate D2E/DX2                !
 ! A52   A(6,15,13)            108.7783         estimate D2E/DX2                !
 ! A53   A(6,15,17)            121.056          estimate D2E/DX2                !
 ! A54   A(13,15,17)           120.5346         estimate D2E/DX2                !
 ! A55   A(8,16,14)            107.9514         estimate D2E/DX2                !
 ! A56   A(8,16,18)            121.8018         estimate D2E/DX2                !
 ! A57   A(14,16,18)           121.5672         estimate D2E/DX2                !
 ! A58   A(1,17,15)            121.7719         estimate D2E/DX2                !
 ! A59   A(1,17,19)            112.4725         estimate D2E/DX2                !
 ! A60   A(15,17,19)           119.2365         estimate D2E/DX2                !
 ! A61   A(3,18,16)            116.0489         estimate D2E/DX2                !
 ! A62   A(3,18,20)            120.1022         estimate D2E/DX2                !
 ! A63   A(16,18,20)           118.3414         estimate D2E/DX2                !
 ! A64   A(17,19,21)           111.1234         estimate D2E/DX2                !
 ! A65   A(17,19,53)           119.9297         estimate D2E/DX2                !
 ! A66   A(21,19,53)           122.6107         estimate D2E/DX2                !
 ! A67   A(18,20,22)           119.8637         estimate D2E/DX2                !
 ! A68   A(18,20,54)           118.8074         estimate D2E/DX2                !
 ! A69   A(22,20,54)           118.1258         estimate D2E/DX2                !
 ! A70   A(19,21,23)           101.3265         estimate D2E/DX2                !
 ! A71   A(19,21,57)           110.1987         estimate D2E/DX2                !
 ! A72   A(19,21,97)           113.4189         estimate D2E/DX2                !
 ! A73   A(23,21,57)           110.5408         estimate D2E/DX2                !
 ! A74   A(23,21,97)           112.1057         estimate D2E/DX2                !
 ! A75   A(57,21,97)           109.0755         estimate D2E/DX2                !
 ! A76   A(20,22,24)           114.1396         estimate D2E/DX2                !
 ! A77   A(20,22,58)           109.1666         estimate D2E/DX2                !
 ! A78   A(20,22,100)          110.0833         estimate D2E/DX2                !
 ! A79   A(24,22,58)           100.6789         estimate D2E/DX2                !
 ! A80   A(24,22,100)          111.2229         estimate D2E/DX2                !
 ! A81   A(58,22,100)          111.2196         estimate D2E/DX2                !
 ! A82   A(1,23,21)            112.3847         estimate D2E/DX2                !
 ! A83   A(1,23,25)            122.1982         estimate D2E/DX2                !
 ! A84   A(21,23,25)           122.742          estimate D2E/DX2                !
 ! A85   A(22,24,26)           122.1655         estimate D2E/DX2                !
 ! A86   A(22,24,62)           111.6604         estimate D2E/DX2                !
 ! A87   A(26,24,62)           120.7339         estimate D2E/DX2                !
 ! A88   A(23,25,27)           122.2893         estimate D2E/DX2                !
 ! A89   A(23,25,61)           122.0502         estimate D2E/DX2                !
 ! A90   A(27,25,61)           111.7241         estimate D2E/DX2                !
 ! A91   A(3,26,24)            120.8197         estimate D2E/DX2                !
 ! A92   A(3,26,28)            110.115          estimate D2E/DX2                !
 ! A93   A(24,26,28)           123.6798         estimate D2E/DX2                !
 ! A94   A(25,27,29)           111.5021         estimate D2E/DX2                !
 ! A95   A(25,27,65)           100.712          estimate D2E/DX2                !
 ! A96   A(25,27,93)           112.4668         estimate D2E/DX2                !
 ! A97   A(29,27,65)           107.7882         estimate D2E/DX2                !
 ! A98   A(29,27,93)           111.0189         estimate D2E/DX2                !
 ! A99   A(65,27,93)           112.8755         estimate D2E/DX2                !
 ! A100  A(26,28,30)           101.2299         estimate D2E/DX2                !
 ! A101  A(26,28,66)           110.6401         estimate D2E/DX2                !
 ! A102  A(26,28,85)           112.4184         estimate D2E/DX2                !
 ! A103  A(30,28,66)           108.9438         estimate D2E/DX2                !
 ! A104  A(30,28,85)           113.8573         estimate D2E/DX2                !
 ! A105  A(66,28,85)           109.4933         estimate D2E/DX2                !
 ! A106  A(5,29,27)            122.7405         estimate D2E/DX2                !
 ! A107  A(5,29,31)            119.2488         estimate D2E/DX2                !
 ! A108  A(27,29,31)           116.4015         estimate D2E/DX2                !
 ! A109  A(7,30,28)            111.1006         estimate D2E/DX2                !
 ! A110  A(7,30,32)            118.9834         estimate D2E/DX2                !
 ! A111  A(28,30,32)           122.9916         estimate D2E/DX2                !
 ! A112  A(29,31,33)           121.3423         estimate D2E/DX2                !
 ! A113  A(29,31,69)           124.4159         estimate D2E/DX2                !
 ! A114  A(33,31,69)           111.1966         estimate D2E/DX2                !
 ! A115  A(30,32,34)           121.5231         estimate D2E/DX2                !
 ! A116  A(30,32,70)           121.0112         estimate D2E/DX2                !
 ! A117  A(34,32,70)           112.4858         estimate D2E/DX2                !
 ! A118  A(31,33,35)           121.115          estimate D2E/DX2                !
 ! A119  A(31,33,73)           110.5425         estimate D2E/DX2                !
 ! A120  A(35,33,73)           125.1769         estimate D2E/DX2                !
 ! A121  A(32,34,36)           121.1778         estimate D2E/DX2                !
 ! A122  A(32,34,74)           109.2451         estimate D2E/DX2                !
 ! A123  A(36,34,74)           125.0203         estimate D2E/DX2                !
 ! A124  A(9,35,33)            116.9736         estimate D2E/DX2                !
 ! A125  A(9,35,37)            120.3865         estimate D2E/DX2                !
 ! A126  A(33,35,37)           119.1229         estimate D2E/DX2                !
 ! A127  A(12,36,34)           116.5491         estimate D2E/DX2                !
 ! A128  A(12,36,38)           118.5493         estimate D2E/DX2                !
 ! A129  A(34,36,38)           121.3421         estimate D2E/DX2                !
 ! A130  A(35,37,39)           119.7713         estimate D2E/DX2                !
 ! A131  A(35,37,77)           117.3125         estimate D2E/DX2                !
 ! A132  A(39,37,77)           117.9313         estimate D2E/DX2                !
 ! A133  A(36,38,42)           121.1136         estimate D2E/DX2                !
 ! A134  A(36,38,78)           118.4513         estimate D2E/DX2                !
 ! A135  A(42,38,78)           119.0058         estimate D2E/DX2                !
 ! A136  A(37,39,43)           118.8693         estimate D2E/DX2                !
 ! A137  A(37,39,79)           121.7248         estimate D2E/DX2                !
 ! A138  A(43,39,79)           116.801          estimate D2E/DX2                !
 ! A139  A(41,40,44)           121.1974         estimate D2E/DX2                !
 ! A140  A(41,40,79)           111.1953         estimate D2E/DX2                !
 ! A141  A(44,40,79)           125.1473         estimate D2E/DX2                !
 ! A142  A(40,41,45)           120.3659         estimate D2E/DX2                !
 ! A143  A(40,41,80)           111.6016         estimate D2E/DX2                !
 ! A144  A(45,41,80)           125.8014         estimate D2E/DX2                !
 ! A145  A(38,42,46)           119.6221         estimate D2E/DX2                !
 ! A146  A(38,42,80)           123.0429         estimate D2E/DX2                !
 ! A147  A(46,42,80)           115.3613         estimate D2E/DX2                !
 ! A148  A(2,43,13)            110.0644         estimate D2E/DX2                !
 ! A149  A(2,43,39)            124.1613         estimate D2E/DX2                !
 ! A150  A(13,43,39)           121.4274         estimate D2E/DX2                !
 ! A151  A(2,44,40)            116.1094         estimate D2E/DX2                !
 ! A152  A(2,44,47)            123.6571         estimate D2E/DX2                !
 ! A153  A(40,44,47)           119.0932         estimate D2E/DX2                !
 ! A154  A(4,45,41)            116.0134         estimate D2E/DX2                !
 ! A155  A(4,45,48)            123.4622         estimate D2E/DX2                !
 ! A156  A(41,45,48)           119.332          estimate D2E/DX2                !
 ! A157  A(4,46,14)            109.4399         estimate D2E/DX2                !
 ! A158  A(4,46,42)            125.7            estimate D2E/DX2                !
 ! A159  A(14,46,42)           120.0391         estimate D2E/DX2                !
 ! A160  A(44,47,48)           119.8275         estimate D2E/DX2                !
 ! A161  A(44,47,49)           119.7452         estimate D2E/DX2                !
 ! A162  A(48,47,49)           119.8215         estimate D2E/DX2                !
 ! A163  A(45,48,47)           120.1343         estimate D2E/DX2                !
 ! A164  A(45,48,50)           119.3635         estimate D2E/DX2                !
 ! A165  A(47,48,50)           119.8218         estimate D2E/DX2                !
 ! A166  A(10,49,47)           110.3517         estimate D2E/DX2                !
 ! A167  A(10,49,51)           101.057          estimate D2E/DX2                !
 ! A168  A(10,49,90)           113.378          estimate D2E/DX2                !
 ! A169  A(47,49,51)           110.608          estimate D2E/DX2                !
 ! A170  A(47,49,90)           108.7898         estimate D2E/DX2                !
 ! A171  A(51,49,90)           112.502          estimate D2E/DX2                !
 ! A172  A(11,50,48)           109.7066         estimate D2E/DX2                !
 ! A173  A(11,50,52)           100.8909         estimate D2E/DX2                !
 ! A174  A(11,50,89)           113.2354         estimate D2E/DX2                !
 ! A175  A(48,50,52)           110.984          estimate D2E/DX2                !
 ! A176  A(48,50,89)           109.096          estimate D2E/DX2                !
 ! A177  A(52,50,89)           112.7275         estimate D2E/DX2                !
 ! A178  A(49,51,52)           121.7156         estimate D2E/DX2                !
 ! A179  A(49,51,55)           112.8097         estimate D2E/DX2                !
 ! A180  A(52,51,55)           122.6454         estimate D2E/DX2                !
 ! A181  A(50,52,51)           122.0973         estimate D2E/DX2                !
 ! A182  A(50,52,56)           112.6107         estimate D2E/DX2                !
 ! A183  A(51,52,56)           122.0504         estimate D2E/DX2                !
 ! A184  A(10,53,19)           120.5989         estimate D2E/DX2                !
 ! A185  A(10,53,55)           111.6849         estimate D2E/DX2                !
 ! A186  A(19,53,55)           121.7851         estimate D2E/DX2                !
 ! A187  A(11,54,20)           121.8947         estimate D2E/DX2                !
 ! A188  A(11,54,56)           109.9281         estimate D2E/DX2                !
 ! A189  A(20,54,56)           124.4111         estimate D2E/DX2                !
 ! A190  A(51,55,53)           101.1213         estimate D2E/DX2                !
 ! A191  A(51,55,83)           110.4938         estimate D2E/DX2                !
 ! A192  A(51,55,98)           112.3316         estimate D2E/DX2                !
 ! A193  A(53,55,83)           110.5753         estimate D2E/DX2                !
 ! A194  A(53,55,98)           113.1917         estimate D2E/DX2                !
 ! A195  A(83,55,98)           108.9621         estimate D2E/DX2                !
 ! A196  A(52,56,54)           101.4665         estimate D2E/DX2                !
 ! A197  A(52,56,84)           110.4075         estimate D2E/DX2                !
 ! A198  A(52,56,99)           112.507          estimate D2E/DX2                !
 ! A199  A(54,56,84)           109.7523         estimate D2E/DX2                !
 ! A200  A(54,56,99)           112.2478         estimate D2E/DX2                !
 ! A201  A(84,56,99)           110.1708         estimate D2E/DX2                !
 ! A202  A(21,57,59)           118.0537         estimate D2E/DX2                !
 ! A203  A(21,57,83)           121.1377         estimate D2E/DX2                !
 ! A204  A(59,57,83)           120.1051         estimate D2E/DX2                !
 ! A205  A(22,58,60)           111.1711         estimate D2E/DX2                !
 ! A206  A(22,58,84)           125.3379         estimate D2E/DX2                !
 ! A207  A(60,58,84)           121.0287         estimate D2E/DX2                !
 ! A208  A(57,59,60)           119.1451         estimate D2E/DX2                !
 ! A209  A(57,59,61)           123.0286         estimate D2E/DX2                !
 ! A210  A(60,59,61)           116.3888         estimate D2E/DX2                !
 ! A211  A(58,60,59)           120.6526         estimate D2E/DX2                !
 ! A212  A(58,60,62)           111.4911         estimate D2E/DX2                !
 ! A213  A(59,60,62)           125.3356         estimate D2E/DX2                !
 ! A214  A(25,61,59)           111.2086         estimate D2E/DX2                !
 ! A215  A(25,61,63)           100.5466         estimate D2E/DX2                !
 ! A216  A(25,61,96)           113.0022         estimate D2E/DX2                !
 ! A217  A(59,61,63)           108.2508         estimate D2E/DX2                !
 ! A218  A(59,61,96)           110.7935         estimate D2E/DX2                !
 ! A219  A(63,61,96)           112.5682         estimate D2E/DX2                !
 ! A220  A(24,62,60)           100.5002         estimate D2E/DX2                !
 ! A221  A(24,62,64)           111.9026         estimate D2E/DX2                !
 ! A222  A(24,62,94)           113.4461         estimate D2E/DX2                !
 ! A223  A(60,62,64)           107.9711         estimate D2E/DX2                !
 ! A224  A(60,62,94)           112.4382         estimate D2E/DX2                !
 ! A225  A(64,62,94)           110.1557         estimate D2E/DX2                !
 ! A226  A(61,63,64)           125.3221         estimate D2E/DX2                !
 ! A227  A(61,63,65)           111.3843         estimate D2E/DX2                !
 ! A228  A(64,63,65)           120.758          estimate D2E/DX2                !
 ! A229  A(62,64,63)           116.2259         estimate D2E/DX2                !
 ! A230  A(62,64,66)           123.74           estimate D2E/DX2                !
 ! A231  A(63,64,66)           118.7161         estimate D2E/DX2                !
 ! A232  A(27,65,63)           111.2495         estimate D2E/DX2                !
 ! A233  A(27,65,67)           125.0684         estimate D2E/DX2                !
 ! A234  A(63,65,67)           121.1277         estimate D2E/DX2                !
 ! A235  A(28,66,64)           117.949          estimate D2E/DX2                !
 ! A236  A(28,66,68)           120.5911         estimate D2E/DX2                !
 ! A237  A(64,66,68)           120.6923         estimate D2E/DX2                !
 ! A238  A(65,67,68)           119.0844         estimate D2E/DX2                !
 ! A239  A(65,67,69)           116.3308         estimate D2E/DX2                !
 ! A240  A(68,67,69)           123.1612         estimate D2E/DX2                !
 ! A241  A(66,68,67)           119.5891         estimate D2E/DX2                !
 ! A242  A(66,68,70)           120.9181         estimate D2E/DX2                !
 ! A243  A(67,68,70)           118.811          estimate D2E/DX2                !
 ! A244  A(31,69,67)           107.6108         estimate D2E/DX2                !
 ! A245  A(31,69,71)           101.1004         estimate D2E/DX2                !
 ! A246  A(31,69,92)           113.0332         estimate D2E/DX2                !
 ! A247  A(67,69,71)           111.4708         estimate D2E/DX2                !
 ! A248  A(67,69,92)           110.6907         estimate D2E/DX2                !
 ! A249  A(71,69,92)           112.5133         estimate D2E/DX2                !
 ! A250  A(32,70,68)           108.5198         estimate D2E/DX2                !
 ! A251  A(32,70,72)           100.5579         estimate D2E/DX2                !
 ! A252  A(32,70,86)           114.0175         estimate D2E/DX2                !
 ! A253  A(68,70,72)           111.6747         estimate D2E/DX2                !
 ! A254  A(68,70,86)           109.0483         estimate D2E/DX2                !
 ! A255  A(72,70,86)           112.7899         estimate D2E/DX2                !
 ! A256  A(69,71,72)           122.9396         estimate D2E/DX2                !
 ! A257  A(69,71,73)           109.9012         estimate D2E/DX2                !
 ! A258  A(72,71,73)           122.9805         estimate D2E/DX2                !
 ! A259  A(70,72,71)           122.7563         estimate D2E/DX2                !
 ! A260  A(70,72,74)           110.424          estimate D2E/DX2                !
 ! A261  A(71,72,74)           123.3636         estimate D2E/DX2                !
 ! A262  A(33,73,71)           100.9899         estimate D2E/DX2                !
 ! A263  A(33,73,75)           108.6706         estimate D2E/DX2                !
 ! A264  A(33,73,103)          111.4571         estimate D2E/DX2                !
 ! A265  A(71,73,75)           110.4362         estimate D2E/DX2                !
 ! A266  A(71,73,103)          112.8916         estimate D2E/DX2                !
 ! A267  A(75,73,103)          111.8375         estimate D2E/DX2                !
 ! A268  A(34,74,72)           100.7713         estimate D2E/DX2                !
 ! A269  A(34,74,76)           109.2949         estimate D2E/DX2                !
 ! A270  A(34,74,104)          110.7516         estimate D2E/DX2                !
 ! A271  A(72,74,76)           111.4379         estimate D2E/DX2                !
 ! A272  A(72,74,104)          111.5991         estimate D2E/DX2                !
 ! A273  A(76,74,104)          112.3882         estimate D2E/DX2                !
 ! A274  A(73,75,76)           124.2235         estimate D2E/DX2                !
 ! A275  A(73,75,77)           121.5152         estimate D2E/DX2                !
 ! A276  A(76,75,77)           111.0907         estimate D2E/DX2                !
 ! A277  A(74,76,75)           122.3085         estimate D2E/DX2                !
 ! A278  A(74,76,78)           123.2993         estimate D2E/DX2                !
 ! A279  A(75,76,78)           110.6286         estimate D2E/DX2                !
 ! A280  A(37,77,75)           122.6327         estimate D2E/DX2                !
 ! A281  A(37,77,81)           120.9271         estimate D2E/DX2                !
 ! A282  A(75,77,81)           106.8205         estimate D2E/DX2                !
 ! A283  A(38,78,76)           113.2442         estimate D2E/DX2                !
 ! A284  A(38,78,81)           109.8439         estimate D2E/DX2                !
 ! A285  A(38,78,102)          108.3241         estimate D2E/DX2                !
 ! A286  A(76,78,81)           101.5753         estimate D2E/DX2                !
 ! A287  A(76,78,102)          111.5377         estimate D2E/DX2                !
 ! A288  A(81,78,102)          112.2671         estimate D2E/DX2                !
 ! A289  A(39,79,40)           108.5938         estimate D2E/DX2                !
 ! A290  A(39,79,82)           113.8031         estimate D2E/DX2                !
 ! A291  A(39,79,101)          110.1588         estimate D2E/DX2                !
 ! A292  A(40,79,82)           100.6474         estimate D2E/DX2                !
 ! A293  A(40,79,101)          111.7193         estimate D2E/DX2                !
 ! A294  A(82,79,101)          111.5777         estimate D2E/DX2                !
 ! A295  A(41,80,42)           108.7609         estimate D2E/DX2                !
 ! A296  A(41,80,82)            99.9675         estimate D2E/DX2                !
 ! A297  A(41,80,87)           111.7639         estimate D2E/DX2                !
 ! A298  A(42,80,82)           111.9223         estimate D2E/DX2                !
 ! A299  A(42,80,87)           110.389          estimate D2E/DX2                !
 ! A300  A(82,80,87)           113.5687         estimate D2E/DX2                !
 ! A301  A(77,81,78)           109.6648         estimate D2E/DX2                !
 ! A302  A(77,81,82)           121.9302         estimate D2E/DX2                !
 ! A303  A(78,81,82)           123.6654         estimate D2E/DX2                !
 ! A304  A(79,82,80)           112.3605         estimate D2E/DX2                !
 ! A305  A(79,82,81)           120.5825         estimate D2E/DX2                !
 ! A306  A(80,82,81)           121.2624         estimate D2E/DX2                !
 ! A307  A(55,83,57)           121.1383         estimate D2E/DX2                !
 ! A308  A(55,83,84)           118.1372         estimate D2E/DX2                !
 ! A309  A(57,83,84)           120.0351         estimate D2E/DX2                !
 ! A310  A(56,84,58)           117.1176         estimate D2E/DX2                !
 ! A311  A(56,84,83)           122.6678         estimate D2E/DX2                !
 ! A312  A(58,84,83)           118.9658         estimate D2E/DX2                !
 ! D1    D(17,1,5,9)            22.5545         estimate D2E/DX2                !
 ! D2    D(17,1,5,29)         -144.3            estimate D2E/DX2                !
 ! D3    D(23,1,5,9)           134.6089         estimate D2E/DX2                !
 ! D4    D(23,1,5,29)          -32.2456         estimate D2E/DX2                !
 ! D5    D(95,1,5,9)          -101.953          estimate D2E/DX2                !
 ! D6    D(95,1,5,29)           91.1925         estimate D2E/DX2                !
 ! D7    D(5,1,17,15)          -23.9532         estimate D2E/DX2                !
 ! D8    D(5,1,17,19)          127.438          estimate D2E/DX2                !
 ! D9    D(23,1,17,15)        -142.384          estimate D2E/DX2                !
 ! D10   D(23,1,17,19)           9.0072         estimate D2E/DX2                !
 ! D11   D(95,1,17,15)          98.4663         estimate D2E/DX2                !
 ! D12   D(95,1,17,19)        -110.1425         estimate D2E/DX2                !
 ! D13   D(5,1,23,21)         -133.1972         estimate D2E/DX2                !
 ! D14   D(5,1,23,25)           28.715          estimate D2E/DX2                !
 ! D15   D(17,1,23,21)         -13.9843         estimate D2E/DX2                !
 ! D16   D(17,1,23,25)         147.9279         estimate D2E/DX2                !
 ! D17   D(95,1,23,21)         105.3626         estimate D2E/DX2                !
 ! D18   D(95,1,23,25)         -92.7252         estimate D2E/DX2                !
 ! D19   D(43,2,6,10)         -137.8767         estimate D2E/DX2                !
 ! D20   D(43,2,6,15)           10.6306         estimate D2E/DX2                !
 ! D21   D(44,2,6,10)          -23.122          estimate D2E/DX2                !
 ! D22   D(44,2,6,15)          125.3852         estimate D2E/DX2                !
 ! D23   D(91,2,6,10)          100.6037         estimate D2E/DX2                !
 ! D24   D(91,2,6,15)         -110.8891         estimate D2E/DX2                !
 ! D25   D(6,2,43,13)           -8.1961         estimate D2E/DX2                !
 ! D26   D(6,2,43,39)          148.543          estimate D2E/DX2                !
 ! D27   D(44,2,43,13)        -124.0089         estimate D2E/DX2                !
 ! D28   D(44,2,43,39)          32.7302         estimate D2E/DX2                !
 ! D29   D(91,2,43,13)         113.3689         estimate D2E/DX2                !
 ! D30   D(91,2,43,39)         -89.892          estimate D2E/DX2                !
 ! D31   D(6,2,44,40)         -147.1857         estimate D2E/DX2                !
 ! D32   D(6,2,44,47)           20.465          estimate D2E/DX2                !
 ! D33   D(43,2,44,40)         -36.9432         estimate D2E/DX2                !
 ! D34   D(43,2,44,47)         130.7075         estimate D2E/DX2                !
 ! D35   D(91,2,44,40)          87.3981         estimate D2E/DX2                !
 ! D36   D(91,2,44,47)        -104.9512         estimate D2E/DX2                !
 ! D37   D(18,3,7,12)            0.5413         estimate D2E/DX2                !
 ! D38   D(18,3,7,30)          149.8128         estimate D2E/DX2                !
 ! D39   D(26,3,7,12)         -144.7994         estimate D2E/DX2                !
 ! D40   D(26,3,7,30)            4.4721         estimate D2E/DX2                !
 ! D41   D(7,3,18,16)            9.6039         estimate D2E/DX2                !
 ! D42   D(7,3,18,20)         -143.794          estimate D2E/DX2                !
 ! D43   D(26,3,18,16)         150.5095         estimate D2E/DX2                !
 ! D44   D(26,3,18,20)          -2.8884         estimate D2E/DX2                !
 ! D45   D(7,3,26,24)          148.0521         estimate D2E/DX2                !
 ! D46   D(7,3,26,28)           -6.9309         estimate D2E/DX2                !
 ! D47   D(18,3,26,24)           2.5984         estimate D2E/DX2                !
 ! D48   D(18,3,26,28)        -152.3846         estimate D2E/DX2                !
 ! D49   D(45,4,8,11)           24.7543         estimate D2E/DX2                !
 ! D50   D(45,4,8,16)         -124.9887         estimate D2E/DX2                !
 ! D51   D(46,4,8,11)          140.1            estimate D2E/DX2                !
 ! D52   D(46,4,8,16)           -9.643          estimate D2E/DX2                !
 ! D53   D(88,4,8,11)          -99.0208         estimate D2E/DX2                !
 ! D54   D(88,4,8,16)          111.2363         estimate D2E/DX2                !
 ! D55   D(8,4,45,41)          143.9783         estimate D2E/DX2                !
 ! D56   D(8,4,45,48)          -23.4288         estimate D2E/DX2                !
 ! D57   D(46,4,45,41)          33.8125         estimate D2E/DX2                !
 ! D58   D(46,4,45,48)        -133.5945         estimate D2E/DX2                !
 ! D59   D(88,4,45,41)         -90.458          estimate D2E/DX2                !
 ! D60   D(88,4,45,48)         102.1349         estimate D2E/DX2                !
 ! D61   D(8,4,46,14)           10.2933         estimate D2E/DX2                !
 ! D62   D(8,4,46,42)         -144.8426         estimate D2E/DX2                !
 ! D63   D(45,4,46,14)         125.7063         estimate D2E/DX2                !
 ! D64   D(45,4,46,42)         -29.4296         estimate D2E/DX2                !
 ! D65   D(88,4,46,14)        -111.2642         estimate D2E/DX2                !
 ! D66   D(88,4,46,42)          93.5999         estimate D2E/DX2                !
 ! D67   D(1,5,9,13)            -9.6492         estimate D2E/DX2                !
 ! D68   D(1,5,9,35)          -168.7926         estimate D2E/DX2                !
 ! D69   D(29,5,9,13)          157.0623         estimate D2E/DX2                !
 ! D70   D(29,5,9,35)           -2.0811         estimate D2E/DX2                !
 ! D71   D(1,5,29,27)            9.1904         estimate D2E/DX2                !
 ! D72   D(1,5,29,31)          174.1989         estimate D2E/DX2                !
 ! D73   D(9,5,29,27)         -157.8336         estimate D2E/DX2                !
 ! D74   D(9,5,29,31)            7.1749         estimate D2E/DX2                !
 ! D75   D(2,6,10,49)           -1.0182         estimate D2E/DX2                !
 ! D76   D(2,6,10,53)          149.0682         estimate D2E/DX2                !
 ! D77   D(15,6,10,49)        -146.8246         estimate D2E/DX2                !
 ! D78   D(15,6,10,53)           3.2618         estimate D2E/DX2                !
 ! D79   D(2,6,15,13)           -9.5306         estimate D2E/DX2                !
 ! D80   D(2,6,15,17)         -155.7485         estimate D2E/DX2                !
 ! D81   D(10,6,15,13)         140.4012         estimate D2E/DX2                !
 ! D82   D(10,6,15,17)          -5.8167         estimate D2E/DX2                !
 ! D83   D(3,7,12,14)           -8.5507         estimate D2E/DX2                !
 ! D84   D(3,7,12,36)          145.9036         estimate D2E/DX2                !
 ! D85   D(30,7,12,14)        -154.5252         estimate D2E/DX2                !
 ! D86   D(30,7,12,36)          -0.0709         estimate D2E/DX2                !
 ! D87   D(3,7,30,28)           -0.3274         estimate D2E/DX2                !
 ! D88   D(3,7,30,32)         -152.0859         estimate D2E/DX2                !
 ! D89   D(12,7,30,28)         149.6587         estimate D2E/DX2                !
 ! D90   D(12,7,30,32)          -2.0997         estimate D2E/DX2                !
 ! D91   D(4,8,11,50)            2.6742         estimate D2E/DX2                !
 ! D92   D(4,8,11,54)         -149.25           estimate D2E/DX2                !
 ! D93   D(16,8,11,50)         150.0254         estimate D2E/DX2                !
 ! D94   D(16,8,11,54)          -1.8988         estimate D2E/DX2                !
 ! D95   D(4,8,16,14)            5.7074         estimate D2E/DX2                !
 ! D96   D(4,8,16,18)          153.7437         estimate D2E/DX2                !
 ! D97   D(11,8,16,14)        -145.3222         estimate D2E/DX2                !
 ! D98   D(11,8,16,18)           2.7142         estimate D2E/DX2                !
 ! D99   D(5,9,13,15)           -4.148          estimate D2E/DX2                !
 ! D100  D(5,9,13,43)         -147.1808         estimate D2E/DX2                !
 ! D101  D(35,9,13,15)         155.8283         estimate D2E/DX2                !
 ! D102  D(35,9,13,43)          12.7955         estimate D2E/DX2                !
 ! D103  D(5,9,35,33)           -7.2587         estimate D2E/DX2                !
 ! D104  D(5,9,35,37)          151.4092         estimate D2E/DX2                !
 ! D105  D(13,9,35,33)        -166.9909         estimate D2E/DX2                !
 ! D106  D(13,9,35,37)          -8.3231         estimate D2E/DX2                !
 ! D107  D(6,10,49,47)          27.476          estimate D2E/DX2                !
 ! D108  D(6,10,49,51)         144.5405         estimate D2E/DX2                !
 ! D109  D(6,10,49,90)         -94.842          estimate D2E/DX2                !
 ! D110  D(53,10,49,47)       -124.8283         estimate D2E/DX2                !
 ! D111  D(53,10,49,51)         -7.7638         estimate D2E/DX2                !
 ! D112  D(53,10,49,90)        112.8537         estimate D2E/DX2                !
 ! D113  D(6,10,53,19)          -0.0227         estimate D2E/DX2                !
 ! D114  D(6,10,53,55)        -153.3656         estimate D2E/DX2                !
 ! D115  D(49,10,53,19)        153.1036         estimate D2E/DX2                !
 ! D116  D(49,10,53,55)         -0.2393         estimate D2E/DX2                !
 ! D117  D(8,11,50,48)         -31.0098         estimate D2E/DX2                !
 ! D118  D(8,11,50,52)        -148.1571         estimate D2E/DX2                !
 ! D119  D(8,11,50,89)          91.1279         estimate D2E/DX2                !
 ! D120  D(54,11,50,48)        122.8254         estimate D2E/DX2                !
 ! D121  D(54,11,50,52)          5.6781         estimate D2E/DX2                !
 ! D122  D(54,11,50,89)       -115.0369         estimate D2E/DX2                !
 ! D123  D(8,11,54,20)           0.108          estimate D2E/DX2                !
 ! D124  D(8,11,54,56)         159.1172         estimate D2E/DX2                !
 ! D125  D(50,11,54,20)       -154.3492         estimate D2E/DX2                !
 ! D126  D(50,11,54,56)          4.6601         estimate D2E/DX2                !
 ! D127  D(7,12,14,16)           6.3333         estimate D2E/DX2                !
 ! D128  D(7,12,14,46)         153.5747         estimate D2E/DX2                !
 ! D129  D(36,12,14,16)       -148.5514         estimate D2E/DX2                !
 ! D130  D(36,12,14,46)         -1.3101         estimate D2E/DX2                !
 ! D131  D(7,12,36,34)           6.7158         estimate D2E/DX2                !
 ! D132  D(7,12,36,38)        -152.3186         estimate D2E/DX2                !
 ! D133  D(14,12,36,34)        160.417          estimate D2E/DX2                !
 ! D134  D(14,12,36,38)          1.3826         estimate D2E/DX2                !
 ! D135  D(9,13,15,6)         -143.3428         estimate D2E/DX2                !
 ! D136  D(9,13,15,17)           3.0822         estimate D2E/DX2                !
 ! D137  D(43,13,15,6)           3.9906         estimate D2E/DX2                !
 ! D138  D(43,13,15,17)        150.4156         estimate D2E/DX2                !
 ! D139  D(9,13,43,2)          149.8992         estimate D2E/DX2                !
 ! D140  D(9,13,43,39)          -7.5838         estimate D2E/DX2                !
 ! D141  D(15,13,43,2)           3.0179         estimate D2E/DX2                !
 ! D142  D(15,13,43,39)       -154.4651         estimate D2E/DX2                !
 ! D143  D(12,14,16,8)         152.0469         estimate D2E/DX2                !
 ! D144  D(12,14,16,18)          3.9203         estimate D2E/DX2                !
 ! D145  D(46,14,16,8)           1.2486         estimate D2E/DX2                !
 ! D146  D(46,14,16,18)       -146.8779         estimate D2E/DX2                !
 ! D147  D(12,14,46,4)        -158.3665         estimate D2E/DX2                !
 ! D148  D(12,14,46,42)         -1.5971         estimate D2E/DX2                !
 ! D149  D(16,14,46,4)          -7.5993         estimate D2E/DX2                !
 ! D150  D(16,14,46,42)        149.1701         estimate D2E/DX2                !
 ! D151  D(6,15,17,1)          154.5175         estimate D2E/DX2                !
 ! D152  D(6,15,17,19)           4.9857         estimate D2E/DX2                !
 ! D153  D(13,15,17,1)          12.1937         estimate D2E/DX2                !
 ! D154  D(13,15,17,19)       -137.3381         estimate D2E/DX2                !
 ! D155  D(8,16,18,3)         -155.5564         estimate D2E/DX2                !
 ! D156  D(8,16,18,20)          -1.6705         estimate D2E/DX2                !
 ! D157  D(14,16,18,3)         -11.7896         estimate D2E/DX2                !
 ! D158  D(14,16,18,20)        142.0964         estimate D2E/DX2                !
 ! D159  D(1,17,19,21)          -1.0834         estimate D2E/DX2                !
 ! D160  D(1,17,19,53)        -153.8407         estimate D2E/DX2                !
 ! D161  D(15,17,19,21)        151.1091         estimate D2E/DX2                !
 ! D162  D(15,17,19,53)         -1.6482         estimate D2E/DX2                !
 ! D163  D(3,18,20,22)          -6.7595         estimate D2E/DX2                !
 ! D164  D(3,18,20,54)         152.6504         estimate D2E/DX2                !
 ! D165  D(16,18,20,22)       -159.5597         estimate D2E/DX2                !
 ! D166  D(16,18,20,54)         -0.1498         estimate D2E/DX2                !
 ! D167  D(17,19,21,23)         -7.3745         estimate D2E/DX2                !
 ! D168  D(17,19,21,57)       -124.4384         estimate D2E/DX2                !
 ! D169  D(17,19,21,97)        112.9569         estimate D2E/DX2                !
 ! D170  D(53,19,21,23)        144.529          estimate D2E/DX2                !
 ! D171  D(53,19,21,57)         27.4651         estimate D2E/DX2                !
 ! D172  D(53,19,21,97)        -95.1396         estimate D2E/DX2                !
 ! D173  D(17,19,53,10)         -0.8251         estimate D2E/DX2                !
 ! D174  D(17,19,53,55)        149.8046         estimate D2E/DX2                !
 ! D175  D(21,19,53,10)       -150.3664         estimate D2E/DX2                !
 ! D176  D(21,19,53,55)          0.2632         estimate D2E/DX2                !
 ! D177  D(18,20,22,24)         15.4433         estimate D2E/DX2                !
 ! D178  D(18,20,22,58)        127.2051         estimate D2E/DX2                !
 ! D179  D(18,20,22,100)      -110.4459         estimate D2E/DX2                !
 ! D180  D(54,20,22,24)       -144.1049         estimate D2E/DX2                !
 ! D181  D(54,20,22,58)        -32.3431         estimate D2E/DX2                !
 ! D182  D(54,20,22,100)        90.0058         estimate D2E/DX2                !
 ! D183  D(18,20,54,11)          0.9285         estimate D2E/DX2                !
 ! D184  D(18,20,54,56)       -154.9796         estimate D2E/DX2                !
 ! D185  D(22,20,54,11)        160.6968         estimate D2E/DX2                !
 ! D186  D(22,20,54,56)          4.7887         estimate D2E/DX2                !
 ! D187  D(19,21,23,1)          13.5025         estimate D2E/DX2                !
 ! D188  D(19,21,23,25)       -148.2963         estimate D2E/DX2                !
 ! D189  D(57,21,23,1)         130.3164         estimate D2E/DX2                !
 ! D190  D(57,21,23,25)        -31.4824         estimate D2E/DX2                !
 ! D191  D(97,21,23,1)        -107.7535         estimate D2E/DX2                !
 ! D192  D(97,21,23,25)         90.4477         estimate D2E/DX2                !
 ! D193  D(19,21,57,59)        143.0945         estimate D2E/DX2                !
 ! D194  D(19,21,57,83)        -27.3025         estimate D2E/DX2                !
 ! D195  D(23,21,57,59)         31.9127         estimate D2E/DX2                !
 ! D196  D(23,21,57,83)       -138.4844         estimate D2E/DX2                !
 ! D197  D(97,21,57,59)        -91.7833         estimate D2E/DX2                !
 ! D198  D(97,21,57,83)         97.8197         estimate D2E/DX2                !
 ! D199  D(20,22,24,26)        -16.1547         estimate D2E/DX2                !
 ! D200  D(20,22,24,62)        137.9175         estimate D2E/DX2                !
 ! D201  D(58,22,24,26)       -132.9386         estimate D2E/DX2                !
 ! D202  D(58,22,24,62)         21.1335         estimate D2E/DX2                !
 ! D203  D(100,22,24,26)       109.1343         estimate D2E/DX2                !
 ! D204  D(100,22,24,62)       -96.7936         estimate D2E/DX2                !
 ! D205  D(20,22,58,60)       -133.4314         estimate D2E/DX2                !
 ! D206  D(20,22,58,84)         28.7874         estimate D2E/DX2                !
 ! D207  D(24,22,58,60)        -13.0247         estimate D2E/DX2                !
 ! D208  D(24,22,58,84)        149.1942         estimate D2E/DX2                !
 ! D209  D(100,22,58,60)       104.9048         estimate D2E/DX2                !
 ! D210  D(100,22,58,84)       -92.8763         estimate D2E/DX2                !
 ! D211  D(1,23,25,27)          -0.5506         estimate D2E/DX2                !
 ! D212  D(1,23,25,61)        -156.3637         estimate D2E/DX2                !
 ! D213  D(21,23,25,27)        159.4929         estimate D2E/DX2                !
 ! D214  D(21,23,25,61)          3.6797         estimate D2E/DX2                !
 ! D215  D(22,24,26,3)           7.5677         estimate D2E/DX2                !
 ! D216  D(22,24,26,28)        159.0657         estimate D2E/DX2                !
 ! D217  D(62,24,26,3)        -144.2184         estimate D2E/DX2                !
 ! D218  D(62,24,26,28)          7.2796         estimate D2E/DX2                !
 ! D219  D(22,24,62,60)        -20.6115         estimate D2E/DX2                !
 ! D220  D(22,24,62,64)       -134.9874         estimate D2E/DX2                !
 ! D221  D(22,24,62,94)         99.6205         estimate D2E/DX2                !
 ! D222  D(26,24,62,60)        133.8823         estimate D2E/DX2                !
 ! D223  D(26,24,62,64)         19.5065         estimate D2E/DX2                !
 ! D224  D(26,24,62,94)       -105.8856         estimate D2E/DX2                !
 ! D225  D(23,25,27,29)        -23.5514         estimate D2E/DX2                !
 ! D226  D(23,25,27,65)       -137.6744         estimate D2E/DX2                !
 ! D227  D(23,25,27,93)        101.9048         estimate D2E/DX2                !
 ! D228  D(61,25,27,29)        134.4974         estimate D2E/DX2                !
 ! D229  D(61,25,27,65)         20.3744         estimate D2E/DX2                !
 ! D230  D(61,25,27,93)       -100.0463         estimate D2E/DX2                !
 ! D231  D(23,25,61,59)         22.8112         estimate D2E/DX2                !
 ! D232  D(23,25,61,63)        137.2644         estimate D2E/DX2                !
 ! D233  D(23,25,61,96)       -102.528          estimate D2E/DX2                !
 ! D234  D(27,25,61,59)       -135.2981         estimate D2E/DX2                !
 ! D235  D(27,25,61,63)        -20.845          estimate D2E/DX2                !
 ! D236  D(27,25,61,96)         99.3626         estimate D2E/DX2                !
 ! D237  D(3,26,28,30)           6.3529         estimate D2E/DX2                !
 ! D238  D(3,26,28,66)         121.7232         estimate D2E/DX2                !
 ! D239  D(3,26,28,85)        -115.516          estimate D2E/DX2                !
 ! D240  D(24,26,28,30)       -147.7713         estimate D2E/DX2                !
[...]
 Alpha virt. eigenvalues --    1.70979   1.71157   1.71433   1.71595   1.71720
 Alpha virt. eigenvalues --    1.72018   1.72219   1.72398   1.72444   1.72922
 Alpha virt. eigenvalues --    1.73043   1.73234   1.73416   1.73460   1.73957
 Alpha virt. eigenvalues --    1.74254   1.74367   1.74610   1.74876   1.75269
 Alpha virt. eigenvalues --    1.75337   1.75506   1.75591   1.75984   1.76123
 Alpha virt. eigenvalues --    1.76157   1.76412   1.76537   1.76807   1.77151
 Alpha virt. eigenvalues --    1.77338   1.77567   1.77769   1.78003   1.78095
 Alpha virt. eigenvalues --    1.78267   1.78578   1.78742   1.78977   1.79188
 Alpha virt. eigenvalues --    1.79402   1.79658   1.80075   1.80166   1.80423
 Alpha virt. eigenvalues --    1.80865   1.80915   1.81061   1.81245   1.81558
 Alpha virt. eigenvalues --    1.81707   1.81959   1.82013   1.82596   1.82707
 Alpha virt. eigenvalues --    1.83027   1.83138   1.83640   1.83816   1.84012
 Alpha virt. eigenvalues --    1.84197   1.84565   1.85147   1.85335   1.85365
 Alpha virt. eigenvalues --    1.85836   1.86104   1.86245   1.86623   1.87011
 Alpha virt. eigenvalues --    1.87315   1.87361   1.87744   1.87917   1.88388
 Alpha virt. eigenvalues --    1.88669   1.89121   1.89224   1.89347   1.89841
 Alpha virt. eigenvalues --    1.90224   1.90578   1.90951   1.91108   1.91764
 Alpha virt. eigenvalues --    1.92101   1.92296   1.92601   1.92905   1.93132
 Alpha virt. eigenvalues --    1.93714   1.94067   1.94395   1.94505   1.95092
 Alpha virt. eigenvalues --    1.95578   1.96051   1.96499   1.96610   1.96836
 Alpha virt. eigenvalues --    1.97062   1.97292   1.97765   1.98006   1.98341
 Alpha virt. eigenvalues --    1.98747   1.99357   1.99964   2.00182   2.00321
 Alpha virt. eigenvalues --    2.00697   2.00833   2.01286   2.01722   2.01901
 Alpha virt. eigenvalues --    2.02342   2.02742   2.02913   2.03315   2.03475
 Alpha virt. eigenvalues --    2.03928   2.04347   2.04696   2.04995   2.05413
 Alpha virt. eigenvalues --    2.05905   2.06098   2.07028   2.07389   2.07624
 Alpha virt. eigenvalues --    2.08237   2.08368   2.08560   2.08887   2.09068
 Alpha virt. eigenvalues --    2.09674   2.10214   2.10816   2.10915   2.11258
 Alpha virt. eigenvalues --    2.11901   2.12239   2.12462   2.12935   2.13256
 Alpha virt. eigenvalues --    2.13721   2.13962   2.14420   2.14743   2.14824
 Alpha virt. eigenvalues --    2.15111   2.15754   2.16099   2.16325   2.16933
 Alpha virt. eigenvalues --    2.17460   2.17910   2.18300   2.18477   2.18763
 Alpha virt. eigenvalues --    2.19009   2.19588   2.19818   2.20045   2.20319
 Alpha virt. eigenvalues --    2.20707   2.21032   2.21228   2.21789   2.22101
 Alpha virt. eigenvalues --    2.22779   2.23305   2.23609   2.23821   2.23907
 Alpha virt. eigenvalues --    2.24529   2.24995   2.25142   2.25737   2.25902
 Alpha virt. eigenvalues --    2.26180   2.26586   2.27008   2.27444   2.27939
 Alpha virt. eigenvalues --    2.28450   2.29144   2.29527   2.30137   2.30513
 Alpha virt. eigenvalues --    2.30700   2.31289   2.31519   2.32302   2.32711
 Alpha virt. eigenvalues --    2.33025   2.34077   2.34288   2.34600   2.35051
 Alpha virt. eigenvalues --    2.35473   2.36494   2.36902   2.37316   2.37668
 Alpha virt. eigenvalues --    2.38202   2.38469   2.38864   2.39023   2.39742
 Alpha virt. eigenvalues --    2.40599   2.41004   2.41096   2.41946   2.42247
 Alpha virt. eigenvalues --    2.42490   2.42975   2.43639   2.44326   2.44532
 Alpha virt. eigenvalues --    2.45039   2.45539   2.46000   2.46433   2.46809
 Alpha virt. eigenvalues --    2.47421   2.48071   2.48557   2.48837   2.49399
 Alpha virt. eigenvalues --    2.50095   2.50169   2.50777   2.50885   2.50989
 Alpha virt. eigenvalues --    2.51299   2.51712   2.51944   2.52154   2.52637
 Alpha virt. eigenvalues --    2.53304   2.53681   2.53938   2.54211   2.54701
 Alpha virt. eigenvalues --    2.55437   2.55567   2.55859   2.56205   2.56620
 Alpha virt. eigenvalues --    2.56877   2.57411   2.57678   2.58125   2.58408
 Alpha virt. eigenvalues --    2.58786   2.59496   2.59697   2.59797   2.60222
 Alpha virt. eigenvalues --    2.60528   2.60591   2.60872   2.61454   2.61887
 Alpha virt. eigenvalues --    2.62100   2.62665   2.63072   2.63279   2.63731
 Alpha virt. eigenvalues --    2.64048   2.64593   2.64848   2.65301   2.65690
 Alpha virt. eigenvalues --    2.65931   2.66042   2.66326   2.66648   2.67006
 Alpha virt. eigenvalues --    2.67139   2.67567   2.67876   2.68116   2.68832
 Alpha virt. eigenvalues --    2.69104   2.69595   2.69834   2.70308   2.70684
 Alpha virt. eigenvalues --    2.70939   2.71322   2.71717   2.72146   2.72504
 Alpha virt. eigenvalues --    2.72785   2.73057   2.73503   2.73816   2.74304
 Alpha virt. eigenvalues --    2.74507   2.74676   2.74925   2.75516   2.76450
 Alpha virt. eigenvalues --    2.76802   2.77099   2.77692   2.78416   2.78867
 Alpha virt. eigenvalues --    2.79058   2.79541   2.79910   2.80206   2.80517
 Alpha virt. eigenvalues --    2.81167   2.81535   2.82261   2.82693   2.83131
 Alpha virt. eigenvalues --    2.83469   2.83968   2.84474   2.84638   2.84850
 Alpha virt. eigenvalues --    2.85180   2.85925   2.86340   2.86797   2.86899
 Alpha virt. eigenvalues --    2.88078   2.88800   2.89419   2.89869   2.90142
 Alpha virt. eigenvalues --    2.90568   2.90753   2.91804   2.92272   2.93298
 Alpha virt. eigenvalues --    2.94385   2.94683   2.95261   2.96367   2.97339
 Alpha virt. eigenvalues --    2.98862   2.99447   3.00906   3.02024   3.02448
 Alpha virt. eigenvalues --    3.03684   3.03915   3.05811   3.07941   3.09063
 Alpha virt. eigenvalues --    3.09746   3.09890   3.12136   3.12853   3.13323
 Alpha virt. eigenvalues --    3.14346   3.15265   3.15959   3.16865   3.18874
 Alpha virt. eigenvalues --    3.19470   3.20114   3.22393   3.22604   3.23356
 Alpha virt. eigenvalues --    3.26750   3.27092   3.28675   3.30580   3.33608
 Alpha virt. eigenvalues --    3.37206   3.39438   3.39991   3.40787   3.42480
 Alpha virt. eigenvalues --    3.44295   3.47003   3.47724   3.49549   4.00710
 Alpha virt. eigenvalues --    4.01305   4.02494   4.02781   4.04123   4.04597
 Alpha virt. eigenvalues --    4.05209   4.06468   4.07548   4.08024   4.08295
 Alpha virt. eigenvalues --    4.09059   4.09518   4.10150   4.11286   4.12285
 Alpha virt. eigenvalues --    4.12609   4.13446   4.13950   4.14594   4.14846
 Alpha virt. eigenvalues --    4.16038   4.17306   4.17752   4.18148   4.19107
 Alpha virt. eigenvalues --    4.19528   4.20183   4.20579   4.21179   4.21484
 Alpha virt. eigenvalues --    4.22277   4.23002   4.23727   4.24481   4.24900
 Alpha virt. eigenvalues --    4.25297   4.25949   4.26075   4.26753   4.27200
 Alpha virt. eigenvalues --    4.27583   4.28041   4.28187   4.28379   4.28808
 Alpha virt. eigenvalues --    4.29181   4.29525   4.30309   4.30800   4.31764
 Alpha virt. eigenvalues --    4.32162   4.33967   4.34811   4.35825   4.36802
 Alpha virt. eigenvalues --    4.37244   4.37887   4.38427   4.39224   4.39874
 Alpha virt. eigenvalues --    4.40634   4.41059   4.41367   4.41778   4.42864
 Alpha virt. eigenvalues --    4.43023   4.43714   4.44453   4.45703   4.47533
 Alpha virt. eigenvalues --    4.49291   4.49709   4.49861   4.51875   4.52956
 Alpha virt. eigenvalues --    4.53417   4.54638   4.55528   4.58550   4.59473
 Alpha virt. eigenvalues --    4.60979   4.61628   4.63463   4.64137   4.66374
 Alpha virt. eigenvalues --    4.68399   4.69721   4.73658   4.77134   4.77454
 Alpha virt. eigenvalues --    4.80182   4.81682   4.82443   4.84642   4.88444
 Alpha virt. eigenvalues --    4.90419   4.94355   4.95792   4.97579   5.00579
 Alpha virt. eigenvalues --    5.07172   5.09220   5.19300
          Condensed to atoms (all electrons):
 Mulliken charges:
               1
     1  C   -0.359839
     2  C   -0.391790
     3  C   -0.014111
     4  C   -0.394799
     5  C    0.097446
     6  C    0.085955
     7  C    0.017672
     8  C    0.082916
     9  C    0.061652
    10  C    0.130410
    11  C    0.130980
    12  C    0.043800
    13  C   -0.011270
    14  C    0.006506
    15  C    0.037401
    16  C    0.015467
    17  C    0.100112
    18  C    0.072324
    19  C    0.126741
    20  C    0.121065
    21  C   -0.379496
    22  C   -0.365038
    23  C    0.178770
    24  C    0.159630
    25  C    0.188778
    26  C    0.112879
    27  C   -0.380622
    28  C   -0.390350
    29  C    0.148127
    30  C    0.089755
    31  C    0.128615
    32  C    0.133116
    33  C    0.065508
    34  C    0.060908
    35  C    0.054517
    36  C    0.092923
    37  C    0.041487
    38  C    0.074173
    39  C    0.126971
    40  C    0.118621
    41  C    0.109765
    42  C    0.159027
    43  C    0.085391
    44  C    0.148973
    45  C    0.148180
    46  C    0.083155
    47  C    0.118983
    48  C    0.125225
    49  C   -0.377308
    50  C   -0.375270
    51  C    0.180349
    52  C    0.184984
    53  C    0.116446
    54  C    0.112934
    55  C   -0.374702
    56  C   -0.380049
    57  C    0.122547
    58  C    0.118186
    59  C    0.143654
    60  C    0.116050
    61  C   -0.383395
    62  C   -0.374334
    63  C    0.113701
    64  C    0.142856
    65  C    0.120843
    66  C    0.128088
    67  C    0.138763
    68  C    0.120240
    69  C   -0.376376
    70  C   -0.368754
    71  C    0.172112
    72  C    0.175570
    73  C   -0.363329
    74  C   -0.327369
    75  C    0.142822
    76  C    0.171146
    77  C    0.010256
    78  C   -0.366913
    79  C   -0.360064
    80  C   -0.371026
    81  C    0.113012
    82  C    0.160155
    83  C    0.125601
    84  C    0.145238
    85  Cl   0.033943
    86  Cl   0.035701
    87  Cl   0.028195
    88  Cl   0.038306
    89  Cl   0.030616
    90  Cl   0.033158
    91  Cl   0.038010
    92  Cl   0.030617
    93  Cl   0.038910
    94  Cl   0.031980
    95  Cl   0.013520
    96  Cl   0.038195
    97  Cl   0.032224
    98  Cl   0.025873
    99  Cl   0.033851
   100  Cl   0.010135
   101  Cl   0.004418
   102  Cl   0.037548
   103  Cl   0.023476
   104  Cl  -0.031946
 Sum of Mulliken charges =  -0.00000
 Mulliken charges with hydrogens summed into heavy atoms:
               1
     1  C   -0.359839
     2  C   -0.391790
     3  C   -0.014111
     4  C   -0.394799
     5  C    0.097446
     6  C    0.085955
     7  C    0.017672
     8  C    0.082916
     9  C    0.061652
    10  C    0.130410
    11  C    0.130980
    12  C    0.043800
    13  C   -0.011270
    14  C    0.006506
    15  C    0.037401
    16  C    0.015467
    17  C    0.100112
    18  C    0.072324
    19  C    0.126741
    20  C    0.121065
    21  C   -0.379496
    22  C   -0.365038
    23  C    0.178770
    24  C    0.159630
    25  C    0.188778
    26  C    0.112879
    27  C   -0.380622
    28  C   -0.390350
    29  C    0.148127
    30  C    0.089755
    31  C    0.128615
    32  C    0.133116
    33  C    0.065508
    34  C    0.060908
    35  C    0.054517
    36  C    0.092923
    37  C    0.041487
    38  C    0.074173
    39  C    0.126971
    40  C    0.118621
    41  C    0.109765
    42  C    0.159027
    43  C    0.085391
    44  C    0.148973
    45  C    0.148180
    46  C    0.083155
    47  C    0.118983
    48  C    0.125225
    49  C   -0.377308
    50  C   -0.375270
    51  C    0.180349
    52  C    0.184984
    53  C    0.116446
    54  C    0.112934
    55  C   -0.374702
    56  C   -0.380049
    57  C    0.122547
    58  C    0.118186
    59  C    0.143654
    60  C    0.116050
    61  C   -0.383395
    62  C   -0.374334
    63  C    0.113701
    64  C    0.142856
    65  C    0.120843
    66  C    0.128088
    67  C    0.138763
    68  C    0.120240
    69  C   -0.376376
    70  C   -0.368754
    71  C    0.172112
    72  C    0.175570
    73  C   -0.363329
    74  C   -0.327369
    75  C    0.142822
    76  C    0.171146
    77  C    0.010256
    78  C   -0.366913
    79  C   -0.360064
    80  C   -0.371026
    81  C    0.113012
    82  C    0.160155
    83  C    0.125601
    84  C    0.145238
    85  Cl   0.033943
    86  Cl   0.035701
    87  Cl   0.028195
    88  Cl   0.038306
    89  Cl   0.030616
    90  Cl   0.033158
    91  Cl   0.038010
    92  Cl   0.030617
    93  Cl   0.038910
    94  Cl   0.031980
    95  Cl   0.013520
    96  Cl   0.038195
    97  Cl   0.032224
    98  Cl   0.025873
    99  Cl   0.033851
   100  Cl   0.010135
   101  Cl   0.004418
   102  Cl   0.037548
   103  Cl   0.023476
   104  Cl  -0.031946
 Electronic spatial extent (au):  <R**2>=          82398.2349
 Charge=             -0.0000 electrons
 Dipole moment (field-independent basis, Debye):
    X=             -0.6062    Y=              1.3517    Z=             -0.8045  Tot=              1.6857
 Quadrupole moment (field-independent basis, Debye-Ang):
   XX=           -771.2894   YY=           -764.5241   ZZ=           -725.4610
   XY=             -1.3751   XZ=             -2.3606   YZ=             -3.1784
 Traceless Quadrupole moment (field-independent basis, Debye-Ang):
   XX=            -17.5312   YY=            -10.7660   ZZ=             28.2972
   XY=             -1.3751   XZ=             -2.3606   YZ=             -3.1784
 Octapole moment (field-independent basis, Debye-Ang**2):
  XXX=            -84.0443  YYY=            -68.1218  ZZZ=            -20.0183  XYY=             -0.4335
  XXY=            -34.0321  XXZ=             26.7215  XZZ=              9.5786  YZZ=             50.4806
  YYZ=            -10.3823  XYZ=             12.8685
 Hexadecapole moment (field-independent basis, Debye-Ang**3):
 XXXX=         -44564.2100 YYYY=         -40224.9229 ZZZZ=         -30175.7118 XXXY=           -317.5654
 XXXZ=             67.0343 YYYX=           -110.8644 YYYZ=            -38.1926 ZZZX=             -6.3166
 ZZZY=            -79.3597 XXYY=         -13945.1794 XXZZ=         -12367.3321 YYZZ=         -11867.5277
 XXYZ=             39.7772 YYXZ=             42.2795 ZZXY=              7.7803
 N-N= 3.222732869551D+04 E-N=-9.371315206223D+04  KE= 1.234698088445D+04
 Leave Link  601 at Tue Jun 28 18:29:15 2022, MaxMem=  1342177280 cpu:              19.7 elap:               1.1
 (Enter /home/mkliu/g16/l9999.exe)
 1\1\GINC-NODE04\FOpt\RB3LYP\6-31G(d,p)\C84Cl20\MKLIU\28-Jun-2022\0\\#P
  opt b3lyp/6-31G(d, p) empiricaldispersion=GD3\\force\\0,1\C,8.4190060
 183,18.6524380469,10.8150484923\C,12.581620998,19.9856827314,8.8763908
 884\C,8.2756034565,26.8395070451,10.5271590632\C,12.5045272726,25.7526
 490403,8.8993740841\C,8.0079746866,19.1750039555,9.4388191728\C,12.045
 3214987,19.5166530363,10.2058360509\C,7.9703495918,26.7735481608,9.143
 0897474\C,11.8801476048,26.1646275748,10.2140133479\C,8.9767417716,19.
 2747439108,8.3740375809\C,12.3038086023,20.1701570848,11.3914977743\C,
 12.1170516832,25.4925023939,11.3898427294\C,8.9761932761,26.5851550605
 ,8.1419741589\C,10.3587375552,19.089684383,8.6668115717\C,10.309096325
 6,26.6538818254,8.5873746828\C,10.8039873142,18.8790809167,10.02733110
 51\C,10.6280934097,26.753943967,10.0042161651\C,9.8896377179,18.801826
 3771,11.0665373824\C,9.6179552949,26.7292988437,10.995695864\C,10.1635
 52855,19.4542665726,12.2710337685\C,9.884468315,26.0499276139,12.22347
 91261\C,8.8988403453,19.8522680357,12.9794481076\C,8.7420725848,25.599
 6233932,13.1065994821\C,7.852914314,19.5080079644,11.9306798435\C,7.40
 25370174,25.5822961929,12.4089446453\C,6.7330432125,20.2023927575,11.7
 848318093\C,7.1871026968,26.2360539228,11.2555868235\C,5.928090692,20.
 1776917158,10.5101251255\C,6.0477772072,25.9021029515,10.3006358896\C,
 6.7743466354,19.8043624711,9.308155957\C,6.6790678334,26.2254237005,8.
 9710605174\C,6.4388839581,20.4109904192,8.0828263392\C,6.3860264314,25
 .5386453417,7.8224578199\C,7.3313122974,20.4403343832,7.0255083535\C,7
 .3147739974,25.4072116941,6.7759681253\C,8.6612670976,19.9872900492,7.
 1731189956\C,8.6803845022,25.82825329,6.9572752893\C,9.7231786176,20.6
 346560361,6.4029418714\C,9.7512087557,25.1545666299,6.2958301846\C,11.
 069453001,20.5697921486,6.8628903651\C,12.7274695729,22.1845612124,7.7
 450135861\C,12.716542438,23.5751981341,7.7443134833\C,11.0645916846,25
 .1915427583,6.8027593382\C,11.3632367628,19.769940443,7.9617828466\C,1
 2.9173857583,21.4653804387,8.9240812935\C,12.8777757451,24.2850681779,
 8.9312283995\C,11.3410565814,25.9785266689,7.9271753004\C,13.130301478
 6,22.1666165062,10.1301647878\C,13.102173128,23.5799071489,10.13482499
 76\C,13.1631545046,21.405476891,11.4602895267\C,13.0713700623,24.33211
 56346,11.469404995\C,12.4644712174,22.1819887834,12.5575862986\C,12.42
 82100973,23.5072342536,12.5594296036\C,11.3550276336,20.1417459683,12.
 4311341914\C,11.1235414027,25.4421360348,12.391475896\C,11.4678584937,
 21.3377667926,13.3278800899\C,11.3843128839,24.2791589513,13.330741445
 \C,8.9034192832,21.3484695024,13.2882316346\C,8.9015357666,24.13344417
 76,13.4498165832\C,7.6911730746,22.0551234962,13.1714253745\C,7.705052
 1225,23.4432057361,13.2714500405\C,6.4301817013,21.4216323217,12.61376
 58543\C,6.600777333,24.362667013,12.7702024612\C,5.8316941344,22.33569
 31362,11.5579869157\C,5.9356989558,23.7260493452,11.5568914613\C,5.537
 1479927,21.6400527368,10.3902998105\C,5.7009848008,24.4187055457,10.35
 46877293\C,5.3180664059,22.3093794177,9.1837460602\C,5.3832044784,23.7
 121452225,9.1623800272\C,5.3573201054,21.4737643001,7.9182877553\C,5.3
 520112446,24.439139074,7.8092438282\C,5.8795937627,22.2480410444,6.733
 6118579\C,5.8748786563,23.5792979699,6.673127781\C,6.8697598612,21.407
 5121562,5.9643962337\C,6.8360518391,24.3836804054,5.7990291843\C,8.023
 2048802,22.2231311983,5.5063399982\C,7.9877113493,23.5819976996,5.3672
 904428\C,9.3563102143,21.7386488819,5.5955838461\C,9.3972276754,24.124
 6945806,5.2332720899\C,12.0891558698,21.6296913954,6.4853123078\C,12.1
 062142477,24.1285992652,6.4580438312\C,10.2332826738,22.8713005052,5.4
 292378279\C,11.4867119633,22.8768027044,5.9014058827\C,10.122287275,22
 .052505269,13.459005722\C,10.1185430559,23.4592290454,13.519413912\Cl,
 4.5647361816,26.9275536372,10.6573612389\Cl,3.6503964254,25.0551446493
 ,7.4845454988\Cl,13.3965797786,24.8433035505,5.3495969978\Cl,13.961288
 3562,26.7908243744,8.4831828273\Cl,14.7777766893,24.8712285964,11.9194
 505763\Cl,14.9090410162,21.0057537205,11.8929902682\Cl,14.0423761104,1
 8.998140057,8.3665659446\Cl,3.6973903153,20.7543495289,7.5616625226\Cl
 ,4.4736307807,19.0617352588,10.6706869013\Cl,5.3422058403,24.717315404
 9,14.0723624011\Cl,7.8940981693,16.8784240046,10.9639334341\Cl,5.23748
 88992,21.0413206666,13.9635066671\Cl,8.644697254,18.8983410901,14.5355
 520128\Cl,12.0981709096,20.8929890022,15.0077331203\Cl,12.0341476663,2
 4.8551883374,14.9581942314\Cl,8.6737753444,26.6544129306,14.6403687369
 \Cl,13.3614243968,20.9078952806,5.3255690282\Cl,9.6687497152,24.873005
 2331,3.5707815645\Cl,6.1177347856,20.5138326818,4.532341432\Cl,5.91722
 96299,25.1754976469,4.3451654969\\Version=ES64L-G16RevA.03\State=1-A\H
 F=-12404.9834694\RMSD=9.251e-09\RMSF=5.599e-05\Dipole=0.5004377,0.3880
 979,-0.1969969\Quadrupole=-10.0477003,20.9102118,-10.8625116,-0.899170
 9,-2.7714417,3.3774382\PG=C01 [X(C84Cl20)]\\@


 TERENCE, THIS IS STUPID STUFF:
 YOU EAT YOUR VICTUALS FAST ENOUGH;
 THERE CAN'T BE MUCH AMISS, 'TIS CLEAR
 TO SEE THE RATE YOU DRINK YOUR BEER.
 BUT OH, GOOD LORD, THE VERSE YOU MAKE,
 IT GIVES A CHAP THE BELLY-ACHE.
 THE COW, THE OLD COW, SHE IS DEAD;
 IT SLEEPS WELL, THE HORNED HEAD:
 WE POOR LADS, 'TIS OUR TURN NOW
 TO HEAR SUCH TUNES AS KILLED THE COW.
 PRETTY FRIENDSHIP 'TIS TO RHYME
 YOUR FRIENDS TO DEATH BEFORE THEIR TIME.
 MOPING, MELANCHOLY MAD:
 COME PIPE A TUNE TO DANCE TO, LAD.

     -- A. E. HOUSMAN
 Job cpu time:       1 days 23 hours 55 minutes 42.8 seconds.
 Elapsed time:       0 days  1 hours 59 minutes 59.7 seconds.
 File lengths (MBytes):  RWF=   1649 Int=      0 D2E=      0 Chk=    205 Scr=      1
 Normal termination of Gaussian 16 at Tue Jun 28 18:29:17 2022.
