 Entering Gaussian System, Link 0=g16
 Input=20_addons_C84_11_Cl22_rank_1.gjf
 Output=20_addons_C84_11_Cl22_rank_1.log
 Initial command:
 /home/mkliu/g16/l1.exe "/data/scratch/Gau-214396.inp" -scrdir="/data/scratch/"
 Entering Link 1 = /home/mkliu/g16/l1.exe PID=    214397.
  
 Copyright (c) 1988,1990,1992,1993,1995,1998,2003,2009,2016,
            Gaussian, Inc.  All Rights Reserved.
  
 This is part of the Gaussian(R) 16 program.  It is based on
 the Gaussian(R) 09 system (copyright 2009, Gaussian, Inc.),
 the Gaussian(R) 03 system (copyright 2003, Gaussian, Inc.),
 the Gaussian(R) 98 system (copyright 1998, Gaussian, Inc.),
 the Gaussian(R) 94 system (copyright 1995, Gaussian, Inc.),
 the Gaussian 92(TM) system (copyright 1992, Gaussian, Inc.),
 the Gaussian 90(TM) system (copyright 1990, Gaussian, Inc.),
 the Gaussian 88(TM) system (copyright 1988, Gaussian, Inc.),
 the Gaussian 86(TM) system (copyright 1986, Carnegie Mellon
 University), and the Gaussian 82(TM) system (copyright 1983,
 Carnegie Mellon University). Gaussian is a federally registered
 trademark of Gaussian, Inc.
  
 This software contains proprietary and confidential information,
 including trade secrets, belonging to Gaussian, Inc.
  
 This software is provided under written license and may be
 used, copied, transmitted, or stored only in accord with that
 written license.
  
 The following legend is applicable only to US Government
 contracts under FAR:
  
                    RESTRICTED RIGHTS LEGEND
  
 Use, reproduction and disclosure by the US Government is
 subject to restrictions as set forth in subparagraphs (a)
 and (c) of the Commercial Computer Software - Restricted
 Rights clause in FAR 52.227-19.
  
 Gaussian, Inc.
 340 Quinnipiac St., Bldg. 40, Wallingford CT 06492
  
  
 ---------------------------------------------------------------
 Warning -- This program may not be used in any manner that
 competes with the business of Gaussian, Inc. or will provide
 assistance to any competitor of Gaussian, Inc.  The licensee
 of this program is prohibited from giving any competitor of
 Gaussian, Inc. access to this program.  By using this program,
 the user acknowledges that Gaussian, Inc. is engaged in the
 business of creating and licensing software in the field of
 computational chemistry and represents and warrants to the
 licensee that it is not a competitor of Gaussian, Inc. and that
 it will not use this program in any manner prohibited above.
 ---------------------------------------------------------------
  

 Cite this work as:
 Gaussian 16, Revision A.03,
 M. J. Frisch, G. W. Trucks, H. B. Schlegel, G. E. Scuseria, 
 M. A. Robb, J. R. Cheeseman, G. Scalmani, V. Barone, 
 G. A. Petersson, H. Nakatsuji, X. Li, M. Caricato, A. V. Marenich, 
 J. Bloino, B. G. Janesko, R. Gomperts, B. Mennucci, H. P. Hratchian, 
 J. V. Ortiz, A. F. Izmaylov, J. L. Sonnenberg, D. Williams-Young, 
 F. Ding, F. Lipparini, F. Egidi, J. Goings, B. Peng, A. Petrone, 
 T. Henderson, D. Ranasinghe, V. G. Zakrzewski, J. Gao, N. Rega, 
 G. Zheng, W. Liang, M. Hada, M. Ehara, K. Toyota, R. Fukuda, 
 J. Hasegawa, M. Ishida, T. Nakajima, Y. Honda, O. Kitao, H. Nakai, 
 T. Vreven, K. Throssell, J. A. Montgomery, Jr., J. E. Peralta, 
 F. Ogliaro, M. J. Bearpark, J. J. Heyd, E. N. Brothers, K. N. Kudin, 
 V. N. Staroverov, T. A. Keith, R. Kobayashi, J. Normand, 
 K. Raghavachari, A. P. Rendell, J. C. Burant, S. S. Iyengar, 
 J. Tomasi, M. Cossi, J. M. Millam, M. Klene, C. Adamo, R. Cammi, 
 J. W. Ochterski, R. L. Martin, K. Morokuma, O. Farkas, 
 J. B. Foresman, and D. J. Fox, Gaussian, Inc., Wallingford CT, 2016.
 
 ******************************************
 Gaussian 16:  ES64L-G16RevA.03 25-Dec-2016
                30-Jun-2022 
 ******************************************
 %mem=10GB
 %chk=20_addons_C84_11_Cl22_rank_1.chk
 %nprocshared=24
 Will use up to   24 processors via shared memory.
 ------------------------------------------------
 #P opt b3lyp/6-31G(d, p) empiricaldispersion=GD3
 ------------------------------------------------
 1/18=20,19=15,26=3,38=1/1,3;
 2/9=110,12=2,17=6,18=5,40=1/2;
 3/5=1,6=6,7=101,11=2,25=1,30=1,71=1,74=-5,124=31/1,2,3;
 4//1;
 5/5=2,38=5/2;
 6/7=2,8=2,9=2,10=2,28=1/1;
 7//1,2,3,16;
 1/18=20,19=15,26=3/3(2);
 2/9=110/2;
 99//99;
 2/9=110/2;
 3/5=1,6=6,7=101,11=2,25=1,30=1,71=1,74=-5,124=31/1,2,3;
 4/5=5,16=3,69=1/1;
 5/5=2,38=5/2;
 7//1,2,3,16;
 1/18=20,19=15,26=3/3(-5);
 2/9=110/2;
 6/7=2,8=2,9=2,10=2,19=2,28=1/1;
 99/9=1/99;
 Leave Link    1 at Thu Jun 30 07:26:39 2022, MaxMem=  1342177280 cpu:               0.7 elap:               0.1
 (Enter /home/mkliu/g16/l101.exe)
 -----
 force
 -----
 Symbolic Z-matrix:
 Charge =  0 Multiplicity = 1
 C                     8.42844   18.66313   10.79827 
 C                     12.56147   19.99779   8.87209 
 C                     8.22353   27.10081   10.58686 
 C                     12.46435   25.73501   8.90849 
 C                     8.0268    19.18956   9.43616 
 C                     12.0429   19.52328   10.19627 
 C                     7.95743   26.79603   9.1358 
 C                     11.84815   26.1325   10.2153 
 C                     8.98362   19.29207   8.38296 
 C                     12.29803   20.1735   11.377 
 C                     12.09584   25.46497   11.38413 
 C                     8.95729   26.5937   8.16234 
 C                     10.3556   19.10542   8.66977 
 C                     10.28967   26.64643   8.6054 
 C                     10.80294   18.88256   10.02289 
 C                     10.59734   26.73139   10.01994 
 C                     9.89255   18.80195   11.05258 
 C                     9.61234   26.7155   11.00281 
 C                     10.16635   19.45227   12.25777 
 C                     9.87103   26.02541   12.19357 
 C                     8.90394   19.85754   12.94926 
 C                     8.74556   25.58161   13.0823 
 C                     7.87067   19.52345   11.90033 
 C                     7.42483   25.5599   12.36091 
 C                     6.74614   20.20707   11.75921 
 C                     7.18415   26.24022   11.25004 
 C                     5.94687   20.18476   10.48881 
 C                     6.06845   25.88983   10.29714 
 C                     6.80095   19.81936   9.30633 
 C                     6.71056   26.21778   8.98804 
 C                     6.46534   20.41758   8.08683 
 C                     6.39091   25.54798   7.82483 
 C                     7.34846   20.43701   7.02714 
 C                     7.33078   25.42273   6.80214 
 C                     8.67562   19.99642   7.18181 
 C                     8.6763    25.84783   6.97651 
 C                     9.71891   20.63069   6.42106 
 C                     9.72871   25.14329   6.32234 
 C                     11.04231   20.58738   6.87795 
 C                     12.66059   22.18653   7.77177 
 C                     12.6469   23.57397   7.77245 
 C                     11.02447   25.16681   6.83419 
 C                     11.34887   19.79292   7.97879 
 C                     12.86052   21.4715   8.93904 
 C                     12.8163   24.27465   8.9527 
 C                     11.3008   25.95137   7.95913 
 C                     13.0787   22.16784   10.13665 
 C                     13.04875   23.5685   10.14331 
 C                     13.14346   21.4082   11.44898 
 C                     13.05288   24.31655   11.46427 
 C                     12.44392   22.17454   12.53785 
 C                     12.41278   23.49728   12.54721 
 C                     11.35001   20.1371   12.41333 
 C                     11.10725   25.41411   12.37237 
 C                     11.45591   21.33385   13.30061 
 C                     11.37031   24.26394   13.30833 
 C                     8.91588   21.34535   13.22811 
 C                     8.91309   24.11716   13.38726 
 C                     7.71077   22.04718   13.10937 
 C                     7.72299   23.42708   13.20574 
 C                     6.44839   21.42407   12.58129 
 C                     6.62633   24.34265   12.72852 
 C                     5.87734   22.33476   11.52622 
 C                     5.98113   23.71532   11.52357 
 C                     5.58382   21.64113   10.36125 
 C                     5.75173   24.40906   10.33172 
 C                     5.37102   22.30862   9.1656 
 C                     5.44156   23.70795   9.15311 
 C                     5.3756    21.45617   7.92023 
 C                     5.39195   24.42636   7.8186 
 C                     5.89665   22.21642   6.73893 
 C                     5.94252   23.55286   6.72028 
 C                     6.87585   21.37991   5.96154 
 C                     7.01021   24.25482   6.03146 
 C                     8.02497   22.16241   5.45586 
 C                     7.99487   23.57924   5.37895 
 C                     9.32768   21.73137   5.58366 
 C                     9.38912   24.1265   5.25437 
 C                     12.05576   21.63633   6.50877 
 C                     12.06542   24.12713   6.49245 
 C                     10.20438   22.87607   5.4494 
 C                     11.44482   22.8809   5.93632 
 C                     10.12094   22.04323   13.39817 
 C                     10.11899   23.44238   13.45976 
 Cl                    13.90516   26.71374   8.46277 
 Cl                    13.34171   24.83686   5.43323 
 Cl                    14.73839   24.80935   11.86189 
 Cl                    14.87023   21.07077   11.84122 
 Cl                    4.56897   26.83217   10.62669 
 Cl                    5.39834   24.67237   14.00309 
 Cl                    5.28765   21.10508   13.91919 
 Cl                    3.70145   24.96123   7.50212 
 Cl                    14.01122   19.09302   8.31369 
 Cl                    13.3128   20.94077   5.40665 
 Cl                    8.61495   18.97126   14.49215 
 Cl                    12.03229   20.93594   14.96359 
 Cl                    11.95525   24.81388   14.92286 
 Cl                    8.68307   26.57949   14.5824 
 Cl                    9.67591   24.8724   3.63251 
 Cl                    7.9622    28.86267   10.93937 
 Cl                    3.7483    20.73262   7.64859 
 Cl                    4.50877   19.10843   10.60436 
 Cl                    7.87166   16.94381   10.93212 
 Cl                    6.06282   20.47533   4.60665 
 
 ITRead=  0  0  0  0  0  0  0  0  0  0  0  0  0  0  0  0  0  0  0  0
 ITRead=  0  0  0  0  0  0  0  0  0  0  0  0  0  0  0  0  0  0  0  0
 ITRead=  0  0  0  0  0  0  0  0  0  0  0  0  0  0  0  0  0  0  0  0
 ITRead=  0  0  0  0  0  0  0  0  0  0  0  0  0  0  0  0  0  0  0  0
 ITRead=  0  0  0  0  0  0  0  0  0  0  0  0  0  0  0  0  0  0  0  0
 ITRead=  0  0  0  0
 MicOpt= -1 -1 -1 -1 -1 -1 -1 -1 -1 -1 -1 -1 -1 -1 -1 -1 -1 -1 -1 -1
 MicOpt= -1 -1 -1 -1 -1 -1 -1 -1 -1 -1 -1 -1 -1 -1 -1 -1 -1 -1 -1 -1
 MicOpt= -1 -1 -1 -1 -1 -1 -1 -1 -1 -1 -1 -1 -1 -1 -1 -1 -1 -1 -1 -1
 MicOpt= -1 -1 -1 -1 -1 -1 -1 -1 -1 -1 -1 -1 -1 -1 -1 -1 -1 -1 -1 -1
 MicOpt= -1 -1 -1 -1 -1 -1 -1 -1 -1 -1 -1 -1 -1 -1 -1 -1 -1 -1 -1 -1
 MicOpt= -1 -1 -1 -1
 NAtoms=    104 NQM=      104 NQMF=       0 NMMI=      0 NMMIF=      0
                NMic=       0 NMicF=      0.
                    Isotopes and Nuclear Properties:
 (Nuclear quadrupole moments (NQMom) in fm**2, nuclear magnetic moments (NMagM)
  in nuclear magnetons)

  Atom         1           2           3           4           5           6           7           8           9          10
 IAtWgt=          12          12          12          12          12          12          12          12          12          12
 AtmWgt=  12.0000000  12.0000000  12.0000000  12.0000000  12.0000000  12.0000000  12.0000000  12.0000000  12.0000000  12.0000000
 NucSpn=           0           0           0           0           0           0           0           0           0           0
 AtZEff=  -0.0000000  -0.0000000  -0.0000000  -0.0000000  -0.0000000  -0.0000000  -0.0000000  -0.0000000  -0.0000000  -0.0000000
 NQMom=    0.0000000   0.0000000   0.0000000   0.0000000   0.0000000   0.0000000   0.0000000   0.0000000   0.0000000   0.0000000
 NMagM=    0.0000000   0.0000000   0.0000000   0.0000000   0.0000000   0.0000000   0.0000000   0.0000000   0.0000000   0.0000000
 AtZNuc=   6.0000000   6.0000000   6.0000000   6.0000000   6.0000000   6.0000000   6.0000000   6.0000000   6.0000000   6.0000000

  Atom        11          12          13          14          15          16          17          18          19          20
 IAtWgt=          12          12          12          12          12          12          12          12          12          12
 AtmWgt=  12.0000000  12.0000000  12.0000000  12.0000000  12.0000000  12.0000000  12.0000000  12.0000000  12.0000000  12.0000000
 NucSpn=           0           0           0           0           0           0           0           0           0           0
 AtZEff=  -0.0000000  -0.0000000  -0.0000000  -0.0000000  -0.0000000  -0.0000000  -0.0000000  -0.0000000  -0.0000000  -0.0000000
 NQMom=    0.0000000   0.0000000   0.0000000   0.0000000   0.0000000   0.0000000   0.0000000   0.0000000   0.0000000   0.0000000
 NMagM=    0.0000000   0.0000000   0.0000000   0.0000000   0.0000000   0.0000000   0.0000000   0.0000000   0.0000000   0.0000000
 AtZNuc=   6.0000000   6.0000000   6.0000000   6.0000000   6.0000000   6.0000000   6.0000000   6.0000000   6.0000000   6.0000000

  Atom        21          22          23          24          25          26          27          28          29          30
 IAtWgt=          12          12          12          12          12          12          12          12          12          12
 AtmWgt=  12.0000000  12.0000000  12.0000000  12.0000000  12.0000000  12.0000000  12.0000000  12.0000000  12.0000000  12.0000000
 NucSpn=           0           0           0           0           0           0           0           0           0           0
 AtZEff=  -0.0000000  -0.0000000  -0.0000000  -0.0000000  -0.0000000  -0.0000000  -0.0000000  -0.0000000  -0.0000000  -0.0000000
 NQMom=    0.0000000   0.0000000   0.0000000   0.0000000   0.0000000   0.0000000   0.0000000   0.0000000   0.0000000   0.0000000
 NMagM=    0.0000000   0.0000000   0.0000000   0.0000000   0.0000000   0.0000000   0.0000000   0.0000000   0.0000000   0.0000000
 AtZNuc=   6.0000000   6.0000000   6.0000000   6.0000000   6.0000000   6.0000000   6.0000000   6.0000000   6.0000000   6.0000000

  Atom        31          32          33          34          35          36          37          38          39          40
 IAtWgt=          12          12          12          12          12          12          12          12          12          12
 AtmWgt=  12.0000000  12.0000000  12.0000000  12.0000000  12.0000000  12.0000000  12.0000000  12.0000000  12.0000000  12.0000000
 NucSpn=           0           0           0           0           0           0           0           0           0           0
 AtZEff=  -0.0000000  -0.0000000  -0.0000000  -0.0000000  -0.0000000  -0.0000000  -0.0000000  -0.0000000  -0.0000000  -0.0000000
 NQMom=    0.0000000   0.0000000   0.0000000   0.0000000   0.0000000   0.0000000   0.0000000   0.0000000   0.0000000   0.0000000
 NMagM=    0.0000000   0.0000000   0.0000000   0.0000000   0.0000000   0.0000000   0.0000000   0.0000000   0.0000000   0.0000000
 AtZNuc=   6.0000000   6.0000000   6.0000000   6.0000000   6.0000000   6.0000000   6.0000000   6.0000000   6.0000000   6.0000000

  Atom        41          42          43          44          45          46          47          48          49          50
 IAtWgt=          12          12          12          12          12          12          12          12          12          12
 AtmWgt=  12.0000000  12.0000000  12.0000000  12.0000000  12.0000000  12.0000000  12.0000000  12.0000000  12.0000000  12.0000000
 NucSpn=           0           0           0           0           0           0           0           0           0           0
 AtZEff=  -0.0000000  -0.0000000  -0.0000000  -0.0000000  -0.0000000  -0.0000000  -0.0000000  -0.0000000  -0.0000000  -0.0000000
 NQMom=    0.0000000   0.0000000   0.0000000   0.0000000   0.0000000   0.0000000   0.0000000   0.0000000   0.0000000   0.0000000
 NMagM=    0.0000000   0.0000000   0.0000000   0.0000000   0.0000000   0.0000000   0.0000000   0.0000000   0.0000000   0.0000000
 AtZNuc=   6.0000000   6.0000000   6.0000000   6.0000000   6.0000000   6.0000000   6.0000000   6.0000000   6.0000000   6.0000000

  Atom        51          52          53          54          55          56          57          58          59          60
 IAtWgt=          12          12          12          12          12          12          12          12          12          12
 AtmWgt=  12.0000000  12.0000000  12.0000000  12.0000000  12.0000000  12.0000000  12.0000000  12.0000000  12.0000000  12.0000000
 NucSpn=           0           0           0           0           0           0           0           0           0           0
 AtZEff=  -0.0000000  -0.0000000  -0.0000000  -0.0000000  -0.0000000  -0.0000000  -0.0000000  -0.0000000  -0.0000000  -0.0000000
 NQMom=    0.0000000   0.0000000   0.0000000   0.0000000   0.0000000   0.0000000   0.0000000   0.0000000   0.0000000   0.0000000
 NMagM=    0.0000000   0.0000000   0.0000000   0.0000000   0.0000000   0.0000000   0.0000000   0.0000000   0.0000000   0.0000000
 AtZNuc=   6.0000000   6.0000000   6.0000000   6.0000000   6.0000000   6.0000000   6.0000000   6.0000000   6.0000000   6.0000000

  Atom        61          62          63          64          65          66          67          68          69          70
 IAtWgt=          12          12          12          12          12          12          12          12          12          12
 AtmWgt=  12.0000000  12.0000000  12.0000000  12.0000000  12.0000000  12.0000000  12.0000000  12.0000000  12.0000000  12.0000000
 NucSpn=           0           0           0           0           0           0           0           0           0           0
 AtZEff=  -0.0000000  -0.0000000  -0.0000000  -0.0000000  -0.0000000  -0.0000000  -0.0000000  -0.0000000  -0.0000000  -0.0000000
 NQMom=    0.0000000   0.0000000   0.0000000   0.0000000   0.0000000   0.0000000   0.0000000   0.0000000   0.0000000   0.0000000
 NMagM=    0.0000000   0.0000000   0.0000000   0.0000000   0.0000000   0.0000000   0.0000000   0.0000000   0.0000000   0.0000000
 AtZNuc=   6.0000000   6.0000000   6.0000000   6.0000000   6.0000000   6.0000000   6.0000000   6.0000000   6.0000000   6.0000000

  Atom        71          72          73          74          75          76          77          78          79          80
 IAtWgt=          12          12          12          12          12          12          12          12          12          12
 AtmWgt=  12.0000000  12.0000000  12.0000000  12.0000000  12.0000000  12.0000000  12.0000000  12.0000000  12.0000000  12.0000000
 NucSpn=           0           0           0           0           0           0           0           0           0           0
 AtZEff=  -0.0000000  -0.0000000  -0.0000000  -0.0000000  -0.0000000  -0.0000000  -0.0000000  -0.0000000  -0.0000000  -0.0000000
 NQMom=    0.0000000   0.0000000   0.0000000   0.0000000   0.0000000   0.0000000   0.0000000   0.0000000   0.0000000   0.0000000
 NMagM=    0.0000000   0.0000000   0.0000000   0.0000000   0.0000000   0.0000000   0.0000000   0.0000000   0.0000000   0.0000000
 AtZNuc=   6.0000000   6.0000000   6.0000000   6.0000000   6.0000000   6.0000000   6.0000000   6.0000000   6.0000000   6.0000000

  Atom        81          82          83          84          85          86          87          88          89          90
 IAtWgt=          12          12          12          12          35          35          35          35          35          35
 AtmWgt=  12.0000000  12.0000000  12.0000000  12.0000000  34.9688527  34.9688527  34.9688527  34.9688527  34.9688527  34.9688527
 NucSpn=           0           0           0           0           3           3           3           3           3           3
 AtZEff=  -0.0000000  -0.0000000  -0.0000000  -0.0000000  -0.0000000  -0.0000000  -0.0000000  -0.0000000  -0.0000000  -0.0000000
 NQMom=    0.0000000   0.0000000   0.0000000   0.0000000  -8.1650000  -8.1650000  -8.1650000  -8.1650000  -8.1650000  -8.1650000
 NMagM=    0.0000000   0.0000000   0.0000000   0.0000000   0.8218740   0.8218740   0.8218740   0.8218740   0.8218740   0.8218740
 AtZNuc=   6.0000000   6.0000000   6.0000000   6.0000000  17.0000000  17.0000000  17.0000000  17.0000000  17.0000000  17.0000000

  Atom        91          92          93          94          95          96          97          98          99         100
 IAtWgt=          35          35          35          35          35          35          35          35          35          35
 AtmWgt=  34.9688527  34.9688527  34.9688527  34.9688527  34.9688527  34.9688527  34.9688527  34.9688527  34.9688527  34.9688527
 NucSpn=           3           3           3           3           3           3           3           3           3           3
 AtZEff=  -0.0000000  -0.0000000  -0.0000000  -0.0000000  -0.0000000  -0.0000000  -0.0000000  -0.0000000  -0.0000000  -0.0000000
 NQMom=   -8.1650000  -8.1650000  -8.1650000  -8.1650000  -8.1650000  -8.1650000  -8.1650000  -8.1650000  -8.1650000  -8.1650000
 NMagM=    0.8218740   0.8218740   0.8218740   0.8218740   0.8218740   0.8218740   0.8218740   0.8218740   0.8218740   0.8218740
 AtZNuc=  17.0000000  17.0000000  17.0000000  17.0000000  17.0000000  17.0000000  17.0000000  17.0000000  17.0000000  17.0000000

  Atom       101         102         103         104
 IAtWgt=          35          35          35          35
 AtmWgt=  34.9688527  34.9688527  34.9688527  34.9688527
 NucSpn=           3           3           3           3
 AtZEff=  -0.0000000  -0.0000000  -0.0000000  -0.0000000
 NQMom=   -8.1650000  -8.1650000  -8.1650000  -8.1650000
 NMagM=    0.8218740   0.8218740   0.8218740   0.8218740
 AtZNuc=  17.0000000  17.0000000  17.0000000  17.0000000
 Leave Link  101 at Thu Jun 30 07:26:39 2022, MaxMem=  1342177280 cpu:               6.7 elap:               0.3
 (Enter /home/mkliu/g16/l103.exe)

 GradGradGradGradGradGradGradGradGradGradGradGradGradGradGradGradGradGrad
 Berny optimization.
 Initialization pass.
                           ----------------------------
                           !    Initial Parameters    !
                           ! (Angstroms and Degrees)  !
 --------------------------                            --------------------------
 ! Name  Definition              Value          Derivative Info.                !
 --------------------------------------------------------------------------------
 ! R1    R(1,5)                  1.5145         estimate D2E/DX2                !
 ! R2    R(1,17)                 1.4925         estimate D2E/DX2                !
 ! R3    R(1,23)                 1.5053         estimate D2E/DX2                !
 ! R4    R(1,103)                1.8122         estimate D2E/DX2                !
 ! R5    R(2,6)                  1.4992         estimate D2E/DX2                !
 ! R6    R(2,43)                 1.52           estimate D2E/DX2                !
 ! R7    R(2,44)                 1.5052         estimate D2E/DX2                !
 ! R8    R(2,93)                 1.7978         estimate D2E/DX2                !
 ! R9    R(3,7)                  1.5064         estimate D2E/DX2                !
 ! R10   R(3,18)                 1.5001         estimate D2E/DX2                !
 ! R11   R(3,26)                 1.5036         estimate D2E/DX2                !
 ! R12   R(3,100)                1.8157         estimate D2E/DX2                !
 ! R13   R(4,8)                  1.4985         estimate D2E/DX2                !
 ! R14   R(4,45)                 1.5028         estimate D2E/DX2                !
 ! R15   R(4,46)                 1.5172         estimate D2E/DX2                !
 ! R16   R(4,85)                 1.7979         estimate D2E/DX2                !
 ! R17   R(5,9)                  1.4266         estimate D2E/DX2                !
 ! R18   R(5,29)                 1.3843         estimate D2E/DX2                !
 ! R19   R(6,10)                 1.3719         estimate D2E/DX2                !
 ! R20   R(6,15)                 1.4064         estimate D2E/DX2                !
 ! R21   R(7,12)                 1.4101         estimate D2E/DX2                !
 ! R22   R(7,30)                 1.3824         estimate D2E/DX2                !
 ! R23   R(8,11)                 1.3686         estimate D2E/DX2                !
 ! R24   R(8,16)                 1.4005         estimate D2E/DX2                !
 ! R25   R(9,13)                 1.414          estimate D2E/DX2                !
 ! R26   R(9,35)                 1.4261         estimate D2E/DX2                !
 ! R27   R(10,49)                1.4981         estimate D2E/DX2                !
 ! R28   R(10,53)                1.405          estimate D2E/DX2                !
 ! R29   R(11,50)                1.4971         estimate D2E/DX2                !
 ! R30   R(11,54)                1.3988         estimate D2E/DX2                !
 ! R31   R(12,14)                1.4051         estimate D2E/DX2                !
 ! R32   R(12,36)                1.4288         estimate D2E/DX2                !
 ! R33   R(13,15)                1.4425         estimate D2E/DX2                !
 ! R34   R(13,43)                1.3917         estimate D2E/DX2                !
 ! R35   R(14,16)                1.4501         estimate D2E/DX2                !
 ! R36   R(14,46)                1.3868         estimate D2E/DX2                !
 ! R37   R(15,17)                1.3768         estimate D2E/DX2                !
 ! R38   R(16,18)                1.3916         estimate D2E/DX2                !
 ! R39   R(17,19)                1.3966         estimate D2E/DX2                !
 ! R40   R(18,20)                1.4004         estimate D2E/DX2                !
 ! R41   R(19,21)                1.4954         estimate D2E/DX2                !
 ! R42   R(19,53)                1.3763         estimate D2E/DX2                !
 ! R43   R(20,22)                1.5012         estimate D2E/DX2                !
 ! R44   R(20,54)                1.3906         estimate D2E/DX2                !
 ! R45   R(21,23)                1.5098         estimate D2E/DX2                !
 ! R46   R(21,57)                1.5138         estimate D2E/DX2                !
 ! R47   R(21,95)                1.8026         estimate D2E/DX2                !
 ! R48   R(22,24)                1.5051         estimate D2E/DX2                !
 ! R49   R(22,58)                1.5052         estimate D2E/DX2                !
 ! R50   R(22,98)                1.8028         estimate D2E/DX2                !
 ! R51   R(23,25)                1.3236         estimate D2E/DX2                !
 ! R52   R(24,26)                1.3247         estimate D2E/DX2                !
 ! R53   R(24,62)                1.5015         estimate D2E/DX2                !
 ! R54   R(25,27)                1.5011         estimate D2E/DX2                !
 ! R55   R(25,61)                1.4985         estimate D2E/DX2                !
 ! R56   R(26,28)                1.5085         estimate D2E/DX2                !
 ! R57   R(27,29)                1.5037         estimate D2E/DX2                !
 ! R58   R(27,65)                1.5064         estimate D2E/DX2                !
 ! R59   R(27,102)               1.8            estimate D2E/DX2                !
 ! R60   R(28,30)                1.4945         estimate D2E/DX2                !
 ! R61   R(28,66)                1.5147         estimate D2E/DX2                !
 ! R62   R(28,89)                1.8014         estimate D2E/DX2                !
 ! R63   R(29,31)                1.3992         estimate D2E/DX2                !
 ! R64   R(30,32)                1.3798         estimate D2E/DX2                !
 ! R65   R(31,33)                1.3796         estimate D2E/DX2                !
 ! R66   R(31,69)                1.5146         estimate D2E/DX2                !
 ! R67   R(32,34)                1.3946         estimate D2E/DX2                !
 ! R68   R(32,70)                1.502          estimate D2E/DX2                !
 ! R69   R(33,35)                1.4069         estimate D2E/DX2                !
 ! R70   R(33,73)                1.4993         estimate D2E/DX2                !
 ! R71   R(34,36)                1.4218         estimate D2E/DX2                !
 ! R72   R(34,74)                1.4355         estimate D2E/DX2                !
 ! R73   R(35,37)                1.4386         estimate D2E/DX2                !
 ! R74   R(36,38)                1.4254         estimate D2E/DX2                !
 ! R75   R(37,39)                1.4007         estimate D2E/DX2                !
 ! R76   R(37,77)                1.4373         estimate D2E/DX2                !
 ! R77   R(38,42)                1.3934         estimate D2E/DX2                !
 ! R78   R(38,78)                1.5132         estimate D2E/DX2                !
 ! R79   R(39,43)                1.3918         estimate D2E/DX2                !
 ! R80   R(39,79)                1.5046         estimate D2E/DX2                !
 ! R81   R(40,41)                1.3875         estimate D2E/DX2                !
 ! R82   R(40,44)                1.3834         estimate D2E/DX2                !
 ! R83   R(40,79)                1.5046         estimate D2E/DX2                !
 ! R84   R(41,45)                1.383          estimate D2E/DX2                !
 ! R85   R(41,80)                1.5108         estimate D2E/DX2                !
 ! R86   R(42,46)                1.3991         estimate D2E/DX2                !
 ! R87   R(42,80)                1.5104         estimate D2E/DX2                !
 ! R88   R(44,47)                1.4024         estimate D2E/DX2                !
 ! R89   R(45,48)                1.4037         estimate D2E/DX2                !
 ! R90   R(47,48)                1.401          estimate D2E/DX2                !
 ! R91   R(47,49)                1.5177         estimate D2E/DX2                !
 ! R92   R(48,50)                1.5181         estimate D2E/DX2                !
 ! R93   R(49,51)                1.5041         estimate D2E/DX2                !
 ! R94   R(49,88)                1.8026         estimate D2E/DX2                !
 ! R95   R(50,52)                1.5012         estimate D2E/DX2                !
 ! R96   R(50,87)                1.8005         estimate D2E/DX2                !
 ! R97   R(51,52)                1.3231         estimate D2E/DX2                !
 ! R98   R(51,55)                1.5049         estimate D2E/DX2                !
 ! R99   R(52,56)                1.5013         estimate D2E/DX2                !
 ! R100  R(53,55)                1.4935         estimate D2E/DX2                !
 ! R101  R(54,56)                1.506          estimate D2E/DX2                !
 ! R102  R(55,83)                1.5149         estimate D2E/DX2                !
 ! R103  R(55,96)                1.8045         estimate D2E/DX2                !
 ! R104  R(56,84)                1.5046         estimate D2E/DX2                !
 ! R105  R(56,97)                1.8031         estimate D2E/DX2                !
 ! R106  R(57,59)                1.3996         estimate D2E/DX2                !
 ! R107  R(57,83)                1.4029         estimate D2E/DX2                !
 ! R108  R(58,60)                1.3876         estimate D2E/DX2                !
 ! R109  R(58,84)                1.3838         estimate D2E/DX2                !
 ! R110  R(59,60)                1.3833         estimate D2E/DX2                !
 ! R111  R(59,61)                1.5036         estimate D2E/DX2                !
 ! R112  R(60,62)                1.5062         estimate D2E/DX2                !
 ! R113  R(61,63)                1.5062         estimate D2E/DX2                !
 ! R114  R(61,91)                1.7997         estimate D2E/DX2                !
 ! R115  R(62,64)                1.5039         estimate D2E/DX2                !
 ! R116  R(62,90)                1.8003         estimate D2E/DX2                !
 ! R117  R(63,64)                1.3845         estimate D2E/DX2                !
 ! R118  R(63,65)                1.3872         estimate D2E/DX2                !
 ! R119  R(64,66)                1.398          estimate D2E/DX2                !
 ! R120  R(65,67)                1.3858         estimate D2E/DX2                !
 ! R121  R(66,68)                1.406          estimate D2E/DX2                !
 ! R122  R(67,68)                1.4012         estimate D2E/DX2                !
 ! R123  R(67,69)                1.5092         estimate D2E/DX2                !
 ! R124  R(68,70)                1.5164         estimate D2E/DX2                !
 ! R125  R(69,71)                1.4983         estimate D2E/DX2                !
 ! R126  R(69,101)               1.8015         estimate D2E/DX2                !
 ! R127  R(70,72)                1.5074         estimate D2E/DX2                !
 ! R128  R(70,92)                1.8011         estimate D2E/DX2                !
 ! R129  R(71,72)                1.3374         estimate D2E/DX2                !
 ! R130  R(71,73)                1.5043         estimate D2E/DX2                !
 ! R131  R(72,74)                1.4516         estimate D2E/DX2                !
 ! R132  R(73,75)                1.4794         estimate D2E/DX2                !
 ! R133  R(73,104)               1.8207         estimate D2E/DX2                !
 ! R134  R(74,76)                1.3608         estimate D2E/DX2                !
 ! R135  R(75,76)                1.4192         estimate D2E/DX2                !
 ! R136  R(75,77)                1.3781         estimate D2E/DX2                !
 ! R137  R(76,78)                1.503          estimate D2E/DX2                !
 ! R138  R(77,81)                1.4481         estimate D2E/DX2                !
 ! R139  R(78,81)                1.5054         estimate D2E/DX2                !
 ! R140  R(78,99)                1.808          estimate D2E/DX2                !
 ! R141  R(79,82)                1.5            estimate D2E/DX2                !
 ! R142  R(79,94)                1.8107         estimate D2E/DX2                !
 ! R143  R(80,82)                1.4992         estimate D2E/DX2                !
 ! R144  R(80,86)                1.804          estimate D2E/DX2                !
 ! R145  R(81,82)                1.3326         estimate D2E/DX2                !
 ! R146  R(83,84)                1.4005         estimate D2E/DX2                !
 ! A1    A(5,1,17)             112.3996         estimate D2E/DX2                !
 ! A2    A(5,1,23)             111.1947         estimate D2E/DX2                !
 ! A3    A(5,1,103)            108.3445         estimate D2E/DX2                !
 ! A4    A(17,1,23)            100.6956         estimate D2E/DX2                !
 ! A5    A(17,1,103)           112.1516         estimate D2E/DX2                !
 ! A6    A(23,1,103)           111.9824         estimate D2E/DX2                !
 ! A7    A(6,2,43)             101.5658         estimate D2E/DX2                !
 ! A8    A(6,2,44)             109.8352         estimate D2E/DX2                !
 ! A9    A(6,2,93)             113.2028         estimate D2E/DX2                !
 ! A10   A(43,2,44)            108.4573         estimate D2E/DX2                !
 ! A11   A(43,2,93)            113.138          estimate D2E/DX2                !
 ! A12   A(44,2,93)            110.2624         estimate D2E/DX2                !
 ! A13   A(7,3,18)             112.251          estimate D2E/DX2                !
 ! A14   A(7,3,26)             100.775          estimate D2E/DX2                !
 ! A15   A(7,3,100)            110.9722         estimate D2E/DX2                !
 ! A16   A(18,3,26)            111.7575         estimate D2E/DX2                !
 ! A17   A(18,3,100)           109.1876         estimate D2E/DX2                !
 ! A18   A(26,3,100)           111.7322         estimate D2E/DX2                !
 ! A19   A(8,4,45)             109.1727         estimate D2E/DX2                !
 ! A20   A(8,4,46)             101.0987         estimate D2E/DX2                !
 ! A21   A(8,4,85)             113.6616         estimate D2E/DX2                !
 ! A22   A(45,4,46)            109.6693         estimate D2E/DX2                !
 ! A23   A(45,4,85)            110.4018         estimate D2E/DX2                !
 ! A24   A(46,4,85)            112.4464         estimate D2E/DX2                !
 ! A25   A(1,5,9)              120.7352         estimate D2E/DX2                !
 ! A26   A(1,5,29)             118.5115         estimate D2E/DX2                !
 ! A27   A(9,5,29)             119.472          estimate D2E/DX2                !
 ! A28   A(2,6,10)             123.0839         estimate D2E/DX2                !
 ! A29   A(2,6,15)             109.8926         estimate D2E/DX2                !
 ! A30   A(10,6,15)            119.077          estimate D2E/DX2                !
 ! A31   A(3,7,12)             124.6649         estimate D2E/DX2                !
 ! A32   A(3,7,30)             110.2992         estimate D2E/DX2                !
 ! A33   A(12,7,30)            120.3832         estimate D2E/DX2                !
 ! A34   A(4,8,11)             122.7504         estimate D2E/DX2                !
 ! A35   A(4,8,16)             111.0418         estimate D2E/DX2                !
 ! A36   A(11,8,16)            119.2976         estimate D2E/DX2                !
 ! A37   A(5,9,13)             119.4406         estimate D2E/DX2                !
 ! A38   A(5,9,35)             120.8269         estimate D2E/DX2                !
 ! A39   A(13,9,35)            116.4613         estimate D2E/DX2                !
 ! A40   A(6,10,49)            122.4749         estimate D2E/DX2                !
 ! A41   A(6,10,53)            119.806          estimate D2E/DX2                !
 ! A42   A(49,10,53)           111.5114         estimate D2E/DX2                !
 ! A43   A(8,11,50)            122.3824         estimate D2E/DX2                !
 ! A44   A(8,11,54)            119.5513         estimate D2E/DX2                !
 ! A45   A(50,11,54)           112.7122         estimate D2E/DX2                !
 ! A46   A(7,12,14)            116.6997         estimate D2E/DX2                !
 ! A47   A(7,12,36)            120.5587         estimate D2E/DX2                !
 ! A48   A(14,12,36)           117.8901         estimate D2E/DX2                !
 ! A49   A(9,13,15)            120.7686         estimate D2E/DX2                !
 ! A50   A(9,13,43)            121.7755         estimate D2E/DX2                !
 ! A51   A(15,13,43)           108.7078         estimate D2E/DX2                !
 ! A52   A(12,14,16)           120.7288         estimate D2E/DX2                !
 ! A53   A(12,14,46)           121.7104         estimate D2E/DX2                !
 ! A54   A(16,14,46)           109.224          estimate D2E/DX2                !
 ! A55   A(6,15,13)            108.5827         estimate D2E/DX2                !
 ! A56   A(6,15,17)            121.161          estimate D2E/DX2                !
 ! A57   A(13,15,17)           120.3671         estimate D2E/DX2                !
 ! A58   A(8,16,14)            107.4885         estimate D2E/DX2                !
 ! A59   A(8,16,18)            121.9226         estimate D2E/DX2                !
 ! A60   A(14,16,18)           122.5561         estimate D2E/DX2                !
 ! A61   A(1,17,15)            121.781          estimate D2E/DX2                !
 ! A62   A(1,17,19)            112.5001         estimate D2E/DX2                !
 ! A63   A(15,17,19)           119.242          estimate D2E/DX2                !
 ! A64   A(3,18,16)            117.1644         estimate D2E/DX2                !
 ! A65   A(3,18,20)            122.234          estimate D2E/DX2                !
 ! A66   A(16,18,20)           118.3879         estimate D2E/DX2                !
 ! A67   A(17,19,21)           111.0843         estimate D2E/DX2                !
 ! A68   A(17,19,53)           119.8582         estimate D2E/DX2                !
 ! A69   A(21,19,53)           122.6108         estimate D2E/DX2                !
 ! A70   A(18,20,22)           120.7037         estimate D2E/DX2                !
 ! A71   A(18,20,54)           119.3514         estimate D2E/DX2                !
 ! A72   A(22,20,54)           117.4133         estimate D2E/DX2                !
 ! A73   A(19,21,23)           101.3341         estimate D2E/DX2                !
 ! A74   A(19,21,57)           110.1751         estimate D2E/DX2                !
 ! A75   A(19,21,95)           113.4461         estimate D2E/DX2                !
 ! A76   A(23,21,57)           110.5402         estimate D2E/DX2                !
 ! A77   A(23,21,95)           112.094          estimate D2E/DX2                !
 ! A78   A(57,21,95)           109.0761         estimate D2E/DX2                !
 ! A79   A(20,22,24)           112.2356         estimate D2E/DX2                !
 ! A80   A(20,22,58)           108.9132         estimate D2E/DX2                !
 ! A81   A(20,22,98)           110.7922         estimate D2E/DX2                !
 ! A82   A(24,22,58)           100.4128         estimate D2E/DX2                !
 ! A83   A(24,22,98)           112.1109         estimate D2E/DX2                !
 ! A84   A(58,22,98)           111.9504         estimate D2E/DX2                !
 ! A85   A(1,23,21)            112.4283         estimate D2E/DX2                !
 ! A86   A(1,23,25)            122.1383         estimate D2E/DX2                !
 ! A87   A(21,23,25)           122.7683         estimate D2E/DX2                !
 ! A88   A(22,24,26)           123.64           estimate D2E/DX2                !
 ! A89   A(22,24,62)           111.1631         estimate D2E/DX2                !
 ! A90   A(26,24,62)           121.6709         estimate D2E/DX2                !
 ! A91   A(23,25,27)           122.3404         estimate D2E/DX2                !
 ! A92   A(23,25,61)           121.9914         estimate D2E/DX2                !
 ! A93   A(27,25,61)           111.7507         estimate D2E/DX2                !
 ! A94   A(3,26,24)            122.563          estimate D2E/DX2                !
 ! A95   A(3,26,28)            111.4445         estimate D2E/DX2                !
 ! A96   A(24,26,28)           123.0123         estimate D2E/DX2                !
 ! A97   A(25,27,29)           111.5128         estimate D2E/DX2                !
 ! A98   A(25,27,65)           100.6972         estimate D2E/DX2                !
 ! A99   A(25,27,102)          112.3316         estimate D2E/DX2                !
 ! A100  A(29,27,65)           107.772          estimate D2E/DX2                !
 ! A101  A(29,27,102)          111.0365         estimate D2E/DX2                !
 ! A102  A(65,27,102)          113.0168         estimate D2E/DX2                !
 ! A103  A(26,28,30)           100.6366         estimate D2E/DX2                !
 ! A104  A(26,28,66)           111.5499         estimate D2E/DX2                !
 ! A105  A(26,28,89)           112.2461         estimate D2E/DX2                !
 ! A106  A(30,28,66)           108.9268         estimate D2E/DX2                !
 ! A107  A(30,28,89)           113.7711         estimate D2E/DX2                !
 ! A108  A(66,28,89)           109.4616         estimate D2E/DX2                !
 ! A109  A(5,29,27)            122.668          estimate D2E/DX2                !
 ! A110  A(5,29,31)            119.2538         estimate D2E/DX2                !
 ! A111  A(27,29,31)           116.4397         estimate D2E/DX2                !
 ! A112  A(7,30,28)            112.6872         estimate D2E/DX2                !
 ! A113  A(7,30,32)            120.1404         estimate D2E/DX2                !
 ! A114  A(28,30,32)           122.1666         estimate D2E/DX2                !
 ! A115  A(29,31,33)           121.4642         estimate D2E/DX2                !
 ! A116  A(29,31,69)           124.1691         estimate D2E/DX2                !
 ! A117  A(33,31,69)           111.4961         estimate D2E/DX2                !
 ! A118  A(30,32,34)           120.3764         estimate D2E/DX2                !
 ! A119  A(30,32,70)           121.3369         estimate D2E/DX2                !
 ! A120  A(34,32,70)           112.2171         estimate D2E/DX2                !
 ! A121  A(31,33,35)           120.9977         estimate D2E/DX2                !
 ! A122  A(31,33,73)           110.6709         estimate D2E/DX2                !
 ! A123  A(35,33,73)           124.9197         estimate D2E/DX2                !
 ! A124  A(32,34,36)           121.3984         estimate D2E/DX2                !
 ! A125  A(32,34,74)           108.4369         estimate D2E/DX2                !
 ! A126  A(36,34,74)           121.3602         estimate D2E/DX2                !
 ! A127  A(9,35,33)            116.8075         estimate D2E/DX2                !
 ! A128  A(9,35,37)            120.4342         estimate D2E/DX2                !
 ! A129  A(33,35,37)           119.203          estimate D2E/DX2                !
 ! A130  A(12,36,34)           116.3576         estimate D2E/DX2                !
 ! A131  A(12,36,38)           119.5842         estimate D2E/DX2                !
 ! A132  A(34,36,38)           119.6455         estimate D2E/DX2                !
 ! A133  A(35,37,39)           119.938          estimate D2E/DX2                !
 ! A134  A(35,37,77)           116.6376         estimate D2E/DX2                !
 ! A135  A(39,37,77)           118.0924         estimate D2E/DX2                !
 ! A136  A(36,38,42)           120.6406         estimate D2E/DX2                !
 ! A137  A(36,38,78)           119.3621         estimate D2E/DX2                !
 ! A138  A(42,38,78)           118.6393         estimate D2E/DX2                !
 ! A139  A(37,39,43)           118.9313         estimate D2E/DX2                !
 ! A140  A(37,39,79)           122.3311         estimate D2E/DX2                !
 ! A141  A(43,39,79)           116.3397         estimate D2E/DX2                !
 ! A142  A(41,40,44)           121.1889         estimate D2E/DX2                !
 ! A143  A(41,40,79)           111.2303         estimate D2E/DX2                !
 ! A144  A(44,40,79)           125.2669         estimate D2E/DX2                !
 ! A145  A(40,41,45)           120.3866         estimate D2E/DX2                !
 ! A146  A(40,41,80)           111.685          estimate D2E/DX2                !
 ! A147  A(45,41,80)           125.7803         estimate D2E/DX2                !
 ! A148  A(38,42,46)           119.2424         estimate D2E/DX2                !
 ! A149  A(38,42,80)           123.105          estimate D2E/DX2                !
 ! A150  A(46,42,80)           115.5822         estimate D2E/DX2                !
 ! A151  A(2,43,13)            110.1315         estimate D2E/DX2                !
 ! A152  A(2,43,39)            124.3079         estimate D2E/DX2                !
 ! A153  A(13,43,39)           121.166          estimate D2E/DX2                !
 ! A154  A(2,44,40)            116.0914         estimate D2E/DX2                !
 ! A155  A(2,44,47)            123.7125         estimate D2E/DX2                !
 ! A156  A(40,44,47)           119.1036         estimate D2E/DX2                !
 ! A157  A(4,45,41)            116.0105         estimate D2E/DX2                !
 ! A158  A(4,45,48)            123.5459         estimate D2E/DX2                !
 ! A159  A(41,45,48)           119.2934         estimate D2E/DX2                !
 ! A160  A(4,46,14)            109.818          estimate D2E/DX2                !
 ! A161  A(4,46,42)            125.0735         estimate D2E/DX2                !
 ! A162  A(14,46,42)           120.7812         estimate D2E/DX2                !
 ! A163  A(44,47,48)           119.8115         estimate D2E/DX2                !
 ! A164  A(44,47,49)           119.7699         estimate D2E/DX2                !
 ! A165  A(48,47,49)           119.8145         estimate D2E/DX2                !
 ! A166  A(45,48,47)           120.1634         estimate D2E/DX2                !
 ! A167  A(45,48,50)           119.3824         estimate D2E/DX2                !
 ! A168  A(47,48,50)           119.7839         estimate D2E/DX2                !
 ! A169  A(10,49,47)           110.2967         estimate D2E/DX2                !
 ! A170  A(10,49,51)           101.0831         estimate D2E/DX2                !
 ! A171  A(10,49,88)           113.3755         estimate D2E/DX2                !
 ! A172  A(47,49,51)           110.556          estimate D2E/DX2                !
 ! A173  A(47,49,88)           108.8267         estimate D2E/DX2                !
 ! A174  A(51,49,88)           112.5425         estimate D2E/DX2                !
 ! A175  A(11,50,48)           109.25           estimate D2E/DX2                !
 ! A176  A(11,50,52)           100.6423         estimate D2E/DX2                !
 ! A177  A(11,50,87)           113.5972         estimate D2E/DX2                !
 ! A178  A(48,50,52)           110.9544         estimate D2E/DX2                !
 ! A179  A(48,50,87)           109.2431         estimate D2E/DX2                !
 ! A180  A(52,50,87)           112.9052         estimate D2E/DX2                !
 ! A181  A(49,51,52)           121.6961         estimate D2E/DX2                !
 ! A182  A(49,51,55)           112.8085         estimate D2E/DX2                !
 ! A183  A(52,51,55)           122.6448         estimate D2E/DX2                !
 ! A184  A(50,52,51)           122.0346         estimate D2E/DX2                !
 ! A185  A(50,52,56)           112.5265         estimate D2E/DX2                !
 ! A186  A(51,52,56)           122.0356         estimate D2E/DX2                !
 ! A187  A(10,53,19)           120.6518         estimate D2E/DX2                !
 ! A188  A(10,53,55)           111.6901         estimate D2E/DX2                !
 ! A189  A(19,53,55)           121.7916         estimate D2E/DX2                !
 ! A190  A(11,54,20)           121.43           estimate D2E/DX2                !
 ! A191  A(11,54,56)           110.0843         estimate D2E/DX2                !
 ! A192  A(20,54,56)           124.8121         estimate D2E/DX2                !
 ! A193  A(51,55,53)           101.1317         estimate D2E/DX2                !
 ! A194  A(51,55,83)           110.4631         estimate D2E/DX2                !
 ! A195  A(51,55,96)           112.3703         estimate D2E/DX2                !
 ! A196  A(53,55,83)           110.5479         estimate D2E/DX2                !
 ! A197  A(53,55,96)           113.1699         estimate D2E/DX2                !
 ! A198  A(83,55,96)           108.9892         estimate D2E/DX2                !
 ! A199  A(52,56,54)           101.3158         estimate D2E/DX2                !
 ! A200  A(52,56,84)           110.4684         estimate D2E/DX2                !
 ! A201  A(52,56,97)           112.6092         estimate D2E/DX2                !
 ! A202  A(54,56,84)           109.5303         estimate D2E/DX2                !
 ! A203  A(54,56,97)           112.3465         estimate D2E/DX2                !
 ! A204  A(84,56,97)           110.2563         estimate D2E/DX2                !
 ! A205  A(21,57,59)           118.0616         estimate D2E/DX2                !
 ! A206  A(21,57,83)           121.201          estimate D2E/DX2                !
 ! A207  A(59,57,83)           120.0287         estimate D2E/DX2                !
 ! A208  A(22,58,60)           111.2159         estimate D2E/DX2                !
 ! A209  A(22,58,84)           125.5942         estimate D2E/DX2                !
 ! A210  A(60,58,84)           120.7815         estimate D2E/DX2                !
 ! A211  A(57,59,60)           119.1231         estimate D2E/DX2                !
 ! A212  A(57,59,61)           123.0176         estimate D2E/DX2                !
 ! A213  A(60,59,61)           116.441          estimate D2E/DX2                !
 ! A214  A(58,60,59)           120.8484         estimate D2E/DX2                !
 ! A215  A(58,60,62)           111.3217         estimate D2E/DX2                !
 ! A216  A(59,60,62)           125.2999         estimate D2E/DX2                !
 ! A217  A(25,61,59)           111.2485         estimate D2E/DX2                !
 ! A218  A(25,61,63)           100.4913         estimate D2E/DX2                !
 ! A219  A(25,61,91)           113.0802         estimate D2E/DX2                !
 ! A220  A(59,61,63)           108.2864         estimate D2E/DX2                !
 ! A221  A(59,61,91)           110.7236         estimate D2E/DX2                !
 ! A222  A(63,61,91)           112.5432         estimate D2E/DX2                !
 ! A223  A(24,62,60)           100.5538         estimate D2E/DX2                !
 ! A224  A(24,62,64)           111.7256         estimate D2E/DX2                !
 ! A225  A(24,62,90)           112.8051         estimate D2E/DX2                !
 ! A226  A(60,62,64)           108.2195         estimate D2E/DX2                !
 ! A227  A(60,62,90)           112.5595         estimate D2E/DX2                !
 ! A228  A(64,62,90)           110.5485         estimate D2E/DX2                !
 ! A229  A(61,63,64)           125.1588         estimate D2E/DX2                !
 ! A230  A(61,63,65)           111.4784         estimate D2E/DX2                !
 ! A231  A(64,63,65)           120.8542         estimate D2E/DX2                !
 ! A232  A(62,64,63)           116.5249         estimate D2E/DX2                !
 ! A233  A(62,64,66)           123.1255         estimate D2E/DX2                !
 ! A234  A(63,64,66)           118.9577         estimate D2E/DX2                !
 ! A235  A(27,65,63)           111.181          estimate D2E/DX2                !
 ! A236  A(27,65,67)           125.1524         estimate D2E/DX2                !
 ! A237  A(63,65,67)           121.0784         estimate D2E/DX2                !
 ! A238  A(28,66,64)           118.0523         estimate D2E/DX2                !
 ! A239  A(28,66,68)           120.963          estimate D2E/DX2                !
 ! A240  A(64,66,68)           120.2258         estimate D2E/DX2                !
 ! A241  A(65,67,68)           118.7503         estimate D2E/DX2                !
 ! A242  A(65,67,69)           116.0685         estimate D2E/DX2                !
 ! A243  A(68,67,69)           123.8206         estimate D2E/DX2                !
 ! A244  A(66,68,67)           120.108          estimate D2E/DX2                !
 ! A245  A(66,68,70)           120.5766         estimate D2E/DX2                !
 ! A246  A(67,68,70)           118.642          estimate D2E/DX2                !
 ! A247  A(31,69,67)           107.3817         estimate D2E/DX2                !
 ! A248  A(31,69,71)           100.629          estimate D2E/DX2                !
 ! A249  A(31,69,101)          113.0231         estimate D2E/DX2                !
 ! A250  A(67,69,71)           111.4105         estimate D2E/DX2                !
 ! A251  A(67,69,101)          110.3985         estimate D2E/DX2                !
 ! A252  A(71,69,101)          113.5184         estimate D2E/DX2                !
 ! A253  A(32,70,68)           109.1699         estimate D2E/DX2                !
 ! A254  A(32,70,72)           101.1176         estimate D2E/DX2                !
 ! A255  A(32,70,92)           113.7789         estimate D2E/DX2                !
 ! A256  A(68,70,72)           110.7766         estimate D2E/DX2                !
 ! A257  A(68,70,92)           109.0279         estimate D2E/DX2                !
 ! A258  A(72,70,92)           112.759          estimate D2E/DX2                !
 ! A259  A(69,71,72)           122.004          estimate D2E/DX2                !
 ! A260  A(69,71,73)           110.588          estimate D2E/DX2                !
 ! A261  A(72,71,73)           121.7471         estimate D2E/DX2                !
 ! A262  A(70,72,71)           123.8052         estimate D2E/DX2                !
 ! A263  A(70,72,74)           109.5215         estimate D2E/DX2                !
 ! A264  A(71,72,74)           121.0027         estimate D2E/DX2                !
 ! A265  A(33,73,71)           100.8134         estimate D2E/DX2                !
 ! A266  A(33,73,75)           109.3137         estimate D2E/DX2                !
 ! A267  A(33,73,104)          110.9286         estimate D2E/DX2                !
 ! A268  A(71,73,75)           112.8384         estimate D2E/DX2                !
 ! A269  A(71,73,104)          111.7259         estimate D2E/DX2                !
 ! A270  A(75,73,104)          110.811          estimate D2E/DX2                !
 ! A271  A(34,74,72)           107.6327         estimate D2E/DX2                !
 ! A272  A(34,74,76)           119.9839         estimate D2E/DX2                !
 ! A273  A(72,74,76)           121.3112         estimate D2E/DX2                !
 ! A274  A(73,75,76)           122.012          estimate D2E/DX2                !
 ! A275  A(73,75,77)           122.4882         estimate D2E/DX2                !
 ! A276  A(76,75,77)           109.7142         estimate D2E/DX2                !
 ! A277  A(74,76,75)           119.0116         estimate D2E/DX2                !
 ! A278  A(74,76,78)           122.021          estimate D2E/DX2                !
 ! A279  A(75,76,78)           110.3839         estimate D2E/DX2                !
 ! A280  A(37,77,75)           123.4264         estimate D2E/DX2                !
 ! A281  A(37,77,81)           119.6425         estimate D2E/DX2                !
 ! A282  A(75,77,81)           108.4481         estimate D2E/DX2                !
 ! A283  A(38,78,76)           113.2254         estimate D2E/DX2                !
 ! A284  A(38,78,81)           110.1921         estimate D2E/DX2                !
 ! A285  A(38,78,99)           108.6802         estimate D2E/DX2                !
 ! A286  A(76,78,81)           100.9058         estimate D2E/DX2                !
 ! A287  A(76,78,99)           111.8213         estimate D2E/DX2                !
 ! A288  A(81,78,99)           111.8997         estimate D2E/DX2                !
 ! A289  A(39,79,40)           108.6479         estimate D2E/DX2                !
 ! A290  A(39,79,82)           113.4389         estimate D2E/DX2                !
 ! A291  A(39,79,94)           110.4361         estimate D2E/DX2                !
 ! A292  A(40,79,82)           100.409          estimate D2E/DX2                !
 ! A293  A(40,79,94)           111.8604         estimate D2E/DX2                !
 ! A294  A(82,79,94)           111.6664         estimate D2E/DX2                !
 ! A295  A(41,80,42)           109.0017         estimate D2E/DX2                !
 ! A296  A(41,80,82)            99.7441         estimate D2E/DX2                !
 ! A297  A(41,80,86)           111.666          estimate D2E/DX2                !
 ! A298  A(42,80,82)           111.7674         estimate D2E/DX2                !
 ! A299  A(42,80,86)           110.4641         estimate D2E/DX2                !
 ! A300  A(82,80,86)           113.7091         estimate D2E/DX2                !
 ! A301  A(77,81,78)           109.9224         estimate D2E/DX2                !
 ! A302  A(77,81,82)           122.1772         estimate D2E/DX2                !
 ! A303  A(78,81,82)           123.2592         estimate D2E/DX2                !
 ! A304  A(79,82,80)           112.3066         estimate D2E/DX2                !
 ! A305  A(79,82,81)           121.0358         estimate D2E/DX2                !
 ! A306  A(80,82,81)           121.5939         estimate D2E/DX2                !
 ! A307  A(55,83,57)           121.0779         estimate D2E/DX2                !
 ! A308  A(55,83,84)           118.1562         estimate D2E/DX2                !
 ! A309  A(57,83,84)           120.0738         estimate D2E/DX2                !
 ! A310  A(56,84,58)           116.9518         estimate D2E/DX2                !
 ! A311  A(56,84,83)           122.6793         estimate D2E/DX2                !
 ! A312  A(58,84,83)           119.0832         estimate D2E/DX2                !
 ! D1    D(17,1,5,9)            22.6171         estimate D2E/DX2                !
 ! D2    D(17,1,5,29)         -144.3878         estimate D2E/DX2                !
 ! D3    D(23,1,5,9)           134.649          estimate D2E/DX2                !
 ! D4    D(23,1,5,29)          -32.3559         estimate D2E/DX2                !
 ! D5    D(103,1,5,9)         -101.8776         estimate D2E/DX2                !
 ! D6    D(103,1,5,29)          91.1175         estimate D2E/DX2                !
 ! D7    D(5,1,17,15)          -23.9408         estimate D2E/DX2                !
 ! D8    D(5,1,17,19)          127.5382         estimate D2E/DX2                !
 ! D9    D(23,1,17,15)        -142.3525         estimate D2E/DX2                !
 ! D10   D(23,1,17,19)           9.1266         estimate D2E/DX2                !
 ! D11   D(103,1,17,15)         98.4259         estimate D2E/DX2                !
 ! D12   D(103,1,17,19)       -110.095          estimate D2E/DX2                !
 ! D13   D(5,1,23,21)         -133.3372         estimate D2E/DX2                !
 ! D14   D(5,1,23,25)           28.6143         estimate D2E/DX2                !
 ! D15   D(17,1,23,21)         -14.0508         estimate D2E/DX2                !
 ! D16   D(17,1,23,25)         147.9006         estimate D2E/DX2                !
 ! D17   D(103,1,23,21)        105.2932         estimate D2E/DX2                !
 ! D18   D(103,1,23,25)        -92.7554         estimate D2E/DX2                !
 ! D19   D(43,2,6,10)         -137.8553         estimate D2E/DX2                !
 ! D20   D(43,2,6,15)           10.6368         estimate D2E/DX2                !
 ! D21   D(44,2,6,10)          -23.1872         estimate D2E/DX2                !
 ! D22   D(44,2,6,15)          125.3049         estimate D2E/DX2                !
 ! D23   D(93,2,6,10)          100.5363         estimate D2E/DX2                !
 ! D24   D(93,2,6,15)         -110.9716         estimate D2E/DX2                !
 ! D25   D(6,2,43,13)           -8.0352         estimate D2E/DX2                !
 ! D26   D(6,2,43,39)          148.5168         estimate D2E/DX2                !
 ! D27   D(44,2,43,13)        -123.721          estimate D2E/DX2                !
 ! D28   D(44,2,43,39)          32.831          estimate D2E/DX2                !
 ! D29   D(93,2,43,13)         113.6183         estimate D2E/DX2                !
 ! D30   D(93,2,43,39)         -89.8297         estimate D2E/DX2                !
 ! D31   D(6,2,44,40)         -147.1419         estimate D2E/DX2                !
 ! D32   D(6,2,44,47)           20.7681         estimate D2E/DX2                !
 ! D33   D(43,2,44,40)         -36.9545         estimate D2E/DX2                !
 ! D34   D(43,2,44,47)         130.9555         estimate D2E/DX2                !
 ! D35   D(93,2,44,40)          87.4337         estimate D2E/DX2                !
 ! D36   D(93,2,44,47)        -104.6563         estimate D2E/DX2                !
 ! D37   D(18,3,7,12)          -19.5651         estimate D2E/DX2                !
 ! D38   D(18,3,7,30)          136.1414         estimate D2E/DX2                !
 ! D39   D(26,3,7,12)         -138.6137         estimate D2E/DX2                !
 ! D40   D(26,3,7,30)           17.0928         estimate D2E/DX2                !
 ! D41   D(100,3,7,12)         102.9227         estimate D2E/DX2                !
 ! D42   D(100,3,7,30)        -101.3708         estimate D2E/DX2                !
 ! D43   D(7,3,18,16)           28.1749         estimate D2E/DX2                !
 ! D44   D(7,3,18,20)         -134.6327         estimate D2E/DX2                !
 ! D45   D(26,3,18,16)         140.5567         estimate D2E/DX2                !
 ! D46   D(26,3,18,20)         -22.251          estimate D2E/DX2                !
 ! D47   D(100,3,18,16)        -95.3179         estimate D2E/DX2                !
 ! D48   D(100,3,18,20)        101.8745         estimate D2E/DX2                !
 ! D49   D(7,3,26,24)          140.1189         estimate D2E/DX2                !
 ! D50   D(7,3,26,28)          -20.8534         estimate D2E/DX2                !
 ! D51   D(18,3,26,24)          20.7139         estimate D2E/DX2                !
 ! D52   D(18,3,26,28)        -140.2585         estimate D2E/DX2                !
 ! D53   D(100,3,26,24)       -101.9719         estimate D2E/DX2                !
 ! D54   D(100,3,26,28)         97.0557         estimate D2E/DX2                !
 ! D55   D(45,4,8,11)           25.1398         estimate D2E/DX2                !
 ! D56   D(45,4,8,16)         -125.4186         estimate D2E/DX2                !
 ! D57   D(46,4,8,11)          140.6936         estimate D2E/DX2                !
 ! D58   D(46,4,8,16)           -9.8648         estimate D2E/DX2                !
 ! D59   D(85,4,8,11)          -98.5916         estimate D2E/DX2                !
 ! D60   D(85,4,8,16)          110.85           estimate D2E/DX2                !
 ! D61   D(8,4,45,41)          143.7143         estimate D2E/DX2                !
 ! D62   D(8,4,45,48)          -23.909          estimate D2E/DX2                !
 ! D63   D(46,4,45,41)          33.7936         estimate D2E/DX2                !
 ! D64   D(46,4,45,48)        -133.8297         estimate D2E/DX2                !
 ! D65   D(85,4,45,41)         -90.6477         estimate D2E/DX2                !
 ! D66   D(85,4,45,48)         101.7289         estimate D2E/DX2                !
 ! D67   D(8,4,46,14)           11.5597         estimate D2E/DX2                !
 ! D68   D(8,4,46,42)         -145.0326         estimate D2E/DX2                !
 ! D69   D(45,4,46,14)         126.7441         estimate D2E/DX2                !
 ! D70   D(45,4,46,42)         -29.8481         estimate D2E/DX2                !
 ! D71   D(85,4,46,14)        -110.0111         estimate D2E/DX2                !
 ! D72   D(85,4,46,42)          93.3967         estimate D2E/DX2                !
 ! D73   D(1,5,9,13)           -10.1535         estimate D2E/DX2                !
 ! D74   D(1,5,9,35)          -169.0071         estimate D2E/DX2                !
 ! D75   D(29,5,9,13)          156.728          estimate D2E/DX2                !
 ! D76   D(29,5,9,35)           -2.1256         estimate D2E/DX2                !
 ! D77   D(1,5,29,27)            9.3964         estimate D2E/DX2                !
 ! D78   D(1,5,29,31)          174.2779         estimate D2E/DX2                !
 ! D79   D(9,5,29,27)         -157.7764         estimate D2E/DX2                !
 ! D80   D(9,5,29,31)            7.1051         estimate D2E/DX2                !
 ! D81   D(2,6,10,49)           -1.1582         estimate D2E/DX2                !
 ! D82   D(2,6,10,53)          148.7825         estimate D2E/DX2                !
 ! D83   D(15,6,10,49)        -146.9432         estimate D2E/DX2                !
 ! D84   D(15,6,10,53)           2.9976         estimate D2E/DX2                !
 ! D85   D(2,6,15,13)           -9.6783         estimate D2E/DX2                !
 ! D86   D(2,6,15,17)         -155.4263         estimate D2E/DX2                !
 ! D87   D(10,6,15,13)         140.2534         estimate D2E/DX2                !
 ! D88   D(10,6,15,17)          -5.4946         estimate D2E/DX2                !
 ! D89   D(3,7,12,14)            1.9033         estimate D2E/DX2                !
 ! D90   D(3,7,12,36)          156.7282         estimate D2E/DX2                !
 ! D91   D(30,7,12,14)        -151.5267         estimate D2E/DX2                !
 ! D92   D(30,7,12,36)           3.2981         estimate D2E/DX2                !
 ! D93   D(3,7,30,28)           -7.8253         estimate D2E/DX2                !
 ! D94   D(3,7,30,32)         -163.3265         estimate D2E/DX2                !
 ! D95   D(12,7,30,28)         149.0799         estimate D2E/DX2                !
 ! D96   D(12,7,30,32)          -6.4213         estimate D2E/DX2                !
 ! D97   D(4,8,11,50)            2.7785         estimate D2E/DX2                !
 ! D98   D(4,8,11,54)         -149.4885         estimate D2E/DX2                !
 ! D99   D(16,8,11,50)         151.0398         estimate D2E/DX2                !
 ! D100  D(16,8,11,54)          -1.2272         estimate D2E/DX2                !
 ! D101  D(4,8,16,14)            4.9234         estimate D2E/DX2                !
 ! D102  D(4,8,16,18)          154.3556         estimate D2E/DX2                !
 ! D103  D(11,8,16,14)        -146.7802         estimate D2E/DX2                !
 ! D104  D(11,8,16,18)           2.652          estimate D2E/DX2                !
 ! D105  D(5,9,13,15)           -3.2538         estimate D2E/DX2                !
 ! D106  D(5,9,13,43)         -147.1445         estimate D2E/DX2                !
 ! D107  D(35,9,13,15)         156.5011         estimate D2E/DX2                !
 ! D108  D(35,9,13,43)          12.6103         estimate D2E/DX2                !
 ! D109  D(5,9,35,33)           -7.3575         estimate D2E/DX2                !
 ! D110  D(5,9,35,37)          151.2148         estimate D2E/DX2                !
 ! D111  D(13,9,35,33)        -166.8132         estimate D2E/DX2                !
 ! D112  D(13,9,35,37)          -8.2408         estimate D2E/DX2                !
 ! D113  D(6,10,49,47)          27.6067         estimate D2E/DX2                !
 ! D114  D(6,10,49,51)         144.6028         estimate D2E/DX2                !
 ! D115  D(6,10,49,88)         -94.7165         estimate D2E/DX2                !
 ! D116  D(53,10,49,47)       -124.5423         estimate D2E/DX2                !
 ! D117  D(53,10,49,51)         -7.5462         estimate D2E/DX2                !
 ! D118  D(53,10,49,88)        113.1345         estimate D2E/DX2                !
 ! D119  D(6,10,53,19)           0.1367         estimate D2E/DX2                !
 ! D120  D(6,10,53,55)        -153.3422         estimate D2E/DX2                !
 ! D121  D(49,10,53,19)        153.1229         estimate D2E/DX2                !
 ! D122  D(49,10,53,55)         -0.3561         estimate D2E/DX2                !
 ! D123  D(8,11,50,48)         -31.4913         estimate D2E/DX2                !
 ! D124  D(8,11,50,52)        -148.3027         estimate D2E/DX2                !
 ! D125  D(8,11,50,87)          90.7507         estimate D2E/DX2                !
 ! D126  D(54,11,50,48)        122.4784         estimate D2E/DX2                !
 ! D127  D(54,11,50,52)          5.667          estimate D2E/DX2                !
 ! D128  D(54,11,50,87)       -115.2796         estimate D2E/DX2                !
 ! D129  D(8,11,54,20)           0.1827         estimate D2E/DX2                !
 ! D130  D(8,11,54,56)         159.5439         estimate D2E/DX2                !
 ! D131  D(50,11,54,20)       -154.6019         estimate D2E/DX2                !
 ! D132  D(50,11,54,56)          4.7593         estimate D2E/DX2                !
 ! D133  D(7,12,14,16)           7.7178         estimate D2E/DX2                !
 ! D134  D(7,12,14,46)         152.5571         estimate D2E/DX2                !
 ! D135  D(36,12,14,16)       -147.798          estimate D2E/DX2                !
 ! D136  D(36,12,14,46)         -2.9587         estimate D2E/DX2                !
 ! D137  D(7,12,36,34)           4.5092         estimate D2E/DX2                !
 ! D138  D(7,12,36,38)        -151.8488         estimate D2E/DX2                !
 ! D139  D(14,12,36,34)        159.0434         estimate D2E/DX2                !
 ! D140  D(14,12,36,38)          2.6855         estimate D2E/DX2                !
 ! D141  D(9,13,15,6)         -143.805          estimate D2E/DX2                !
 ! D142  D(9,13,15,17)           2.2629         estimate D2E/DX2                !
 ! D143  D(43,13,15,6)           4.261          estimate D2E/DX2                !
 ! D144  D(43,13,15,17)        150.3289         estimate D2E/DX2                !
 ! D145  D(9,13,43,2)          150.4317         estimate D2E/DX2                !
 ! D146  D(9,13,43,39)          -6.9787         estimate D2E/DX2                !
 ! D147  D(15,13,43,2)           2.7498         estimate D2E/DX2                !
 ! D148  D(15,13,43,39)       -154.6606         estimate D2E/DX2                !
 ! D149  D(12,14,16,8)         151.6134         estimate D2E/DX2                !
 ! D150  D(12,14,16,18)          2.4184         estimate D2E/DX2                !
 ! D151  D(46,14,16,8)           2.8675         estimate D2E/DX2                !
 ! D152  D(46,14,16,18)       -146.3276         estimate D2E/DX2                !
 ! D153  D(12,14,46,4)        -157.7903         estimate D2E/DX2                !
 ! D154  D(12,14,46,42)         -0.0278         estimate D2E/DX2                !
 ! D155  D(16,14,46,4)          -9.4081         estimate D2E/DX2                !
 ! D156  D(16,14,46,42)        148.3544         estimate D2E/DX2                !
 ! D157  D(6,15,17,1)          154.3456         estimate D2E/DX2                !
 ! D158  D(6,15,17,19)           4.7142         estimate D2E/DX2                !
 ! D159  D(13,15,17,1)          12.5392         estimate D2E/DX2                !
 ! D160  D(13,15,17,19)       -137.0922         estimate D2E/DX2                !
 ! D161  D(8,16,18,3)         -166.4036         estimate D2E/DX2                !
 ! D162  D(8,16,18,20)          -2.9146         estimate D2E/DX2                !
 ! D163  D(14,16,18,3)         -21.5368         estimate D2E/DX2                !
 ! D164  D(14,16,18,20)        141.9522         estimate D2E/DX2                !
 ! D165  D(1,17,19,21)          -1.22           estimate D2E/DX2                !
 ! D166  D(1,17,19,53)        -153.7601         estimate D2E/DX2                !
 ! D167  D(15,17,19,21)        151.0587         estimate D2E/DX2                !
 ! D168  D(15,17,19,53)         -1.4814         estimate D2E/DX2                !
 ! D169  D(3,18,20,22)           2.9067         estimate D2E/DX2                !
 ! D170  D(3,18,20,54)         164.3988         estimate D2E/DX2                !
 ! D171  D(16,18,20,22)       -159.7003         estimate D2E/DX2                !
 ! D172  D(16,18,20,54)          1.7918         estimate D2E/DX2                !
 ! D173  D(17,19,21,23)         -7.2883         estimate D2E/DX2                !
 ! D174  D(17,19,21,57)       -124.3458         estimate D2E/DX2                !
 ! D175  D(17,19,21,95)        113.047          estimate D2E/DX2                !
 ! D176  D(53,19,21,23)        144.3677         estimate D2E/DX2                !
 ! D177  D(53,19,21,57)         27.3103         estimate D2E/DX2                !
 ! D178  D(53,19,21,95)        -95.2969         estimate D2E/DX2                !
 ! D179  D(17,19,53,10)         -0.9326         estimate D2E/DX2                !
 ! D180  D(17,19,53,55)        149.8485         estimate D2E/DX2                !
 ! D181  D(21,19,53,10)       -150.2168         estimate D2E/DX2                !
 ! D182  D(21,19,53,55)          0.5643         estimate D2E/DX2                !
 ! D183  D(18,20,22,24)         18.2662         estimate D2E/DX2                !
 ! D184  D(18,20,22,58)        128.5383         estimate D2E/DX2                !
 ! D185  D(18,20,22,98)       -107.9048         estimate D2E/DX2                !
 ! D186  D(54,20,22,24)       -143.5729         estimate D2E/DX2                !
 ! D187  D(54,20,22,58)        -33.3009         estimate D2E/DX2                !
 ! D188  D(54,20,22,98)         90.2561         estimate D2E/DX2                !
 ! D189  D(18,20,54,11)         -0.4718         estimate D2E/DX2                !
 ! D190  D(18,20,54,56)       -156.6933         estimate D2E/DX2                !
 ! D191  D(22,20,54,11)        161.6219         estimate D2E/DX2                !
 ! D192  D(22,20,54,56)          5.4003         estimate D2E/DX2                !
 ! D193  D(19,21,23,1)          13.5059         estimate D2E/DX2                !
 ! D194  D(19,21,23,25)       -148.3145         estimate D2E/DX2                !
 ! D195  D(57,21,23,1)         130.2965         estimate D2E/DX2                !
 ! D196  D(57,21,23,25)        -31.5238         estimate D2E/DX2                !
 ! D197  D(95,21,23,1)        -107.7812         estimate D2E/DX2                !
 ! D198  D(95,21,23,25)         90.3985         estimate D2E/DX2                !
 ! D199  D(19,21,57,59)        142.9786         estimate D2E/DX2                !
 ! D200  D(19,21,57,83)        -27.3762         estimate D2E/DX2                !
 ! D201  D(23,21,57,59)         31.8008         estimate D2E/DX2                !
 ! D202  D(23,21,57,83)       -138.554          estimate D2E/DX2                !
 ! D203  D(95,21,57,59)        -91.8805         estimate D2E/DX2                !
 ! D204  D(95,21,57,83)         97.7648         estimate D2E/DX2                !
 ! D205  D(20,22,24,26)        -20.5234         estimate D2E/DX2                !
 ! D206  D(20,22,24,62)        138.5216         estimate D2E/DX2                !
 ! D207  D(58,22,24,26)       -136.0651         estimate D2E/DX2                !
 ! D208  D(58,22,24,62)         22.98           estimate D2E/DX2                !
 ! D209  D(98,22,24,26)        104.9295         estimate D2E/DX2                !
 ! D210  D(98,22,24,62)        -96.0255         estimate D2E/DX2                !
 ! D211  D(20,22,58,60)       -132.4555         estimate D2E/DX2                !
 ! D212  D(20,22,58,84)         29.9029         estimate D2E/DX2                !
 ! D213  D(24,22,58,60)        -14.4423         estimate D2E/DX2                !
 ! D214  D(24,22,58,84)        147.916          estimate D2E/DX2                !
 ! D215  D(98,22,58,60)        104.68           estimate D2E/DX2                !
 ! D216  D(98,22,58,84)        -92.9617         estimate D2E/DX2                !
 ! D217  D(1,23,25,27)          -0.4285         estimate D2E/DX2                !
 ! D218  D(1,23,25,61)        -156.3031         estimate D2E/DX2                !
 ! D219  D(21,23,25,27)        159.6589         estimate D2E/DX2                !
 ! D220  D(21,23,25,61)          3.7843         estimate D2E/DX2                !
 ! D221  D(22,24,26,3)           0.5803         estimate D2E/DX2                !
 ! D222  D(22,24,26,28)        159.3647         estimate D2E/DX2                !
 ! D223  D(62,24,26,3)        -156.3486         estimate D2E/DX2                !
 ! D224  D(62,24,26,28)          2.4358         estimate D2E/DX2                !
 ! D225  D(22,24,62,60)        -22.3122         estimate D2E/DX2                !
 ! D226  D(22,24,62,64)       -136.932          estimate D2E/DX2                !
 ! D227  D(22,24,62,90)         97.7986         estimate D2E/DX2                !
 ! D228  D(26,24,62,60)        137.2102         estimate D2E/DX2                !
 ! D229  D(26,24,62,64)         22.5904         estimate D2E/DX2                !
 ! D230  D(26,24,62,90)       -102.679          estimate D2E/DX2                !
 ! D231  D(23,25,27,29)        -23.5809         estimate D2E/DX2                !
 ! D232  D(23,25,27,65)       -137.682          estimate D2E/DX2                !
 ! D233  D(23,25,27,102)       101.8022         estimate D2E/DX2                !
 ! D234  D(61,25,27,29)        134.504          estimate D2E/DX2                !
 ! D235  D(61,25,27,65)         20.4029         estimate D2E/DX2                !
 ! D236  D(61,25,27,102)      -100.1129         estimate D2E/DX2                !
 ! D237  D(23,25,61,59)         22.7941         estimate D2E/DX2                !
 ! D238  D(23,25,61,63)        137.2748         estimate D2E/DX2                !
 ! D239  D(23,25,61,91)       -102.5443         estimate D2E/DX2                !
 ! D240  D(27,25,61,59)       -135.3789         estimate D2E/DX2                !
[...]
 Alpha virt. eigenvalues --    1.63860   1.64041   1.64286   1.64476   1.64673
 Alpha virt. eigenvalues --    1.64958   1.65115   1.65435   1.65730   1.66013
 Alpha virt. eigenvalues --    1.66215   1.66577   1.66624   1.66708   1.67044
 Alpha virt. eigenvalues --    1.67224   1.67486   1.67777   1.68081   1.68308
 Alpha virt. eigenvalues --    1.68419   1.68707   1.68989   1.69019   1.69164
 Alpha virt. eigenvalues --    1.69381   1.69715   1.70238   1.70322   1.70606
 Alpha virt. eigenvalues --    1.70831   1.71234   1.71403   1.71565   1.71887
 Alpha virt. eigenvalues --    1.71956   1.72165   1.72375   1.72654   1.72795
 Alpha virt. eigenvalues --    1.73021   1.73106   1.73201   1.73587   1.73983
 Alpha virt. eigenvalues --    1.74168   1.74494   1.74618   1.74931   1.75224
 Alpha virt. eigenvalues --    1.75331   1.75563   1.75629   1.75798   1.75866
 Alpha virt. eigenvalues --    1.76240   1.76461   1.76763   1.77057   1.77175
 Alpha virt. eigenvalues --    1.77249   1.77465   1.78053   1.78161   1.78272
 Alpha virt. eigenvalues --    1.78406   1.78779   1.78810   1.79018   1.79318
 Alpha virt. eigenvalues --    1.79588   1.79895   1.80112   1.80355   1.80602
 Alpha virt. eigenvalues --    1.80774   1.80923   1.81089   1.81233   1.81787
 Alpha virt. eigenvalues --    1.81801   1.82074   1.82438   1.82488   1.82729
 Alpha virt. eigenvalues --    1.82951   1.83147   1.83425   1.83587   1.83989
 Alpha virt. eigenvalues --    1.84048   1.84210   1.84776   1.85019   1.85337
 Alpha virt. eigenvalues --    1.85824   1.86127   1.86143   1.86828   1.87160
 Alpha virt. eigenvalues --    1.87363   1.87398   1.87931   1.88205   1.88723
 Alpha virt. eigenvalues --    1.89076   1.89281   1.89492   1.89675   1.90045
 Alpha virt. eigenvalues --    1.90399   1.90447   1.91049   1.91588   1.91902
 Alpha virt. eigenvalues --    1.92048   1.92475   1.92528   1.92992   1.93473
 Alpha virt. eigenvalues --    1.93813   1.94048   1.94297   1.94869   1.95024
 Alpha virt. eigenvalues --    1.95841   1.96034   1.96386   1.96958   1.97039
 Alpha virt. eigenvalues --    1.97381   1.97429   1.97884   1.97988   1.98518
 Alpha virt. eigenvalues --    1.98767   1.99028   1.99596   2.00408   2.00472
 Alpha virt. eigenvalues --    2.01285   2.01377   2.01539   2.01840   2.02149
 Alpha virt. eigenvalues --    2.02440   2.02728   2.03142   2.03319   2.03582
 Alpha virt. eigenvalues --    2.03958   2.04422   2.04675   2.05104   2.05516
 Alpha virt. eigenvalues --    2.06484   2.06675   2.06911   2.07192   2.07775
 Alpha virt. eigenvalues --    2.08260   2.08740   2.08789   2.09015   2.09266
 Alpha virt. eigenvalues --    2.09585   2.10252   2.10605   2.11359   2.11544
 Alpha virt. eigenvalues --    2.11949   2.12237   2.12757   2.12929   2.13471
 Alpha virt. eigenvalues --    2.13717   2.13922   2.14038   2.14791   2.15055
 Alpha virt. eigenvalues --    2.15672   2.15922   2.16468   2.16568   2.17130
 Alpha virt. eigenvalues --    2.17280   2.17827   2.18096   2.18294   2.18556
 Alpha virt. eigenvalues --    2.19170   2.19515   2.19776   2.20053   2.20429
 Alpha virt. eigenvalues --    2.20790   2.20981   2.21363   2.22075   2.22266
 Alpha virt. eigenvalues --    2.22454   2.23121   2.23589   2.24125   2.24254
 Alpha virt. eigenvalues --    2.24477   2.24617   2.25516   2.25865   2.25989
 Alpha virt. eigenvalues --    2.26701   2.26857   2.27832   2.27861   2.28151
 Alpha virt. eigenvalues --    2.28405   2.28885   2.29834   2.29862   2.30771
 Alpha virt. eigenvalues --    2.30985   2.31519   2.31833   2.32346   2.32924
 Alpha virt. eigenvalues --    2.33297   2.33459   2.34600   2.34723   2.35185
 Alpha virt. eigenvalues --    2.35859   2.36652   2.37094   2.37700   2.38088
 Alpha virt. eigenvalues --    2.38338   2.38778   2.38948   2.39306   2.40197
 Alpha virt. eigenvalues --    2.40689   2.41286   2.41950   2.42017   2.42424
 Alpha virt. eigenvalues --    2.43012   2.43252   2.43731   2.44149   2.44593
 Alpha virt. eigenvalues --    2.45462   2.45815   2.46306   2.46687   2.47078
 Alpha virt. eigenvalues --    2.47501   2.47887   2.48117   2.48614   2.49286
 Alpha virt. eigenvalues --    2.49764   2.50013   2.50687   2.50993   2.51213
 Alpha virt. eigenvalues --    2.51240   2.51597   2.52205   2.52363   2.52625
 Alpha virt. eigenvalues --    2.53182   2.53929   2.54264   2.54324   2.54728
 Alpha virt. eigenvalues --    2.55448   2.55664   2.56340   2.56520   2.56755
 Alpha virt. eigenvalues --    2.56970   2.57352   2.57735   2.57973   2.58404
 Alpha virt. eigenvalues --    2.59326   2.59498   2.59885   2.60011   2.60330
 Alpha virt. eigenvalues --    2.60772   2.61009   2.61232   2.61514   2.61879
 Alpha virt. eigenvalues --    2.62120   2.62383   2.62581   2.63437   2.63490
 Alpha virt. eigenvalues --    2.64301   2.64332   2.64759   2.65609   2.65830
 Alpha virt. eigenvalues --    2.66232   2.66396   2.66818   2.67150   2.67295
 Alpha virt. eigenvalues --    2.68023   2.68441   2.68546   2.69026   2.69291
 Alpha virt. eigenvalues --    2.69398   2.69920   2.70187   2.70695   2.70871
 Alpha virt. eigenvalues --    2.71244   2.71383   2.71968   2.72319   2.72550
 Alpha virt. eigenvalues --    2.73049   2.73377   2.73667   2.74031   2.74295
 Alpha virt. eigenvalues --    2.74796   2.75087   2.75109   2.75471   2.76097
 Alpha virt. eigenvalues --    2.76453   2.77135   2.77354   2.77611   2.78379
 Alpha virt. eigenvalues --    2.78976   2.79566   2.80067   2.80548   2.81014
 Alpha virt. eigenvalues --    2.81338   2.81896   2.82075   2.82357   2.82771
 Alpha virt. eigenvalues --    2.83142   2.83540   2.84039   2.84415   2.84479
 Alpha virt. eigenvalues --    2.85471   2.85867   2.86476   2.86830   2.87291
 Alpha virt. eigenvalues --    2.87864   2.88695   2.88994   2.89445   2.90382
 Alpha virt. eigenvalues --    2.90472   2.91295   2.92034   2.92774   2.93928
 Alpha virt. eigenvalues --    2.94499   2.95026   2.95496   2.96171   2.97362
 Alpha virt. eigenvalues --    2.98361   2.99439   3.00723   3.01948   3.03350
 Alpha virt. eigenvalues --    3.04258   3.05788   3.07388   3.07898   3.08335
 Alpha virt. eigenvalues --    3.09205   3.10302   3.12780   3.13357   3.13923
 Alpha virt. eigenvalues --    3.14907   3.16369   3.16926   3.17877   3.18869
 Alpha virt. eigenvalues --    3.19212   3.21028   3.22415   3.22978   3.23810
 Alpha virt. eigenvalues --    3.26994   3.28189   3.28447   3.31468   3.33897
 Alpha virt. eigenvalues --    3.35902   3.39116   3.39784   3.40767   3.41651
 Alpha virt. eigenvalues --    3.42853   3.47043   3.47749   3.49542   4.00971
 Alpha virt. eigenvalues --    4.01961   4.02775   4.03067   4.04359   4.04979
 Alpha virt. eigenvalues --    4.05288   4.06898   4.07454   4.07872   4.08360
 Alpha virt. eigenvalues --    4.09254   4.09625   4.10040   4.11570   4.12332
 Alpha virt. eigenvalues --    4.13419   4.14179   4.14541   4.14657   4.15277
 Alpha virt. eigenvalues --    4.15705   4.17700   4.17802   4.18056   4.18922
 Alpha virt. eigenvalues --    4.19695   4.19799   4.20418   4.20903   4.21888
 Alpha virt. eigenvalues --    4.22463   4.22881   4.23680   4.24729   4.25233
 Alpha virt. eigenvalues --    4.25589   4.25679   4.26264   4.26855   4.27350
 Alpha virt. eigenvalues --    4.27753   4.27827   4.28311   4.28825   4.29208
 Alpha virt. eigenvalues --    4.29468   4.29628   4.29928   4.30779   4.31691
 Alpha virt. eigenvalues --    4.33189   4.33962   4.34907   4.35149   4.36979
 Alpha virt. eigenvalues --    4.37296   4.37612   4.38169   4.39133   4.39894
 Alpha virt. eigenvalues --    4.40603   4.41214   4.41476   4.42037   4.42838
 Alpha virt. eigenvalues --    4.43105   4.43982   4.45471   4.46229   4.47546
 Alpha virt. eigenvalues --    4.48347   4.49122   4.49869   4.52004   4.52284
 Alpha virt. eigenvalues --    4.53622   4.55361   4.56145   4.57811   4.59842
 Alpha virt. eigenvalues --    4.61147   4.62586   4.63152   4.64457   4.67066
 Alpha virt. eigenvalues --    4.68617   4.69507   4.74162   4.77536   4.78664
 Alpha virt. eigenvalues --    4.79818   4.80750   4.81863   4.83458   4.87505
 Alpha virt. eigenvalues --    4.92412   4.94541   4.95559   4.99937   5.01858
 Alpha virt. eigenvalues --    5.05952   5.08895   5.19364
          Condensed to atoms (all electrons):
 Mulliken charges:
               1
     1  C   -0.359133
     2  C   -0.393368
     3  C   -0.360359
     4  C   -0.394734
     5  C    0.095571
     6  C    0.085682
     7  C    0.080371
     8  C    0.084325
     9  C    0.066697
    10  C    0.130965
    11  C    0.129693
    12  C    0.062255
    13  C   -0.011755
    14  C   -0.014750
    15  C    0.038360
    16  C    0.046884
    17  C    0.099664
    18  C    0.116362
    19  C    0.126850
    20  C    0.150181
    21  C   -0.379424
    22  C   -0.384268
    23  C    0.178384
    24  C    0.180651
    25  C    0.189129
    26  C    0.181319
    27  C   -0.380520
    28  C   -0.375879
    29  C    0.149025
    30  C    0.134953
    31  C    0.124522
    32  C    0.090296
    33  C    0.073599
    34  C   -0.005578
    35  C    0.047310
    36  C    0.062487
    37  C    0.034931
    38  C    0.092057
    39  C    0.122643
    40  C    0.116803
    41  C    0.111272
    42  C    0.154169
    43  C    0.088032
    44  C    0.149198
    45  C    0.148615
    46  C    0.085491
    47  C    0.119013
    48  C    0.124882
    49  C   -0.377283
    50  C   -0.377387
    51  C    0.179871
    52  C    0.186530
    53  C    0.115997
    54  C    0.107883
    55  C   -0.375095
    56  C   -0.380449
    57  C    0.122682
    58  C    0.116203
    59  C    0.144223
    60  C    0.117639
    61  C   -0.384003
    62  C   -0.382375
    63  C    0.115393
    64  C    0.143248
    65  C    0.118649
    66  C    0.124012
    67  C    0.138888
    68  C    0.125302
    69  C   -0.369983
    70  C   -0.385135
    71  C    0.157664
    72  C    0.109800
    73  C   -0.345973
    74  C    0.018987
    75  C    0.112991
    76  C    0.093090
    77  C    0.024470
    78  C   -0.367860
    79  C   -0.363131
    80  C   -0.370658
    81  C    0.112806
    82  C    0.157986
    83  C    0.125152
    84  C    0.145238
    85  Cl   0.036073
    86  Cl   0.027520
    87  Cl   0.034325
    88  Cl   0.032980
    89  Cl   0.033015
    90  Cl   0.036556
    91  Cl   0.038069
    92  Cl   0.025520
    93  Cl   0.036002
    94  Cl   0.019659
    95  Cl   0.032128
    96  Cl   0.029519
    97  Cl   0.032590
    98  Cl   0.032509
    99  Cl   0.013599
   100  Cl   0.008694
   101  Cl   0.029116
   102  Cl   0.039200
   103  Cl   0.017283
   104  Cl  -0.002607
 Sum of Mulliken charges =  -0.00000
 Mulliken charges with hydrogens summed into heavy atoms:
               1
     1  C   -0.359133
     2  C   -0.393368
     3  C   -0.360359
     4  C   -0.394734
     5  C    0.095571
     6  C    0.085682
     7  C    0.080371
     8  C    0.084325
     9  C    0.066697
    10  C    0.130965
    11  C    0.129693
    12  C    0.062255
    13  C   -0.011755
    14  C   -0.014750
    15  C    0.038360
    16  C    0.046884
    17  C    0.099664
    18  C    0.116362
    19  C    0.126850
    20  C    0.150181
    21  C   -0.379424
    22  C   -0.384268
    23  C    0.178384
    24  C    0.180651
    25  C    0.189129
    26  C    0.181319
    27  C   -0.380520
    28  C   -0.375879
    29  C    0.149025
    30  C    0.134953
    31  C    0.124522
    32  C    0.090296
    33  C    0.073599
    34  C   -0.005578
    35  C    0.047310
    36  C    0.062487
    37  C    0.034931
    38  C    0.092057
    39  C    0.122643
    40  C    0.116803
    41  C    0.111272
    42  C    0.154169
    43  C    0.088032
    44  C    0.149198
    45  C    0.148615
    46  C    0.085491
    47  C    0.119013
    48  C    0.124882
    49  C   -0.377283
    50  C   -0.377387
    51  C    0.179871
    52  C    0.186530
    53  C    0.115997
    54  C    0.107883
    55  C   -0.375095
    56  C   -0.380449
    57  C    0.122682
    58  C    0.116203
    59  C    0.144223
    60  C    0.117639
    61  C   -0.384003
    62  C   -0.382375
    63  C    0.115393
    64  C    0.143248
    65  C    0.118649
    66  C    0.124012
    67  C    0.138888
    68  C    0.125302
    69  C   -0.369983
    70  C   -0.385135
    71  C    0.157664
    72  C    0.109800
    73  C   -0.345973
    74  C    0.018987
    75  C    0.112991
    76  C    0.093090
    77  C    0.024470
    78  C   -0.367860
    79  C   -0.363131
    80  C   -0.370658
    81  C    0.112806
    82  C    0.157986
    83  C    0.125152
    84  C    0.145238
    85  Cl   0.036073
    86  Cl   0.027520
    87  Cl   0.034325
    88  Cl   0.032980
    89  Cl   0.033015
    90  Cl   0.036556
    91  Cl   0.038069
    92  Cl   0.025520
    93  Cl   0.036002
    94  Cl   0.019659
    95  Cl   0.032128
    96  Cl   0.029519
    97  Cl   0.032590
    98  Cl   0.032509
    99  Cl   0.013599
   100  Cl   0.008694
   101  Cl   0.029116
   102  Cl   0.039200
   103  Cl   0.017283
   104  Cl  -0.002607
 Electronic spatial extent (au):  <R**2>=          81976.6890
 Charge=             -0.0000 electrons
 Dipole moment (field-independent basis, Debye):
    X=              0.5477    Y=              1.9501    Z=             -0.4439  Tot=              2.0736
 Quadrupole moment (field-independent basis, Debye-Ang):
   XX=           -762.7730   YY=           -756.3807   ZZ=           -737.3514
   XY=             -3.2481   XZ=             -3.0789   YZ=              3.5591
 Traceless Quadrupole moment (field-independent basis, Debye-Ang):
   XX=            -10.6046   YY=             -4.2123   ZZ=             14.8170
   XY=             -3.2481   XZ=             -3.0789   YZ=              3.5591
 Octapole moment (field-independent basis, Debye-Ang**2):
  XXX=             13.5559  YYY=            -88.1475  ZZZ=            -25.6946  XYY=            -19.8787
  XXY=            -36.1738  XXZ=             14.9346  XZZ=             38.6089  YZZ=             33.6665
  YYZ=             12.0287  XYZ=             -8.5916
 Hexadecapole moment (field-independent basis, Debye-Ang**3):
 XXXX=         -41365.4342 YYYY=         -39030.2657 ZZZZ=         -33554.9521 XXXY=            281.3750
 XXXZ=              5.7164 YYYX=             76.3923 YYYZ=            -38.4370 ZZZX=             72.4629
 ZZZY=              7.8911 XXYY=         -13490.7464 XXZZ=         -12530.2811 YYZZ=         -12063.3113
 XXYZ=             51.8107 YYXZ=            -51.2213 ZZXY=            -31.7109
 N-N= 3.224827519128D+04 E-N=-9.375525026024D+04  KE= 1.234701541549D+04
 Leave Link  601 at Thu Jun 30 09:11:53 2022, MaxMem=  1342177280 cpu:              19.9 elap:               1.1
 (Enter /home/mkliu/g16/l9999.exe)
 1\1\GINC-NODE04\FOpt\RB3LYP\6-31G(d,p)\C84Cl20\MKLIU\30-Jun-2022\0\\#P
  opt b3lyp/6-31G(d, p) empiricaldispersion=GD3\\force\\0,1\C,8.4236806
 113,18.6406407392,10.8086644166\C,12.5737916417,19.9824275702,8.868636
 3392\C,8.2204443458,27.1212401958,10.5972182548\C,12.4814541086,25.753
 9288124,8.9070798883\C,8.0114757691,19.1589804776,9.4296355947\C,12.04
 49685665,19.5084861346,10.2006489815\C,7.9521606423,26.8086904568,9.13
 80453691\C,11.859943836,26.156847302,10.2229091572\C,8.9792507032,19.2
 556670427,8.3628830719\C,12.3043471984,20.1632556429,11.3875156478\C,1
 2.1090997315,25.4841408421,11.3960862914\C,8.9616957503,26.6232363092,
 8.1522434278\C,10.3586922993,19.0830057437,8.6597843383\C,10.299090125
 5,26.6785105694,8.5959033857\C,10.8084707623,18.8671297535,10.02662827
 82\C,10.612737009,26.7585729904,10.0262493803\C,9.8949406763,18.790398
 7696,11.0622639659\C,9.6216180006,26.7415686613,11.0153064609\C,10.167
 493424,19.4428286327,12.2688504747\C,9.8778822083,26.0454112666,12.211
 8121965\C,8.900950726,19.8425699918,12.9736276417\C,8.7408557406,25.59
 79659967,13.1022416813\C,7.8571442865,19.4984696586,11.9223286618\C,7.
 4128219159,25.5750801897,12.3770782474\C,6.7380122638,20.1927497991,11
 .7733257521\C,7.171383233,26.2623356522,11.2659063044\C,5.9333662568,2
 0.1657461043,10.4980107692\C,6.0552743633,25.9035067014,10.3008881264\
 C,6.7788252616,19.786547678,9.2961756624\C,6.7057675774,26.2313313108,
 8.9853205757\C,6.4419794848,20.3873826471,8.0656547761\C,6.3828976581,
 25.5610765928,7.8124533602\C,7.3280698875,20.4096510174,7.0034728711\C
 ,7.319504597,25.4354820168,6.7850888656\C,8.6639308008,19.9633055858,7
 .1563153927\C,8.6741116263,25.8755628454,6.9587091886\C,9.7140908544,2
 0.6149277947,6.3948847307\C,9.7331140014,25.1690496913,6.2943468295\C,
 11.0440931321,20.5657242522,6.8537447551\C,12.6952387742,22.1856212808
 ,7.7465519338\C,12.6816728482,23.5765286594,7.7493621141\C,11.03710372
 31,25.1975321168,6.8111040134\C,11.3546269331,19.7595992722,7.95694376
 63\C,12.8976573488,21.4637393896,8.9202530602\C,12.8525937889,24.28547
 44251,8.9353797043\C,11.3135197939,25.9904847318,7.9411633736\C,13.118
 8331715,22.163748785,10.1265042387\C,13.0887787846,23.5761972115,10.13
 41804833\C,13.1616751228,21.4004749631,11.4551005054\C,13.0697105646,2
 4.3268837313,11.4705068656\C,12.4666975165,22.1750723282,12.5566589162
 \C,12.4314520855,23.5000026124,12.5629652322\C,11.3573647503,20.131751
 211,12.4270941465\C,11.1223373098,25.4297601461,12.3898473342\C,11.468
 9608338,21.3292729733,13.3248417994\C,11.3834634393,24.2709711239,13.3
 314274868\C,8.904933273,21.3396467249,13.2806323515\C,8.9025303144,24.
 1271366598,13.438310334\C,7.6945627409,22.0465299153,13.1588191592\C,7
 .709294598,23.4352667921,13.2555097451\C,6.4344427141,21.4130827904,12
 .6004765428\C,6.6103670095,24.3526865047,12.7475324401\C,5.8390556338,
 22.325498088,11.5430809267\C,5.9442072474,23.7151876513,11.5430370363\
 C,5.5443160831,21.6289394097,10.3756802418\C,5.714404306,24.4139842293
 ,10.3464797348\C,5.3309275718,22.298662624,9.1697989111\C,5.402086014,
 23.7053420341,9.1551899322\C,5.3567589478,21.4509405137,7.9043467987\C
 ,5.378747101,24.4281297507,7.8071747321\C,5.8827237772,22.2113543167,6
 .718748444\C,5.9304903212,23.5504517525,6.6966272053\C,6.8686406715,21
 .373149512,5.9403592622\C,7.0004561493,24.2632994789,6.001000892\C,8.0
 226726081,22.164396645,5.4295493653\C,7.9843416007,23.5916111472,5.346
 2588627\C,9.3244112991,21.7312205581,5.554546854\C,9.389476496,24.1408
 267816,5.221679106\C,12.062604954,21.6326062142,6.4827820256\C,12.0739
 525289,24.1344104926,6.4675860081\C,10.2101252951,22.8788428004,5.4160
 72731\C,11.4485527446,22.8834642452,5.9105461558\C,10.1225662766,22.04
 45298177,13.4531992718\C,10.1184838506,23.4508309348,13.5137808945\Cl,
 13.9436025208,26.7864025771,8.4954174521\Cl,13.3690208765,24.839661760
 7,5.3585023779\Cl,14.7749680364,24.8650999182,11.9069366986\Cl,14.9096
 953337,21.002012402,11.8788942726\Cl,4.5407993514,26.9023014499,10.616
 118766\Cl,5.3621532344,24.7322929468,14.0473192857\Cl,5.239530991,21.0
 379232354,13.9495228754\Cl,3.6675972284,24.9955047662,7.4317498461\Cl,
 14.042471088,19.008202474,8.3539343811\Cl,13.3276497441,20.9318310528,
 5.3244034694\Cl,8.6412763024,18.8909107263,14.5299855966\Cl,12.0949204
 868,20.8823528892,15.0024995169\Cl,12.0237164585,24.8426543403,14.9639
 813786\Cl,8.6610671755,26.6415004327,14.6201795034\Cl,9.666771899,24.8
 748301611,3.5474923716\Cl,7.9490138592,28.928563511,10.9410856119\Cl,3
 .6912886939,20.7313556871,7.5779538763\Cl,4.4807858395,19.0486959886,1
 0.6662801848\Cl,7.9004691838,16.8691551962,10.9609228191\Cl,6.05839075
 54,20.4691531768,4.5202075953\\Version=ES64L-G16RevA.03\State=1-A\HF=-
 12405.0274022\RMSD=4.956e-09\RMSF=2.027e-05\Dipole=0.3030695,-0.100465
 3,-0.7507434\Quadrupole=-8.1567273,11.2006788,-3.0439515,-2.9043797,1.
 7290043,-1.6381075\PG=C01 [X(C84Cl20)]\\@


 TO DRY ONE'S EYES AND LAUGH AT A FALL
 AND BAFFLED, GET UP AND BEGIN AGAIN.
           R. BROWNING
 Job cpu time:       1 days 17 hours 51 minutes 17.9 seconds.
 Elapsed time:       0 days  1 hours 44 minutes 47.2 seconds.
 File lengths (MBytes):  RWF=   1649 Int=      0 D2E=      0 Chk=    205 Scr=      1
 Normal termination of Gaussian 16 at Thu Jun 30 09:11:55 2022.
