 Entering Gaussian System, Link 0=g16
 Input=20_addons_C84_11_Cl22_rank_3.gjf
 Output=20_addons_C84_11_Cl22_rank_3.log
 Initial command:
 /home/mkliu/g16/l1.exe "/data/scratch/Gau-157887.inp" -scrdir="/data/scratch/"
 Entering Link 1 = /home/mkliu/g16/l1.exe PID=    157888.
  
 Copyright (c) 1988,1990,1992,1993,1995,1998,2003,2009,2016,
            Gaussian, Inc.  All Rights Reserved.
  
 This is part of the Gaussian(R) 16 program.  It is based on
 the Gaussian(R) 09 system (copyright 2009, Gaussian, Inc.),
 the Gaussian(R) 03 system (copyright 2003, Gaussian, Inc.),
 the Gaussian(R) 98 system (copyright 1998, Gaussian, Inc.),
 the Gaussian(R) 94 system (copyright 1995, Gaussian, Inc.),
 the Gaussian 92(TM) system (copyright 1992, Gaussian, Inc.),
 the Gaussian 90(TM) system (copyright 1990, Gaussian, Inc.),
 the Gaussian 88(TM) system (copyright 1988, Gaussian, Inc.),
 the Gaussian 86(TM) system (copyright 1986, Carnegie Mellon
 University), and the Gaussian 82(TM) system (copyright 1983,
 Carnegie Mellon University). Gaussian is a federally registered
 trademark of Gaussian, Inc.
  
 This software contains proprietary and confidential information,
 including trade secrets, belonging to Gaussian, Inc.
  
 This software is provided under written license and may be
 used, copied, transmitted, or stored only in accord with that
 written license.
  
 The following legend is applicable only to US Government
 contracts under FAR:
  
                    RESTRICTED RIGHTS LEGEND
  
 Use, reproduction and disclosure by the US Government is
 subject to restrictions as set forth in subparagraphs (a)
 and (c) of the Commercial Computer Software - Restricted
 Rights clause in FAR 52.227-19.
  
 Gaussian, Inc.
 340 Quinnipiac St., Bldg. 40, Wallingford CT 06492
  
  
 ---------------------------------------------------------------
 Warning -- This program may not be used in any manner that
 competes with the business of Gaussian, Inc. or will provide
 assistance to any competitor of Gaussian, Inc.  The licensee
 of this program is prohibited from giving any competitor of
 Gaussian, Inc. access to this program.  By using this program,
 the user acknowledges that Gaussian, Inc. is engaged in the
 business of creating and licensing software in the field of
 computational chemistry and represents and warrants to the
 licensee that it is not a competitor of Gaussian, Inc. and that
 it will not use this program in any manner prohibited above.
 ---------------------------------------------------------------
  

 Cite this work as:
 Gaussian 16, Revision A.03,
 M. J. Frisch, G. W. Trucks, H. B. Schlegel, G. E. Scuseria, 
 M. A. Robb, J. R. Cheeseman, G. Scalmani, V. Barone, 
 G. A. Petersson, H. Nakatsuji, X. Li, M. Caricato, A. V. Marenich, 
 J. Bloino, B. G. Janesko, R. Gomperts, B. Mennucci, H. P. Hratchian, 
 J. V. Ortiz, A. F. Izmaylov, J. L. Sonnenberg, D. Williams-Young, 
 F. Ding, F. Lipparini, F. Egidi, J. Goings, B. Peng, A. Petrone, 
 T. Henderson, D. Ranasinghe, V. G. Zakrzewski, J. Gao, N. Rega, 
 G. Zheng, W. Liang, M. Hada, M. Ehara, K. Toyota, R. Fukuda, 
 J. Hasegawa, M. Ishida, T. Nakajima, Y. Honda, O. Kitao, H. Nakai, 
 T. Vreven, K. Throssell, J. A. Montgomery, Jr., J. E. Peralta, 
 F. Ogliaro, M. J. Bearpark, J. J. Heyd, E. N. Brothers, K. N. Kudin, 
 V. N. Staroverov, T. A. Keith, R. Kobayashi, J. Normand, 
 K. Raghavachari, A. P. Rendell, J. C. Burant, S. S. Iyengar, 
 J. Tomasi, M. Cossi, J. M. Millam, M. Klene, C. Adamo, R. Cammi, 
 J. W. Ochterski, R. L. Martin, K. Morokuma, O. Farkas, 
 J. B. Foresman, and D. J. Fox, Gaussian, Inc., Wallingford CT, 2016.
 
 ******************************************
 Gaussian 16:  ES64L-G16RevA.03 25-Dec-2016
                29-Jun-2022 
 ******************************************
 %mem=10GB
 %chk=20_addons_C84_11_Cl22_rank_3.chk
 %nprocshared=24
 Will use up to   24 processors via shared memory.
 ------------------------------------------------
 #P opt b3lyp/6-31G(d, p) empiricaldispersion=GD3
 ------------------------------------------------
 1/18=20,19=15,26=3,38=1/1,3;
 2/9=110,12=2,17=6,18=5,40=1/2;
 3/5=1,6=6,7=101,11=2,25=1,30=1,71=1,74=-5,124=31/1,2,3;
 4//1;
 5/5=2,38=5/2;
 6/7=2,8=2,9=2,10=2,28=1/1;
 7//1,2,3,16;
 1/18=20,19=15,26=3/3(2);
 2/9=110/2;
 99//99;
 2/9=110/2;
 3/5=1,6=6,7=101,11=2,25=1,30=1,71=1,74=-5,124=31/1,2,3;
 4/5=5,16=3,69=1/1;
 5/5=2,38=5/2;
 7//1,2,3,16;
 1/18=20,19=15,26=3/3(-5);
 2/9=110/2;
 6/7=2,8=2,9=2,10=2,19=2,28=1/1;
 99/9=1/99;
 Leave Link    1 at Wed Jun 29 09:28:02 2022, MaxMem=  1342177280 cpu:               0.7 elap:               0.1
 (Enter /home/mkliu/g16/l101.exe)
 -----
 force
 -----
 Symbolic Z-matrix:
 Charge =  0 Multiplicity = 1
 C                     8.42951   18.64514   10.8358 
 C                     12.6021   19.98733   8.90874 
 C                     8.26551   26.84045   10.52971 
 C                     12.48049   25.74335   8.93393 
 C                     8.02806   19.17006   9.47835 
 C                     12.11905   19.47095   10.23206 
 C                     7.88935   27.09774   9.0935 
 C                     11.90318   26.20393   10.23868 
 C                     9.01135   19.3079   8.45523 
 C                     12.34015   20.14559   11.36805 
 C                     12.11856   25.51792   11.36603 
 C                     8.9673    26.5719   8.18305 
 C                     10.37666   19.13017   8.75166 
 C                     10.26703   26.61551   8.65439 
 C                     10.9106   18.59126   10.0446 
 C                     10.67771   27.05295   10.03223 
 C                     9.89489   18.77029   11.09913 
 C                     9.56356   26.75951   10.99486 
 C                     10.14445   19.44814   12.24135 
 C                     9.82199   26.01833   12.17629 
 C                     8.89693   19.85938   12.9618 
 C                     8.74167   25.39841   12.82598 
 C                     7.86045   19.5144   11.93074 
 C                     7.42445   25.52049   12.35339 
 C                     6.73535   20.19688   11.79158 
 C                     7.19468   26.21956   11.20267 
 C                     5.9404    20.17274   10.51838 
 C                     6.05497   25.89581   10.28726 
 C                     6.79074   19.78227   9.33943 
 C                     6.64287   26.27316   8.95935 
 C                     6.45888   20.37575   8.12009 
 C                     6.35402   25.61263   7.84986 
 C                     7.37143   20.4213   7.0771 
 C                     7.23762   25.64557   6.63209 
 C                     8.71107   20.01528   7.24936 
 C                     8.68737   25.82202   7.03394 
 C                     9.73932   20.65639   6.49742 
 C                     9.70921   25.0968   6.40306 
 C                     11.04128   20.62279   6.96137 
 C                     12.70579   22.18161   7.79672 
 C                     12.6833   23.56932   7.79894 
 C                     11.00896   25.11527   6.92365 
 C                     11.34944   19.82982   8.07337 
 C                     12.91463   21.46397   8.96462 
 C                     12.85402   24.28247   8.97419 
 C                     11.27733   25.8919   8.03613 
 C                     13.12483   22.17071   10.15453 
 C                     13.08632   23.57507   10.1584 
 C                     13.17383   21.3985   11.45974 
 C                     13.06179   24.34376   11.4644 
 C                     12.42968   22.16784   12.51587 
 C                     12.38761   23.51406   12.51506 
 C                     11.35597   20.15126   12.42378 
 C                     11.09385   25.41458   12.37685 
 C                     11.33889   21.39365   13.03441 
 C                     11.2311   24.18577   13.02498 
 C                     8.88604   21.3309   13.30568 
 C                     8.87755   24.10897   13.44047 
 C                     7.67031   22.03178   13.20727 
 C                     7.66709   23.41035   13.31744 
 C                     6.42926   21.41264   12.61787 
 C                     6.60058   24.33544   12.76416 
 C                     5.8867    22.32924   11.54933 
 C                     5.98627   23.70944   11.54269 
 C                     5.6028    21.63579   10.38239 
 C                     5.76073   24.40754   10.3472 
 C                     5.40192   22.30657   9.18794 
 C                     5.46113   23.70759   9.1707 
 C                     5.40726   21.45769   7.94616 
 C                     5.40063   24.44943   7.84763 
 C                     5.9689    22.23707   6.79416 
 C                     5.97667   23.60822   6.74995 
 C                     7.03699   21.53075   6.21406 
 C                     7.01005   24.27904   6.07416 
 C                     8.02333   22.17973   5.50829 
 C                     8.01497   23.57544   5.45064 
 C                     9.3962    21.61025   5.3717 
 C                     9.40098   24.11469   5.2934 
 C                     12.07705   21.62929   6.54488 
 C                     12.0609   24.11191   6.53841 
 C                     10.22826   22.86195   5.45256 
 C                     11.44223   22.86674   5.98006 
 C                     10.10839   22.0205   13.45318 
 C                     10.10778   23.44357   13.49388 
 Cl                    4.47551   19.13445   10.63827 
 Cl                    7.85753   16.92957   10.97452 
 Cl                    3.76302   20.80647   7.62618 
 Cl                    3.69678   24.95388   7.5433 
 Cl                    4.54999   26.8109   10.66928 
 Cl                    14.00821   19.07386   8.25458 
 Cl                    14.88971   21.06354   11.87925 
 Cl                    14.73531   24.84179   11.89487 
 Cl                    13.27475   20.89852   5.41761 
 Cl                    9.62342   20.74477   3.79677 
 Cl                    13.88068   26.73023   8.37509 
 Cl                    13.27381   24.85196   5.4337 
 Cl                    9.68191   24.91543   3.70294 
 Cl                    6.78077   26.96493   5.48897 
 Cl                    7.59827   28.84729   8.76668 
 Cl                    11.08653   28.82002   10.0681 
 Cl                    5.32852   24.72476   13.97401 
 Cl                    5.21145   21.0876   13.90577 
 Cl                    8.66988   18.9141   14.49148 
 Cl                    11.36922   16.83796   9.85049 
 
 ITRead=  0  0  0  0  0  0  0  0  0  0  0  0  0  0  0  0  0  0  0  0
 ITRead=  0  0  0  0  0  0  0  0  0  0  0  0  0  0  0  0  0  0  0  0
 ITRead=  0  0  0  0  0  0  0  0  0  0  0  0  0  0  0  0  0  0  0  0
 ITRead=  0  0  0  0  0  0  0  0  0  0  0  0  0  0  0  0  0  0  0  0
 ITRead=  0  0  0  0  0  0  0  0  0  0  0  0  0  0  0  0  0  0  0  0
 ITRead=  0  0  0  0
 MicOpt= -1 -1 -1 -1 -1 -1 -1 -1 -1 -1 -1 -1 -1 -1 -1 -1 -1 -1 -1 -1
 MicOpt= -1 -1 -1 -1 -1 -1 -1 -1 -1 -1 -1 -1 -1 -1 -1 -1 -1 -1 -1 -1
 MicOpt= -1 -1 -1 -1 -1 -1 -1 -1 -1 -1 -1 -1 -1 -1 -1 -1 -1 -1 -1 -1
 MicOpt= -1 -1 -1 -1 -1 -1 -1 -1 -1 -1 -1 -1 -1 -1 -1 -1 -1 -1 -1 -1
 MicOpt= -1 -1 -1 -1 -1 -1 -1 -1 -1 -1 -1 -1 -1 -1 -1 -1 -1 -1 -1 -1
 MicOpt= -1 -1 -1 -1
 NAtoms=    104 NQM=      104 NQMF=       0 NMMI=      0 NMMIF=      0
                NMic=       0 NMicF=      0.
                    Isotopes and Nuclear Properties:
 (Nuclear quadrupole moments (NQMom) in fm**2, nuclear magnetic moments (NMagM)
  in nuclear magnetons)

  Atom         1           2           3           4           5           6           7           8           9          10
 IAtWgt=          12          12          12          12          12          12          12          12          12          12
 AtmWgt=  12.0000000  12.0000000  12.0000000  12.0000000  12.0000000  12.0000000  12.0000000  12.0000000  12.0000000  12.0000000
 NucSpn=           0           0           0           0           0           0           0           0           0           0
 AtZEff=  -0.0000000  -0.0000000  -0.0000000  -0.0000000  -0.0000000  -0.0000000  -0.0000000  -0.0000000  -0.0000000  -0.0000000
 NQMom=    0.0000000   0.0000000   0.0000000   0.0000000   0.0000000   0.0000000   0.0000000   0.0000000   0.0000000   0.0000000
 NMagM=    0.0000000   0.0000000   0.0000000   0.0000000   0.0000000   0.0000000   0.0000000   0.0000000   0.0000000   0.0000000
 AtZNuc=   6.0000000   6.0000000   6.0000000   6.0000000   6.0000000   6.0000000   6.0000000   6.0000000   6.0000000   6.0000000

  Atom        11          12          13          14          15          16          17          18          19          20
 IAtWgt=          12          12          12          12          12          12          12          12          12          12
 AtmWgt=  12.0000000  12.0000000  12.0000000  12.0000000  12.0000000  12.0000000  12.0000000  12.0000000  12.0000000  12.0000000
 NucSpn=           0           0           0           0           0           0           0           0           0           0
 AtZEff=  -0.0000000  -0.0000000  -0.0000000  -0.0000000  -0.0000000  -0.0000000  -0.0000000  -0.0000000  -0.0000000  -0.0000000
 NQMom=    0.0000000   0.0000000   0.0000000   0.0000000   0.0000000   0.0000000   0.0000000   0.0000000   0.0000000   0.0000000
 NMagM=    0.0000000   0.0000000   0.0000000   0.0000000   0.0000000   0.0000000   0.0000000   0.0000000   0.0000000   0.0000000
 AtZNuc=   6.0000000   6.0000000   6.0000000   6.0000000   6.0000000   6.0000000   6.0000000   6.0000000   6.0000000   6.0000000

  Atom        21          22          23          24          25          26          27          28          29          30
 IAtWgt=          12          12          12          12          12          12          12          12          12          12
 AtmWgt=  12.0000000  12.0000000  12.0000000  12.0000000  12.0000000  12.0000000  12.0000000  12.0000000  12.0000000  12.0000000
 NucSpn=           0           0           0           0           0           0           0           0           0           0
 AtZEff=  -0.0000000  -0.0000000  -0.0000000  -0.0000000  -0.0000000  -0.0000000  -0.0000000  -0.0000000  -0.0000000  -0.0000000
 NQMom=    0.0000000   0.0000000   0.0000000   0.0000000   0.0000000   0.0000000   0.0000000   0.0000000   0.0000000   0.0000000
 NMagM=    0.0000000   0.0000000   0.0000000   0.0000000   0.0000000   0.0000000   0.0000000   0.0000000   0.0000000   0.0000000
 AtZNuc=   6.0000000   6.0000000   6.0000000   6.0000000   6.0000000   6.0000000   6.0000000   6.0000000   6.0000000   6.0000000

  Atom        31          32          33          34          35          36          37          38          39          40
 IAtWgt=          12          12          12          12          12          12          12          12          12          12
 AtmWgt=  12.0000000  12.0000000  12.0000000  12.0000000  12.0000000  12.0000000  12.0000000  12.0000000  12.0000000  12.0000000
 NucSpn=           0           0           0           0           0           0           0           0           0           0
 AtZEff=  -0.0000000  -0.0000000  -0.0000000  -0.0000000  -0.0000000  -0.0000000  -0.0000000  -0.0000000  -0.0000000  -0.0000000
 NQMom=    0.0000000   0.0000000   0.0000000   0.0000000   0.0000000   0.0000000   0.0000000   0.0000000   0.0000000   0.0000000
 NMagM=    0.0000000   0.0000000   0.0000000   0.0000000   0.0000000   0.0000000   0.0000000   0.0000000   0.0000000   0.0000000
 AtZNuc=   6.0000000   6.0000000   6.0000000   6.0000000   6.0000000   6.0000000   6.0000000   6.0000000   6.0000000   6.0000000

  Atom        41          42          43          44          45          46          47          48          49          50
 IAtWgt=          12          12          12          12          12          12          12          12          12          12
 AtmWgt=  12.0000000  12.0000000  12.0000000  12.0000000  12.0000000  12.0000000  12.0000000  12.0000000  12.0000000  12.0000000
 NucSpn=           0           0           0           0           0           0           0           0           0           0
 AtZEff=  -0.0000000  -0.0000000  -0.0000000  -0.0000000  -0.0000000  -0.0000000  -0.0000000  -0.0000000  -0.0000000  -0.0000000
 NQMom=    0.0000000   0.0000000   0.0000000   0.0000000   0.0000000   0.0000000   0.0000000   0.0000000   0.0000000   0.0000000
 NMagM=    0.0000000   0.0000000   0.0000000   0.0000000   0.0000000   0.0000000   0.0000000   0.0000000   0.0000000   0.0000000
 AtZNuc=   6.0000000   6.0000000   6.0000000   6.0000000   6.0000000   6.0000000   6.0000000   6.0000000   6.0000000   6.0000000

  Atom        51          52          53          54          55          56          57          58          59          60
 IAtWgt=          12          12          12          12          12          12          12          12          12          12
 AtmWgt=  12.0000000  12.0000000  12.0000000  12.0000000  12.0000000  12.0000000  12.0000000  12.0000000  12.0000000  12.0000000
 NucSpn=           0           0           0           0           0           0           0           0           0           0
 AtZEff=  -0.0000000  -0.0000000  -0.0000000  -0.0000000  -0.0000000  -0.0000000  -0.0000000  -0.0000000  -0.0000000  -0.0000000
 NQMom=    0.0000000   0.0000000   0.0000000   0.0000000   0.0000000   0.0000000   0.0000000   0.0000000   0.0000000   0.0000000
 NMagM=    0.0000000   0.0000000   0.0000000   0.0000000   0.0000000   0.0000000   0.0000000   0.0000000   0.0000000   0.0000000
 AtZNuc=   6.0000000   6.0000000   6.0000000   6.0000000   6.0000000   6.0000000   6.0000000   6.0000000   6.0000000   6.0000000

  Atom        61          62          63          64          65          66          67          68          69          70
 IAtWgt=          12          12          12          12          12          12          12          12          12          12
 AtmWgt=  12.0000000  12.0000000  12.0000000  12.0000000  12.0000000  12.0000000  12.0000000  12.0000000  12.0000000  12.0000000
 NucSpn=           0           0           0           0           0           0           0           0           0           0
 AtZEff=  -0.0000000  -0.0000000  -0.0000000  -0.0000000  -0.0000000  -0.0000000  -0.0000000  -0.0000000  -0.0000000  -0.0000000
 NQMom=    0.0000000   0.0000000   0.0000000   0.0000000   0.0000000   0.0000000   0.0000000   0.0000000   0.0000000   0.0000000
 NMagM=    0.0000000   0.0000000   0.0000000   0.0000000   0.0000000   0.0000000   0.0000000   0.0000000   0.0000000   0.0000000
 AtZNuc=   6.0000000   6.0000000   6.0000000   6.0000000   6.0000000   6.0000000   6.0000000   6.0000000   6.0000000   6.0000000

  Atom        71          72          73          74          75          76          77          78          79          80
 IAtWgt=          12          12          12          12          12          12          12          12          12          12
 AtmWgt=  12.0000000  12.0000000  12.0000000  12.0000000  12.0000000  12.0000000  12.0000000  12.0000000  12.0000000  12.0000000
 NucSpn=           0           0           0           0           0           0           0           0           0           0
 AtZEff=  -0.0000000  -0.0000000  -0.0000000  -0.0000000  -0.0000000  -0.0000000  -0.0000000  -0.0000000  -0.0000000  -0.0000000
 NQMom=    0.0000000   0.0000000   0.0000000   0.0000000   0.0000000   0.0000000   0.0000000   0.0000000   0.0000000   0.0000000
 NMagM=    0.0000000   0.0000000   0.0000000   0.0000000   0.0000000   0.0000000   0.0000000   0.0000000   0.0000000   0.0000000
 AtZNuc=   6.0000000   6.0000000   6.0000000   6.0000000   6.0000000   6.0000000   6.0000000   6.0000000   6.0000000   6.0000000

  Atom        81          82          83          84          85          86          87          88          89          90
 IAtWgt=          12          12          12          12          35          35          35          35          35          35
 AtmWgt=  12.0000000  12.0000000  12.0000000  12.0000000  34.9688527  34.9688527  34.9688527  34.9688527  34.9688527  34.9688527
 NucSpn=           0           0           0           0           3           3           3           3           3           3
 AtZEff=  -0.0000000  -0.0000000  -0.0000000  -0.0000000  -0.0000000  -0.0000000  -0.0000000  -0.0000000  -0.0000000  -0.0000000
 NQMom=    0.0000000   0.0000000   0.0000000   0.0000000  -8.1650000  -8.1650000  -8.1650000  -8.1650000  -8.1650000  -8.1650000
 NMagM=    0.0000000   0.0000000   0.0000000   0.0000000   0.8218740   0.8218740   0.8218740   0.8218740   0.8218740   0.8218740
 AtZNuc=   6.0000000   6.0000000   6.0000000   6.0000000  17.0000000  17.0000000  17.0000000  17.0000000  17.0000000  17.0000000

  Atom        91          92          93          94          95          96          97          98          99         100
 IAtWgt=          35          35          35          35          35          35          35          35          35          35
 AtmWgt=  34.9688527  34.9688527  34.9688527  34.9688527  34.9688527  34.9688527  34.9688527  34.9688527  34.9688527  34.9688527
 NucSpn=           3           3           3           3           3           3           3           3           3           3
 AtZEff=  -0.0000000  -0.0000000  -0.0000000  -0.0000000  -0.0000000  -0.0000000  -0.0000000  -0.0000000  -0.0000000  -0.0000000
 NQMom=   -8.1650000  -8.1650000  -8.1650000  -8.1650000  -8.1650000  -8.1650000  -8.1650000  -8.1650000  -8.1650000  -8.1650000
 NMagM=    0.8218740   0.8218740   0.8218740   0.8218740   0.8218740   0.8218740   0.8218740   0.8218740   0.8218740   0.8218740
 AtZNuc=  17.0000000  17.0000000  17.0000000  17.0000000  17.0000000  17.0000000  17.0000000  17.0000000  17.0000000  17.0000000

  Atom       101         102         103         104
 IAtWgt=          35          35          35          35
 AtmWgt=  34.9688527  34.9688527  34.9688527  34.9688527
 NucSpn=           3           3           3           3
 AtZEff=  -0.0000000  -0.0000000  -0.0000000  -0.0000000
 NQMom=   -8.1650000  -8.1650000  -8.1650000  -8.1650000
 NMagM=    0.8218740   0.8218740   0.8218740   0.8218740
 AtZNuc=  17.0000000  17.0000000  17.0000000  17.0000000
 Leave Link  101 at Wed Jun 29 09:28:02 2022, MaxMem=  1342177280 cpu:               6.8 elap:               0.3
 (Enter /home/mkliu/g16/l103.exe)

 GradGradGradGradGradGradGradGradGradGradGradGradGradGradGradGradGradGrad
 Berny optimization.
 Initialization pass.
                           ----------------------------
                           !    Initial Parameters    !
                           ! (Angstroms and Degrees)  !
 --------------------------                            --------------------------
 ! Name  Definition              Value          Derivative Info.                !
 --------------------------------------------------------------------------------
 ! R1    R(1,5)                  1.5098         estimate D2E/DX2                !
 ! R2    R(1,17)                 1.4941         estimate D2E/DX2                !
 ! R3    R(1,23)                 1.5094         estimate D2E/DX2                !
 ! R4    R(1,86)                 1.8137         estimate D2E/DX2                !
 ! R5    R(2,6)                  1.5004         estimate D2E/DX2                !
 ! R6    R(2,43)                 1.5139         estimate D2E/DX2                !
 ! R7    R(2,44)                 1.5104         estimate D2E/DX2                !
 ! R8    R(2,90)                 1.7999         estimate D2E/DX2                !
 ! R9    R(3,7)                  1.5068         estimate D2E/DX2                !
 ! R10   R(3,18)                 1.3813         estimate D2E/DX2                !
 ! R11   R(3,26)                 1.4089         estimate D2E/DX2                !
 ! R12   R(4,8)                  1.4993         estimate D2E/DX2                !
 ! R13   R(4,45)                 1.5084         estimate D2E/DX2                !
 ! R14   R(4,46)                 1.5085         estimate D2E/DX2                !
 ! R15   R(4,95)                 1.8019         estimate D2E/DX2                !
 ! R16   R(5,9)                  1.4257         estimate D2E/DX2                !
 ! R17   R(5,29)                 1.3875         estimate D2E/DX2                !
 ! R18   R(6,10)                 1.3396         estimate D2E/DX2                !
 ! R19   R(6,15)                 1.5064         estimate D2E/DX2                !
 ! R20   R(7,12)                 1.5058         estimate D2E/DX2                !
 ! R21   R(7,30)                 1.5005         estimate D2E/DX2                !
 ! R22   R(7,99)                 1.8035         estimate D2E/DX2                !
 ! R23   R(8,11)                 1.3371         estimate D2E/DX2                !
 ! R24   R(8,16)                 1.5051         estimate D2E/DX2                !
 ! R25   R(9,13)                 1.4084         estimate D2E/DX2                !
 ! R26   R(9,35)                 1.4299         estimate D2E/DX2                !
 ! R27   R(10,49)                1.5077         estimate D2E/DX2                !
 ! R28   R(10,53)                1.4433         estimate D2E/DX2                !
 ! R29   R(11,50)                1.5093         estimate D2E/DX2                !
 ! R30   R(11,54)                1.4431         estimate D2E/DX2                !
 ! R31   R(12,14)                1.3832         estimate D2E/DX2                !
 ! R32   R(12,36)                1.4004         estimate D2E/DX2                !
 ! R33   R(13,15)                1.4991         estimate D2E/DX2                !
 ! R34   R(13,43)                1.3769         estimate D2E/DX2                !
 ! R35   R(14,16)                1.5028         estimate D2E/DX2                !
 ! R36   R(14,46)                1.388          estimate D2E/DX2                !
 ! R37   R(15,17)                1.475          estimate D2E/DX2                !
 ! R38   R(15,104)               1.8227         estimate D2E/DX2                !
 ! R39   R(16,18)                1.5014         estimate D2E/DX2                !
 ! R40   R(16,100)               1.8141         estimate D2E/DX2                !
 ! R41   R(17,19)                1.3515         estimate D2E/DX2                !
 ! R42   R(18,20)                1.4184         estimate D2E/DX2                !
 ! R43   R(19,21)                1.4982         estimate D2E/DX2                !
 ! R44   R(19,53)                1.4126         estimate D2E/DX2                !
 ! R45   R(20,22)                1.4048         estimate D2E/DX2                !
 ! R46   R(20,54)                1.4221         estimate D2E/DX2                !
 ! R47   R(21,23)                1.5021         estimate D2E/DX2                !
 ! R48   R(21,57)                1.5112         estimate D2E/DX2                !
 ! R49   R(21,103)               1.8125         estimate D2E/DX2                !
 ! R50   R(22,24)                1.4048         estimate D2E/DX2                !
 ! R51   R(22,58)                1.4348         estimate D2E/DX2                !
 ! R52   R(23,25)                1.3232         estimate D2E/DX2                !
 ! R53   R(24,26)                1.3659         estimate D2E/DX2                !
 ! R54   R(24,62)                1.5006         estimate D2E/DX2                !
 ! R55   R(25,27)                1.5012         estimate D2E/DX2                !
 ! R56   R(25,61)                1.5015         estimate D2E/DX2                !
 ! R57   R(26,28)                1.4972         estimate D2E/DX2                !
 ! R58   R(27,29)                1.5051         estimate D2E/DX2                !
 ! R59   R(27,65)                1.5076         estimate D2E/DX2                !
 ! R60   R(27,85)                1.7995         estimate D2E/DX2                !
 ! R61   R(28,30)                1.5005         estimate D2E/DX2                !
 ! R62   R(28,66)                1.5183         estimate D2E/DX2                !
 ! R63   R(28,89)                1.8023         estimate D2E/DX2                !
 ! R64   R(29,31)                1.3961         estimate D2E/DX2                !
 ! R65   R(30,32)                1.3231         estimate D2E/DX2                !
 ! R66   R(31,33)                1.3866         estimate D2E/DX2                !
 ! R67   R(31,69)                1.5188         estimate D2E/DX2                !
 ! R68   R(32,34)                1.5049         estimate D2E/DX2                !
 ! R69   R(32,70)                1.504          estimate D2E/DX2                !
 ! R70   R(33,35)                1.4104         estimate D2E/DX2                !
 ! R71   R(33,73)                1.4448         estimate D2E/DX2                !
 ! R72   R(34,36)                1.5147         estimate D2E/DX2                !
 ! R73   R(34,74)                1.4935         estimate D2E/DX2                !
 ! R74   R(34,98)                1.8045         estimate D2E/DX2                !
 ! R75   R(35,37)                1.4261         estimate D2E/DX2                !
 ! R76   R(36,38)                1.4029         estimate D2E/DX2                !
 ! R77   R(37,39)                1.3826         estimate D2E/DX2                !
 ! R78   R(37,77)                1.5149         estimate D2E/DX2                !
 ! R79   R(38,42)                1.4003         estimate D2E/DX2                !
 ! R80   R(38,78)                1.5136         estimate D2E/DX2                !
 ! R81   R(39,43)                1.4001         estimate D2E/DX2                !
 ! R82   R(39,79)                1.5031         estimate D2E/DX2                !
 ! R83   R(40,41)                1.3879         estimate D2E/DX2                !
 ! R84   R(40,44)                1.3866         estimate D2E/DX2                !
 ! R85   R(40,79)                1.5058         estimate D2E/DX2                !
 ! R86   R(41,45)                1.3853         estimate D2E/DX2                !
 ! R87   R(41,80)                1.5069         estimate D2E/DX2                !
 ! R88   R(42,46)                1.383          estimate D2E/DX2                !
 ! R89   R(42,80)                1.5039         estimate D2E/DX2                !
 ! R90   R(44,47)                1.3998         estimate D2E/DX2                !
 ! R91   R(45,48)                1.3988         estimate D2E/DX2                !
 ! R92   R(47,48)                1.4049         estimate D2E/DX2                !
 ! R93   R(47,49)                1.5173         estimate D2E/DX2                !
 ! R94   R(48,50)                1.5156         estimate D2E/DX2                !
 ! R95   R(49,51)                1.5037         estimate D2E/DX2                !
 ! R96   R(49,91)                1.7979         estimate D2E/DX2                !
 ! R97   R(50,52)                1.4989         estimate D2E/DX2                !
 ! R98   R(50,92)                1.7983         estimate D2E/DX2                !
 ! R99   R(51,52)                1.3469         estimate D2E/DX2                !
 ! R100  R(51,55)                1.4346         estimate D2E/DX2                !
 ! R101  R(52,56)                1.4313         estimate D2E/DX2                !
 ! R102  R(53,55)                1.3845         estimate D2E/DX2                !
 ! R103  R(54,56)                1.396          estimate D2E/DX2                !
 ! R104  R(55,83)                1.4431         estimate D2E/DX2                !
 ! R105  R(56,84)                1.4257         estimate D2E/DX2                !
 ! R106  R(57,59)                1.4067         estimate D2E/DX2                !
 ! R107  R(57,83)                1.4112         estimate D2E/DX2                !
 ! R108  R(58,60)                1.403          estimate D2E/DX2                !
 ! R109  R(58,84)                1.3997         estimate D2E/DX2                !
 ! R110  R(59,60)                1.383          estimate D2E/DX2                !
 ! R111  R(59,61)                1.507          estimate D2E/DX2                !
 ! R112  R(60,62)                1.5164         estimate D2E/DX2                !
 ! R113  R(61,63)                1.5087         estimate D2E/DX2                !
 ! R114  R(61,102)               1.8021         estimate D2E/DX2                !
 ! R115  R(62,64)                1.5037         estimate D2E/DX2                !
 ! R116  R(62,101)               1.7982         estimate D2E/DX2                !
 ! R117  R(63,64)                1.3838         estimate D2E/DX2                !
 ! R118  R(63,65)                1.3868         estimate D2E/DX2                !
 ! R119  R(64,66)                1.4026         estimate D2E/DX2                !
 ! R120  R(65,67)                1.3846         estimate D2E/DX2                !
 ! R121  R(66,68)                1.4014         estimate D2E/DX2                !
 ! R122  R(67,68)                1.4024         estimate D2E/DX2                !
 ! R123  R(67,69)                1.5042         estimate D2E/DX2                !
 ! R124  R(68,70)                1.5181         estimate D2E/DX2                !
 ! R125  R(69,71)                1.5            estimate D2E/DX2                !
 ! R126  R(69,87)                1.7972         estimate D2E/DX2                !
 ! R127  R(70,72)                1.4981         estimate D2E/DX2                !
 ! R128  R(70,88)                1.8028         estimate D2E/DX2                !
 ! R129  R(71,72)                1.3719         estimate D2E/DX2                !
 ! R130  R(71,73)                1.4058         estimate D2E/DX2                !
 ! R131  R(72,74)                1.4052         estimate D2E/DX2                !
 ! R132  R(73,75)                1.3756         estimate D2E/DX2                !
 ! R133  R(74,76)                1.3761         estimate D2E/DX2                !
 ! R134  R(75,76)                1.3969         estimate D2E/DX2                !
 ! R135  R(75,77)                1.4926         estimate D2E/DX2                !
 ! R136  R(76,78)                1.4955         estimate D2E/DX2                !
 ! R137  R(77,81)                1.5052         estimate D2E/DX2                !
 ! R138  R(77,94)                1.8114         estimate D2E/DX2                !
 ! R139  R(78,81)                1.5097         estimate D2E/DX2                !
 ! R140  R(78,97)                1.8027         estimate D2E/DX2                !
 ! R141  R(79,82)                1.5011         estimate D2E/DX2                !
 ! R142  R(79,93)                1.7998         estimate D2E/DX2                !
 ! R143  R(80,82)                1.4983         estimate D2E/DX2                !
 ! R144  R(80,96)                1.7998         estimate D2E/DX2                !
 ! R145  R(81,82)                1.3236         estimate D2E/DX2                !
 ! R146  R(83,84)                1.4237         estimate D2E/DX2                !
 ! A1    A(5,1,17)             112.9633         estimate D2E/DX2                !
 ! A2    A(5,1,23)             110.594          estimate D2E/DX2                !
 ! A3    A(5,1,86)             108.2873         estimate D2E/DX2                !
 ! A4    A(17,1,23)            101.167          estimate D2E/DX2                !
 ! A5    A(17,1,86)            112.0273         estimate D2E/DX2                !
 ! A6    A(23,1,86)            111.7373         estimate D2E/DX2                !
 ! A7    A(6,2,43)             100.6305         estimate D2E/DX2                !
 ! A8    A(6,2,44)             111.7443         estimate D2E/DX2                !
 ! A9    A(6,2,90)             113.4159         estimate D2E/DX2                !
 ! A10   A(43,2,44)            107.0586         estimate D2E/DX2                !
 ! A11   A(43,2,90)            113.146          estimate D2E/DX2                !
 ! A12   A(44,2,90)            110.3641         estimate D2E/DX2                !
 ! A13   A(7,3,18)             124.4444         estimate D2E/DX2                !
 ! A14   A(7,3,26)             109.9246         estimate D2E/DX2                !
 ! A15   A(18,3,26)            121.8416         estimate D2E/DX2                !
 ! A16   A(8,4,45)             111.6941         estimate D2E/DX2                !
 ! A17   A(8,4,46)             100.4025         estimate D2E/DX2                !
 ! A18   A(8,4,95)             113.6328         estimate D2E/DX2                !
 ! A19   A(45,4,46)            107.9844         estimate D2E/DX2                !
 ! A20   A(45,4,95)            110.2601         estimate D2E/DX2                !
 ! A21   A(46,4,95)            112.4114         estimate D2E/DX2                !
 ! A22   A(1,5,9)              119.6995         estimate D2E/DX2                !
 ! A23   A(1,5,29)             118.7225         estimate D2E/DX2                !
 ! A24   A(9,5,29)             120.0357         estimate D2E/DX2                !
 ! A25   A(2,6,10)             121.4309         estimate D2E/DX2                !
 ! A26   A(2,6,15)             110.4562         estimate D2E/DX2                !
 ! A27   A(10,6,15)            122.1418         estimate D2E/DX2                !
 ! A28   A(3,7,12)             109.7529         estimate D2E/DX2                !
 ! A29   A(3,7,30)             101.4643         estimate D2E/DX2                !
 ! A30   A(3,7,99)             112.2517         estimate D2E/DX2                !
 ! A31   A(12,7,30)            110.4081         estimate D2E/DX2                !
 ! A32   A(12,7,99)            110.1664         estimate D2E/DX2                !
 ! A33   A(30,7,99)            112.5087         estimate D2E/DX2                !
 ! A34   A(4,8,11)             120.9366         estimate D2E/DX2                !
 ! A35   A(4,8,16)             111.5586         estimate D2E/DX2                !
 ! A36   A(11,8,16)            122.4265         estimate D2E/DX2                !
 ! A37   A(5,9,13)             120.3551         estimate D2E/DX2                !
 ! A38   A(5,9,35)             120.5424         estimate D2E/DX2                !
 ! A39   A(13,9,35)            116.3273         estimate D2E/DX2                !
 ! A40   A(6,10,49)            124.1485         estimate D2E/DX2                !
 ! A41   A(6,10,53)            120.645          estimate D2E/DX2                !
 ! A42   A(49,10,53)           109.2258         estimate D2E/DX2                !
 ! A43   A(8,11,50)            123.6927         estimate D2E/DX2                !
 ! A44   A(8,11,54)            120.8591         estimate D2E/DX2                !
 ! A45   A(50,11,54)           110.023          estimate D2E/DX2                !
 ! A46   A(7,12,14)            117.1042         estimate D2E/DX2                !
 ! A47   A(7,12,36)            122.6856         estimate D2E/DX2                !
 ! A48   A(14,12,36)           118.9677         estimate D2E/DX2                !
 ! A49   A(9,13,15)            124.9025         estimate D2E/DX2                !
 ! A50   A(9,13,43)            121.1368         estimate D2E/DX2                !
 ! A51   A(15,13,43)           110.8495         estimate D2E/DX2                !
 ! A52   A(12,14,16)           125.3361         estimate D2E/DX2                !
 ! A53   A(12,14,46)           121.0451         estimate D2E/DX2                !
 ! A54   A(16,14,46)           111.1752         estimate D2E/DX2                !
 ! A55   A(6,15,13)            100.5517         estimate D2E/DX2                !
 ! A56   A(6,15,17)            113.1131         estimate D2E/DX2                !
 ! A57   A(6,15,104)           111.9089         estimate D2E/DX2                !
 ! A58   A(13,15,17)           109.1306         estimate D2E/DX2                !
 ! A59   A(13,15,104)          110.0953         estimate D2E/DX2                !
 ! A60   A(17,15,104)          111.4788         estimate D2E/DX2                !
 ! A61   A(8,16,14)            100.6073         estimate D2E/DX2                !
 ! A62   A(8,16,18)            113.9556         estimate D2E/DX2                !
 ! A63   A(8,16,100)           111.3016         estimate D2E/DX2                !
 ! A64   A(14,16,18)           109.1576         estimate D2E/DX2                !
 ! A65   A(14,16,100)          111.2997         estimate D2E/DX2                !
 ! A66   A(18,16,100)          110.1778         estimate D2E/DX2                !
 ! A67   A(1,17,15)            122.6281         estimate D2E/DX2                !
 ! A68   A(1,17,19)            111.8446         estimate D2E/DX2                !
 ! A69   A(15,17,19)           122.544          estimate D2E/DX2                !
 ! A70   A(3,18,16)            118.0349         estimate D2E/DX2                !
 ! A71   A(3,18,20)            118.8385         estimate D2E/DX2                !
 ! A72   A(16,18,20)           120.0642         estimate D2E/DX2                !
 ! A73   A(17,19,21)           112.9762         estimate D2E/DX2                !
 ! A74   A(17,19,53)           121.1437         estimate D2E/DX2                !
 ! A75   A(21,19,53)           121.0264         estimate D2E/DX2                !
 ! A76   A(18,20,22)           118.404          estimate D2E/DX2                !
 ! A77   A(18,20,54)           120.1499         estimate D2E/DX2                !
 ! A78   A(22,20,54)           115.7974         estimate D2E/DX2                !
 ! A79   A(19,21,23)           100.4539         estimate D2E/DX2                !
 ! A80   A(19,21,57)           112.5022         estimate D2E/DX2                !
 ! A81   A(19,21,103)          111.5316         estimate D2E/DX2                !
 ! A82   A(23,21,57)           112.0148         estimate D2E/DX2                !
 ! A83   A(23,21,103)          111.9063         estimate D2E/DX2                !
 ! A84   A(57,21,103)          108.3548         estimate D2E/DX2                !
 ! A85   A(20,22,24)           121.8134         estimate D2E/DX2                !
 ! A86   A(20,22,58)           121.454          estimate D2E/DX2                !
 ! A87   A(24,22,58)           108.1183         estimate D2E/DX2                !
 ! A88   A(1,23,21)            111.718          estimate D2E/DX2                !
 ! A89   A(1,23,25)            122.7713         estimate D2E/DX2                !
 ! A90   A(21,23,25)           122.7122         estimate D2E/DX2                !
 ! A91   A(22,24,26)           119.0549         estimate D2E/DX2                !
 ! A92   A(22,24,62)           110.7376         estimate D2E/DX2                !
 ! A93   A(26,24,62)           122.8498         estimate D2E/DX2                !
 ! A94   A(23,25,27)           122.0833         estimate D2E/DX2                !
 ! A95   A(23,25,61)           122.2126         estimate D2E/DX2                !
 ! A96   A(27,25,61)           111.8268         estimate D2E/DX2                !
 ! A97   A(3,26,24)            120.0064         estimate D2E/DX2                !
 ! A98   A(3,26,28)            112.4455         estimate D2E/DX2                !
 ! A99   A(24,26,28)           122.1721         estimate D2E/DX2                !
 ! A100  A(25,27,29)           111.6734         estimate D2E/DX2                !
 ! A101  A(25,27,65)           100.3392         estimate D2E/DX2                !
 ! A102  A(25,27,85)           112.5721         estimate D2E/DX2                !
 ! A103  A(29,27,65)           107.9153         estimate D2E/DX2                !
 ! A104  A(29,27,85)           111.2477         estimate D2E/DX2                !
 ! A105  A(65,27,85)           112.5591         estimate D2E/DX2                !
 ! A106  A(26,28,30)           100.8628         estimate D2E/DX2                !
 ! A107  A(26,28,66)           109.5933         estimate D2E/DX2                !
 ! A108  A(26,28,89)           113.3442         estimate D2E/DX2                !
 ! A109  A(30,28,66)           110.9403         estimate D2E/DX2                !
 ! A110  A(30,28,89)           112.7726         estimate D2E/DX2                !
 ! A111  A(66,28,89)           109.1176         estimate D2E/DX2                !
 ! A112  A(5,29,27)            122.6745         estimate D2E/DX2                !
 ! A113  A(5,29,31)            119.1436         estimate D2E/DX2                !
 ! A114  A(27,29,31)           116.0733         estimate D2E/DX2                !
 ! A115  A(7,30,28)            112.6158         estimate D2E/DX2                !
 ! A116  A(7,30,32)            122.0486         estimate D2E/DX2                !
 ! A117  A(28,30,32)           122.0744         estimate D2E/DX2                !
 ! A118  A(29,31,33)           120.9623         estimate D2E/DX2                !
 ! A119  A(29,31,69)           124.5713         estimate D2E/DX2                !
 ! A120  A(33,31,69)           110.2512         estimate D2E/DX2                !
 ! A121  A(30,32,34)           122.6445         estimate D2E/DX2                !
 ! A122  A(30,32,70)           121.717          estimate D2E/DX2                !
 ! A123  A(34,32,70)           112.8251         estimate D2E/DX2                !
 ! A124  A(31,33,35)           121.5867         estimate D2E/DX2                !
 ! A125  A(31,33,73)           108.7958         estimate D2E/DX2                !
 ! A126  A(35,33,73)           120.9223         estimate D2E/DX2                !
 ! A127  A(32,34,36)           110.477          estimate D2E/DX2                !
 ! A128  A(32,34,74)           101.1164         estimate D2E/DX2                !
 ! A129  A(32,34,98)           112.3316         estimate D2E/DX2                !
 ! A130  A(36,34,74)           110.5814         estimate D2E/DX2                !
 ! A131  A(36,34,98)           108.9779         estimate D2E/DX2                !
 ! A132  A(74,34,98)           113.1893         estimate D2E/DX2                !
 ! A133  A(9,35,33)            116.4156         estimate D2E/DX2                !
 ! A134  A(9,35,37)            121.0402         estimate D2E/DX2                !
 ! A135  A(33,35,37)           119.4091         estimate D2E/DX2                !
 ! A136  A(12,36,34)           118.1244         estimate D2E/DX2                !
 ! A137  A(12,36,38)           120.0142         estimate D2E/DX2                !
 ! A138  A(34,36,38)           121.1722         estimate D2E/DX2                !
 ! A139  A(35,37,39)           119.4146         estimate D2E/DX2                !
 ! A140  A(35,37,77)           120.7696         estimate D2E/DX2                !
 ! A141  A(39,37,77)           118.5526         estimate D2E/DX2                !
 ! A142  A(36,38,42)           120.1385         estimate D2E/DX2                !
 ! A143  A(36,38,78)           121.1174         estimate D2E/DX2                !
 ! A144  A(42,38,78)           118.0444         estimate D2E/DX2                !
 ! A145  A(37,39,43)           119.1795         estimate D2E/DX2                !
 ! A146  A(37,39,79)           122.6602         estimate D2E/DX2                !
 ! A147  A(43,39,79)           116.593          estimate D2E/DX2                !
 ! A148  A(41,40,44)           121.2371         estimate D2E/DX2                !
 ! A149  A(41,40,79)           111.1801         estimate D2E/DX2                !
 ! A150  A(44,40,79)           124.9794         estimate D2E/DX2                !
 ! A151  A(40,41,45)           120.9378         estimate D2E/DX2                !
 ! A152  A(40,41,80)           111.4308         estimate D2E/DX2                !
 ! A153  A(45,41,80)           125.1155         estimate D2E/DX2                !
 ! A154  A(38,42,46)           119.1158         estimate D2E/DX2                !
 ! A155  A(38,42,80)           123.0403         estimate D2E/DX2                !
 ! A156  A(46,42,80)           116.4213         estimate D2E/DX2                !
 ! A157  A(2,43,13)            111.4465         estimate D2E/DX2                !
 ! A158  A(2,43,39)            124.1563         estimate D2E/DX2                !
 ! A159  A(13,43,39)           121.5699         estimate D2E/DX2                !
 ! A160  A(2,44,40)            116.3381         estimate D2E/DX2                !
 ! A161  A(2,44,47)            123.7873         estimate D2E/DX2                !
 ! A162  A(40,44,47)           118.5086         estimate D2E/DX2                !
 ! A163  A(4,45,41)            116.4508         estimate D2E/DX2                !
 ! A164  A(4,45,48)            123.6069         estimate D2E/DX2                !
 ! A165  A(41,45,48)           118.5773         estimate D2E/DX2                !
 ! A166  A(4,46,14)            111.5168         estimate D2E/DX2                !
 ! A167  A(4,46,42)            125.3228         estimate D2E/DX2                !
 ! A168  A(14,46,42)           120.6505         estimate D2E/DX2                !
 ! A169  A(44,47,48)           120.1926         estimate D2E/DX2                !
 ! A170  A(44,47,49)           118.6271         estimate D2E/DX2                !
 ! A171  A(48,47,49)           120.4805         estimate D2E/DX2                !
 ! A172  A(45,48,47)           120.5131         estimate D2E/DX2                !
 ! A173  A(45,48,50)           118.0542         estimate D2E/DX2                !
 ! A174  A(47,48,50)           120.651          estimate D2E/DX2                !
 ! A175  A(10,49,47)           110.6556         estimate D2E/DX2                !
 ! A176  A(10,49,51)           101.2004         estimate D2E/DX2                !
 ! A177  A(10,49,91)           112.7733         estimate D2E/DX2                !
 ! A178  A(47,49,51)           109.136          estimate D2E/DX2                !
 ! A179  A(47,49,91)           109.0471         estimate D2E/DX2                !
 ! A180  A(51,49,91)           113.8126         estimate D2E/DX2                !
 ! A181  A(11,50,48)           110.3963         estimate D2E/DX2                !
 ! A182  A(11,50,52)           101.2574         estimate D2E/DX2                !
 ! A183  A(11,50,92)           112.4403         estimate D2E/DX2                !
 ! A184  A(48,50,52)           109.3014         estimate D2E/DX2                !
 ! A185  A(48,50,92)           109.3698         estimate D2E/DX2                !
 ! A186  A(52,50,92)           113.8322         estimate D2E/DX2                !
 ! A187  A(49,51,52)           121.7641         estimate D2E/DX2                !
 ! A188  A(49,51,55)           110.7351         estimate D2E/DX2                !
 ! A189  A(52,51,55)           121.055          estimate D2E/DX2                !
 ! A190  A(50,52,51)           122.658          estimate D2E/DX2                !
 ! A191  A(50,52,56)           110.693          estimate D2E/DX2                !
 ! A192  A(51,52,56)           119.6095         estimate D2E/DX2                !
 ! A193  A(10,53,19)           119.2353         estimate D2E/DX2                !
 ! A194  A(10,53,55)           109.5452         estimate D2E/DX2                !
 ! A195  A(19,53,55)           119.5416         estimate D2E/DX2                !
 ! A196  A(11,54,20)           120.3894         estimate D2E/DX2                !
 ! A197  A(11,54,56)           108.5674         estimate D2E/DX2                !
 ! A198  A(20,54,56)           121.8106         estimate D2E/DX2                !
 ! A199  A(51,55,53)           108.3899         estimate D2E/DX2                !
 ! A200  A(51,55,83)           121.2531         estimate D2E/DX2                !
 ! A201  A(53,55,83)           121.8924         estimate D2E/DX2                !
 ! A202  A(52,56,54)           109.0944         estimate D2E/DX2                !
 ! A203  A(52,56,84)           120.63           estimate D2E/DX2                !
 ! A204  A(54,56,84)           122.2396         estimate D2E/DX2                !
 ! A205  A(21,57,59)           118.3889         estimate D2E/DX2                !
 ! A206  A(21,57,83)           119.5626         estimate D2E/DX2                !
 ! A207  A(59,57,83)           120.8254         estimate D2E/DX2                !
 ! A208  A(22,58,60)           109.1617         estimate D2E/DX2                !
 ! A209  A(22,58,84)           121.7899         estimate D2E/DX2                !
 ! A210  A(60,58,84)           121.6647         estimate D2E/DX2                !
 ! A211  A(57,59,60)           119.5431         estimate D2E/DX2                !
 ! A212  A(57,59,61)           122.3022         estimate D2E/DX2                !
 ! A213  A(60,59,61)           116.0267         estimate D2E/DX2                !
 ! A214  A(58,60,59)           120.0887         estimate D2E/DX2                !
 ! A215  A(58,60,62)           109.5743         estimate D2E/DX2                !
 ! A216  A(59,60,62)           125.4995         estimate D2E/DX2                !
 ! A217  A(25,61,59)           112.3346         estimate D2E/DX2                !
 ! A218  A(25,61,63)           100.1057         estimate D2E/DX2                !
 ! A219  A(25,61,102)          112.6449         estimate D2E/DX2                !
 ! A220  A(59,61,63)           108.8782         estimate D2E/DX2                !
 ! A221  A(59,61,102)          110.556          estimate D2E/DX2                !
 ! A222  A(63,61,102)          111.8836         estimate D2E/DX2                !
 ! A223  A(24,62,60)           101.2745         estimate D2E/DX2                !
 ! A224  A(24,62,64)           109.3103         estimate D2E/DX2                !
 ! A225  A(24,62,101)          113.6773         estimate D2E/DX2                !
 ! A226  A(60,62,64)           109.253          estimate D2E/DX2                !
 ! A227  A(60,62,101)          112.5903         estimate D2E/DX2                !
 ! A228  A(64,62,101)          110.3445         estimate D2E/DX2                !
 ! A229  A(61,63,64)           125.6943         estimate D2E/DX2                !
 ! A230  A(61,63,65)           111.4563         estimate D2E/DX2                !
 ! A231  A(64,63,65)           120.6255         estimate D2E/DX2                !
 ! A232  A(62,64,63)           116.1492         estimate D2E/DX2                !
 ! A233  A(62,64,66)           123.4233         estimate D2E/DX2                !
 ! A234  A(63,64,66)           119.27           estimate D2E/DX2                !
 ! A235  A(27,65,63)           111.3154         estimate D2E/DX2                !
 ! A236  A(27,65,67)           125.4818         estimate D2E/DX2                !
 ! A237  A(63,65,67)           120.8888         estimate D2E/DX2                !
 ! A238  A(28,66,64)           119.3642         estimate D2E/DX2                !
 ! A239  A(28,66,68)           119.8609         estimate D2E/DX2                !
 ! A240  A(64,66,68)           120.0881         estimate D2E/DX2                !
 ! A241  A(65,67,68)           119.241          estimate D2E/DX2                !
 ! A242  A(65,67,69)           115.9932         estimate D2E/DX2                !
 ! A243  A(68,67,69)           123.6067         estimate D2E/DX2                !
 ! A244  A(66,68,67)           119.8476         estimate D2E/DX2                !
 ! A245  A(66,68,70)           119.7449         estimate D2E/DX2                !
 ! A246  A(67,68,70)           119.8174         estimate D2E/DX2                !
 ! A247  A(31,69,67)           108.0556         estimate D2E/DX2                !
 ! A248  A(31,69,71)           101.469          estimate D2E/DX2                !
 ! A249  A(31,69,87)           113.3111         estimate D2E/DX2                !
 ! A250  A(67,69,71)           110.0063         estimate D2E/DX2                !
 ! A251  A(67,69,87)           110.3779         estimate D2E/DX2                !
 ! A252  A(71,69,87)           113.2095         estimate D2E/DX2                !
 ! A253  A(32,70,68)           110.5724         estimate D2E/DX2                !
 ! A254  A(32,70,72)           101.0474         estimate D2E/DX2                !
 ! A255  A(32,70,88)           112.5162         estimate D2E/DX2                !
 ! A256  A(68,70,72)           110.4185         estimate D2E/DX2                !
 ! A257  A(68,70,88)           108.7553         estimate D2E/DX2                !
 ! A258  A(72,70,88)           113.3801         estimate D2E/DX2                !
 ! A259  A(69,71,72)           123.1056         estimate D2E/DX2                !
 ! A260  A(69,71,73)           109.8977         estimate D2E/DX2                !
 ! A261  A(72,71,73)           118.9845         estimate D2E/DX2                !
 ! A262  A(70,72,71)           122.3722         estimate D2E/DX2                !
 ! A263  A(70,72,74)           111.536          estimate D2E/DX2                !
 ! A264  A(71,72,74)           119.7881         estimate D2E/DX2                !
 ! A265  A(33,73,71)           108.3722         estimate D2E/DX2                !
 ! A266  A(33,73,75)           120.1836         estimate D2E/DX2                !
 ! A267  A(71,73,75)           121.2971         estimate D2E/DX2                !
 ! A268  A(34,74,72)           111.6665         estimate D2E/DX2                !
 ! A269  A(34,74,76)           121.724          estimate D2E/DX2                !
 ! A270  A(72,74,76)           120.7208         estimate D2E/DX2                !
 ! A271  A(73,75,76)           119.2267         estimate D2E/DX2                !
 ! A272  A(73,75,77)           121.7689         estimate D2E/DX2                !
 ! A273  A(76,75,77)           112.5162         estimate D2E/DX2                !
 ! A274  A(74,76,75)           119.7701         estimate D2E/DX2                !
 ! A275  A(74,76,78)           122.6884         estimate D2E/DX2                !
 ! A276  A(75,76,78)           111.0421         estimate D2E/DX2                !
 ! A277  A(37,77,75)           112.3691         estimate D2E/DX2                !
 ! A278  A(37,77,81)           111.0078         estimate D2E/DX2                !
 ! A279  A(37,77,94)           108.4724         estimate D2E/DX2                !
 ! A280  A(75,77,81)           100.7343         estimate D2E/DX2                !
 ! A281  A(75,77,94)           112.1638         estimate D2E/DX2                !
 ! A282  A(81,77,94)           112.0058         estimate D2E/DX2                !
 ! A283  A(38,78,76)           110.2199         estimate D2E/DX2                !
 ! A284  A(38,78,81)           110.4602         estimate D2E/DX2                !
 ! A285  A(38,78,97)           109.0787         estimate D2E/DX2                !
 ! A286  A(76,78,81)           101.3954         estimate D2E/DX2                !
 ! A287  A(76,78,97)           113.4131         estimate D2E/DX2                !
 ! A288  A(81,78,97)           112.099          estimate D2E/DX2                !
 ! A289  A(39,79,40)           107.6365         estimate D2E/DX2                !
 ! A290  A(39,79,82)           111.3986         estimate D2E/DX2                !
 ! A291  A(39,79,93)           111.1142         estimate D2E/DX2                !
 ! A292  A(40,79,82)           100.7792         estimate D2E/DX2                !
 ! A293  A(40,79,93)           113.0638         estimate D2E/DX2                !
 ! A294  A(82,79,93)           112.3628         estimate D2E/DX2                !
 ! A295  A(41,80,42)           108.3519         estimate D2E/DX2                !
 ! A296  A(41,80,82)           100.5469         estimate D2E/DX2                !
 ! A297  A(41,80,96)           112.5291         estimate D2E/DX2                !
 ! A298  A(42,80,82)           111.1676         estimate D2E/DX2                !
 ! A299  A(42,80,96)           110.7496         estimate D2E/DX2                !
 ! A300  A(82,80,96)           113.0324         estimate D2E/DX2                !
 ! A301  A(77,81,78)           112.4249         estimate D2E/DX2                !
 ! A302  A(77,81,82)           122.1006         estimate D2E/DX2                !
 ! A303  A(78,81,82)           122.7931         estimate D2E/DX2                !
 ! A304  A(79,82,80)           111.7308         estimate D2E/DX2                !
 ! A305  A(79,82,81)           122.3327         estimate D2E/DX2                !
 ! A306  A(80,82,81)           122.0199         estimate D2E/DX2                !
 ! A307  A(55,83,57)           119.7357         estimate D2E/DX2                !
 ! A308  A(55,83,84)           116.2873         estimate D2E/DX2                !
 ! A309  A(57,83,84)           119.4115         estimate D2E/DX2                !
 ! A310  A(56,84,58)           115.6261         estimate D2E/DX2                !
 ! A311  A(56,84,83)           120.706          estimate D2E/DX2                !
 ! A312  A(58,84,83)           118.3262         estimate D2E/DX2                !
 ! D1    D(17,1,5,9)            20.0476         estimate D2E/DX2                !
 ! D2    D(17,1,5,29)         -145.8001         estimate D2E/DX2                !
 ! D3    D(23,1,5,9)           132.6238         estimate D2E/DX2                !
 ! D4    D(23,1,5,29)          -33.2239         estimate D2E/DX2                !
 ! D5    D(86,1,5,9)          -104.6343         estimate D2E/DX2                !
 ! D6    D(86,1,5,29)           89.5179         estimate D2E/DX2                !
 ! D7    D(5,1,17,15)          -35.9368         estimate D2E/DX2                !
 ! D8    D(5,1,17,19)          124.939          estimate D2E/DX2                !
 ! D9    D(23,1,17,15)        -154.1683         estimate D2E/DX2                !
 ! D10   D(23,1,17,19)           6.7076         estimate D2E/DX2                !
 ! D11   D(86,1,17,15)          86.6822         estimate D2E/DX2                !
 ! D12   D(86,1,17,19)        -112.4419         estimate D2E/DX2                !
 ! D13   D(5,1,23,21)         -132.7774         estimate D2E/DX2                !
 ! D14   D(5,1,23,25)           28.7069         estimate D2E/DX2                !
 ! D15   D(17,1,23,21)         -12.8438         estimate D2E/DX2                !
 ! D16   D(17,1,23,25)         148.6405         estimate D2E/DX2                !
 ! D17   D(86,1,23,21)         106.5137         estimate D2E/DX2                !
 ! D18   D(86,1,23,25)         -92.002          estimate D2E/DX2                !
 ! D19   D(43,2,6,10)         -131.9598         estimate D2E/DX2                !
 ! D20   D(43,2,6,15)           21.3481         estimate D2E/DX2                !
 ! D21   D(44,2,6,10)          -18.6191         estimate D2E/DX2                !
 ! D22   D(44,2,6,15)          134.6888         estimate D2E/DX2                !
 ! D23   D(90,2,6,10)          106.9011         estimate D2E/DX2                !
 ! D24   D(90,2,6,15)          -99.791          estimate D2E/DX2                !
 ! D25   D(6,2,43,13)           -8.697          estimate D2E/DX2                !
 ! D26   D(6,2,43,39)          152.4346         estimate D2E/DX2                !
 ! D27   D(44,2,43,13)        -125.561          estimate D2E/DX2                !
 ! D28   D(44,2,43,39)          35.5706         estimate D2E/DX2                !
 ! D29   D(90,2,43,13)         112.6336         estimate D2E/DX2                !
 ! D30   D(90,2,43,39)         -86.2348         estimate D2E/DX2                !
 ! D31   D(6,2,44,40)         -148.2898         estimate D2E/DX2                !
 ! D32   D(6,2,44,47)           18.1338         estimate D2E/DX2                !
 ! D33   D(43,2,44,40)         -39.0131         estimate D2E/DX2                !
 ! D34   D(43,2,44,47)         127.4105         estimate D2E/DX2                !
 ! D35   D(90,2,44,40)          84.5236         estimate D2E/DX2                !
 ! D36   D(90,2,44,47)        -109.0528         estimate D2E/DX2                !
 ! D37   D(18,3,7,12)           28.707          estimate D2E/DX2                !
 ! D38   D(18,3,7,30)          145.5067         estimate D2E/DX2                !
 ! D39   D(18,3,7,99)          -94.1603         estimate D2E/DX2                !
 ! D40   D(26,3,7,12)         -129.5838         estimate D2E/DX2                !
 ! D41   D(26,3,7,30)          -12.7841         estimate D2E/DX2                !
 ! D42   D(26,3,7,99)          107.5488         estimate D2E/DX2                !
 ! D43   D(7,3,18,16)            5.0368         estimate D2E/DX2                !
 ! D44   D(7,3,18,20)         -155.2048         estimate D2E/DX2                !
 ! D45   D(26,3,18,16)         160.8723         estimate D2E/DX2                !
 ! D46   D(26,3,18,20)           0.6307         estimate D2E/DX2                !
 ! D47   D(7,3,26,24)          159.3796         estimate D2E/DX2                !
 ! D48   D(7,3,26,28)            4.712          estimate D2E/DX2                !
 ! D49   D(18,3,26,24)           0.4235         estimate D2E/DX2                !
 ! D50   D(18,3,26,28)        -154.2442         estimate D2E/DX2                !
 ! D51   D(45,4,8,11)           19.9192         estimate D2E/DX2                !
 ! D52   D(45,4,8,16)         -135.4452         estimate D2E/DX2                !
 ! D53   D(46,4,8,11)          134.1793         estimate D2E/DX2                !
 ! D54   D(46,4,8,16)          -21.1851         estimate D2E/DX2                !
 ! D55   D(95,4,8,11)         -105.5928         estimate D2E/DX2                !
 ! D56   D(95,4,8,16)           99.0427         estimate D2E/DX2                !
 ! D57   D(8,4,45,41)          145.3516         estimate D2E/DX2                !
 ! D58   D(8,4,45,48)          -21.0893         estimate D2E/DX2                !
 ! D59   D(46,4,45,41)          35.8732         estimate D2E/DX2                !
 ! D60   D(46,4,45,48)        -130.5677         estimate D2E/DX2                !
 ! D61   D(95,4,45,41)         -87.2949         estimate D2E/DX2                !
 ! D62   D(95,4,45,48)         106.2642         estimate D2E/DX2                !
 ! D63   D(8,4,46,14)           12.2161         estimate D2E/DX2                !
 ! D64   D(8,4,46,42)         -149.7758         estimate D2E/DX2                !
 ! D65   D(45,4,46,14)         129.2635         estimate D2E/DX2                !
 ! D66   D(45,4,46,42)         -32.7284         estimate D2E/DX2                !
 ! D67   D(95,4,46,14)        -108.8871         estimate D2E/DX2                !
 ! D68   D(95,4,46,42)          89.1211         estimate D2E/DX2                !
 ! D69   D(1,5,9,13)            -8.528          estimate D2E/DX2                !
 ! D70   D(1,5,9,35)          -168.9707         estimate D2E/DX2                !
 ! D71   D(29,5,9,13)          157.132          estimate D2E/DX2                !
 ! D72   D(29,5,9,35)           -3.3107         estimate D2E/DX2                !
 ! D73   D(1,5,29,27)           11.5339         estimate D2E/DX2                !
 ! D74   D(1,5,29,31)          174.3677         estimate D2E/DX2                !
 ! D75   D(9,5,29,27)         -154.2651         estimate D2E/DX2                !
 ! D76   D(9,5,29,31)            8.5687         estimate D2E/DX2                !
 ! D77   D(2,6,10,49)           -5.3256         estimate D2E/DX2                !
 ! D78   D(2,6,10,53)          144.482          estimate D2E/DX2                !
 ! D79   D(15,6,10,49)        -155.5206         estimate D2E/DX2                !
 ! D80   D(15,6,10,53)          -5.7129         estimate D2E/DX2                !
 ! D81   D(2,6,15,13)          -25.1517         estimate D2E/DX2                !
 ! D82   D(2,6,15,17)         -141.3804         estimate D2E/DX2                !
 ! D83   D(2,6,15,104)          91.6956         estimate D2E/DX2                !
 ! D84   D(10,6,15,13)         127.9336         estimate D2E/DX2                !
 ! D85   D(10,6,15,17)          11.7049         estimate D2E/DX2                !
 ! D86   D(10,6,15,104)       -115.2191         estimate D2E/DX2                !
 ! D87   D(3,7,12,14)          -32.3256         estimate D2E/DX2                !
 ! D88   D(3,7,12,36)          134.7923         estimate D2E/DX2                !
 ! D89   D(30,7,12,14)        -143.3601         estimate D2E/DX2                !
 ! D90   D(30,7,12,36)          23.7578         estimate D2E/DX2                !
 ! D91   D(99,7,12,14)          91.7654         estimate D2E/DX2                !
 ! D92   D(99,7,12,36)        -101.1166         estimate D2E/DX2                !
 ! D93   D(3,7,30,28)           17.009          estimate D2E/DX2                !
 ! D94   D(3,7,30,32)         -142.957          estimate D2E/DX2                !
 ! D95   D(12,7,30,28)         133.3296         estimate D2E/DX2                !
 ! D96   D(12,7,30,32)         -26.6364         estimate D2E/DX2                !
 ! D97   D(99,7,30,28)        -103.1424         estimate D2E/DX2                !
 ! D98   D(99,7,30,32)          96.8916         estimate D2E/DX2                !
 ! D99   D(4,8,11,50)            7.1579         estimate D2E/DX2                !
 ! D100  D(4,8,11,54)         -144.217          estimate D2E/DX2                !
 ! D101  D(16,8,11,50)         159.8161         estimate D2E/DX2                !
 ! D102  D(16,8,11,54)           8.4412         estimate D2E/DX2                !
 ! D103  D(4,8,16,14)           21.6403         estimate D2E/DX2                !
 ! D104  D(4,8,16,18)          138.291          estimate D2E/DX2                !
 ! D105  D(4,8,16,100)         -96.3734         estimate D2E/DX2                !
 ! D106  D(11,8,16,14)        -133.2983         estimate D2E/DX2                !
 ! D107  D(11,8,16,18)         -16.6476         estimate D2E/DX2                !
 ! D108  D(11,8,16,100)        108.688          estimate D2E/DX2                !
 ! D109  D(5,9,13,15)            9.8746         estimate D2E/DX2                !
 ! D110  D(5,9,13,43)         -148.3265         estimate D2E/DX2                !
 ! D111  D(35,9,13,15)         171.1107         estimate D2E/DX2                !
 ! D112  D(35,9,13,43)          12.9096         estimate D2E/DX2                !
 ! D113  D(5,9,35,33)           -6.9313         estimate D2E/DX2                !
 ! D114  D(5,9,35,37)          152.9315         estimate D2E/DX2                !
 ! D115  D(13,9,35,33)        -168.13           estimate D2E/DX2                !
 ! D116  D(13,9,35,37)          -8.2672         estimate D2E/DX2                !
 ! D117  D(6,10,49,47)          29.1203         estimate D2E/DX2                !
 ! D118  D(6,10,49,51)         144.7011         estimate D2E/DX2                !
 ! D119  D(6,10,49,91)         -93.3264         estimate D2E/DX2                !
 ! D120  D(53,10,49,47)       -123.607          estimate D2E/DX2                !
 ! D121  D(53,10,49,51)         -8.0262         estimate D2E/DX2                !
 ! D122  D(53,10,49,91)        113.9463         estimate D2E/DX2                !
 ! D123  D(6,10,53,19)          -0.733          estimate D2E/DX2                !
 ! D124  D(6,10,53,55)        -143.6983         estimate D2E/DX2                !
 ! D125  D(49,10,53,19)        153.1134         estimate D2E/DX2                !
 ! D126  D(49,10,53,55)         10.1481         estimate D2E/DX2                !
 ! D127  D(8,11,50,48)         -32.5967         estimate D2E/DX2                !
 ! D128  D(8,11,50,52)        -148.2913         estimate D2E/DX2                !
 ! D129  D(8,11,50,92)          89.8421         estimate D2E/DX2                !
 ! D130  D(54,11,50,48)        121.4453         estimate D2E/DX2                !
 ! D131  D(54,11,50,52)          5.7508         estimate D2E/DX2                !
 ! D132  D(54,11,50,92)       -116.1159         estimate D2E/DX2                !
 ! D133  D(8,11,54,20)           1.4188         estimate D2E/DX2                !
 ! D134  D(8,11,54,56)         148.7296         estimate D2E/DX2                !
 ! D135  D(50,11,54,20)       -153.4782         estimate D2E/DX2                !
 ! D136  D(50,11,54,56)         -6.1674         estimate D2E/DX2                !
 ! D137  D(7,12,14,16)           4.5701         estimate D2E/DX2                !
 ! D138  D(7,12,14,46)         165.2328         estimate D2E/DX2                !
 ! D139  D(36,12,14,16)       -163.0453         estimate D2E/DX2                !
 ! D140  D(36,12,14,46)         -2.3826         estimate D2E/DX2                !
 ! D141  D(7,12,36,34)           5.6687         estimate D2E/DX2                !
 ! D142  D(7,12,36,38)        -164.9313         estimate D2E/DX2                !
 ! D143  D(14,12,36,34)        172.5576         estimate D2E/DX2                !
 ! D144  D(14,12,36,38)          1.9576         estimate D2E/DX2                !
 ! D145  D(9,13,15,6)         -140.8649         estimate D2E/DX2                !
 ! D146  D(9,13,15,17)         -21.7046         estimate D2E/DX2                !
 ! D147  D(9,13,15,104)        100.9512         estimate D2E/DX2                !
 ! D148  D(43,13,15,6)          19.2507         estimate D2E/DX2                !
 ! D149  D(43,13,15,17)        138.411          estimate D2E/DX2                !
 ! D150  D(43,13,15,104)       -98.9332         estimate D2E/DX2                !
 ! D151  D(9,13,43,2)          154.0097         estimate D2E/DX2                !
 ! D152  D(9,13,43,39)          -7.6839         estimate D2E/DX2                !
 ! D153  D(15,13,43,2)          -6.9706         estimate D2E/DX2                !
 ! D154  D(15,13,43,39)       -168.6641         estimate D2E/DX2                !
 ! D155  D(12,14,16,8)         149.0351         estimate D2E/DX2                !
 ! D156  D(12,14,16,18)         28.8784         estimate D2E/DX2                !
 ! D157  D(12,14,16,100)       -92.9498         estimate D2E/DX2                !
 ! D158  D(46,14,16,8)         -13.2524         estimate D2E/DX2                !
 ! D159  D(46,14,16,18)       -133.4091         estimate D2E/DX2                !
 ! D160  D(46,14,16,100)       104.7627         estimate D2E/DX2                !
 ! D161  D(12,14,46,4)        -162.4493         estimate D2E/DX2                !
 ! D162  D(12,14,46,42)          0.501          estimate D2E/DX2                !
 ! D163  D(16,14,46,4)           0.7116         estimate D2E/DX2                !
 ! D164  D(16,14,46,42)        163.6619         estimate D2E/DX2                !
 ! D165  D(6,15,17,1)          146.5058         estimate D2E/DX2                !
 ! D166  D(6,15,17,19)         -12.3488         estimate D2E/DX2                !
 ! D167  D(13,15,17,1)          35.4797         estimate D2E/DX2                !
 ! D168  D(13,15,17,19)       -123.3749         estimate D2E/DX2                !
 ! D169  D(104,15,17,1)        -86.3434         estimate D2E/DX2                !
 ! D170  D(104,15,17,19)       114.802          estimate D2E/DX2                !
 ! D171  D(8,16,18,3)         -144.1236         estimate D2E/DX2                !
 ! D172  D(8,16,18,20)          15.8677         estimate D2E/DX2                !
 ! D173  D(14,16,18,3)         -32.5566         estimate D2E/DX2                !
 ! D174  D(14,16,18,20)        127.4347         estimate D2E/DX2                !
 ! D175  D(100,16,18,3)         89.9471         estimate D2E/DX2                !
 ! D176  D(100,16,18,20)      -110.0616         estimate D2E/DX2                !
 ! D177  D(1,17,19,21)           1.6889         estimate D2E/DX2                !
 ! D178  D(1,17,19,53)        -153.8622         estimate D2E/DX2                !
 ! D179  D(15,17,19,21)        162.5834         estimate D2E/DX2                !
 ! D180  D(15,17,19,53)          7.0323         estimate D2E/DX2                !
 ! D181  D(3,18,20,22)          -0.1201         estimate D2E/DX2                !
 ! D182  D(3,18,20,54)         152.2881         estimate D2E/DX2                !
 ! D183  D(16,18,20,22)       -159.9523         estimate D2E/DX2                !
 ! D184  D(16,18,20,54)         -7.5441         estimate D2E/DX2                !
 ! D185  D(17,19,21,23)         -9.2673         estimate D2E/DX2                !
 ! D186  D(17,19,21,57)       -128.5434         estimate D2E/DX2                !
 ! D187  D(17,19,21,103)       109.4603         estimate D2E/DX2                !
 ! D188  D(53,19,21,23)        146.3159         estimate D2E/DX2                !
 ! D189  D(53,19,21,57)         27.0398         estimate D2E/DX2                !
 ! D190  D(53,19,21,103)       -94.9565         estimate D2E/DX2                !
 ! D191  D(17,19,53,10)          0.1522         estimate D2E/DX2                !
 ! D192  D(17,19,53,55)        139.4288         estimate D2E/DX2                !
 ! D193  D(21,19,53,10)       -153.4458         estimate D2E/DX2                !
 ! D194  D(21,19,53,55)        -14.1692         estimate D2E/DX2                !
 ! D195  D(18,20,22,24)         -1.4413         estimate D2E/DX2                !
 ! D196  D(18,20,22,58)        142.5044         estimate D2E/DX2                !
 ! D197  D(54,20,22,24)       -155.028          estimate D2E/DX2                !
 ! D198  D(54,20,22,58)        -11.0823         estimate D2E/DX2                !
 ! D199  D(18,20,54,11)         -1.7585         estimate D2E/DX2                !
 ! D200  D(18,20,54,56)       -144.712          estimate D2E/DX2                !
 ! D201  D(22,20,54,11)        151.3368         estimate D2E/DX2                !
 ! D202  D(22,20,54,56)          8.3833         estimate D2E/DX2                !
 ! D203  D(19,21,23,1)          13.5943         estimate D2E/DX2                !
 ! D204  D(19,21,23,25)       -147.9027         estimate D2E/DX2                !
 ! D205  D(57,21,23,1)         133.2237         estimate D2E/DX2                !
 ! D206  D(57,21,23,25)        -28.2734         estimate D2E/DX2                !
 ! D207  D(103,21,23,1)       -104.8594         estimate D2E/DX2                !
 ! D208  D(103,21,23,25)        93.6436         estimate D2E/DX2                !
 ! D209  D(19,21,57,59)        142.0381         estimate D2E/DX2                !
 ! D210  D(19,21,57,83)        -25.4359         estimate D2E/DX2                !
 ! D211  D(23,21,57,59)         29.7453         estimate D2E/DX2                !
 ! D212  D(23,21,57,83)       -137.7286         estimate D2E/DX2                !
 ! D213  D(103,21,57,59)       -94.1827         estimate D2E/DX2                !
 ! D214  D(103,21,57,83)        98.3434         estimate D2E/DX2                !
 ! D215  D(20,22,24,26)          2.4949         estimate D2E/DX2                !
 ! D216  D(20,22,24,62)        153.4055         estimate D2E/DX2                !
 ! D217  D(58,22,24,26)       -145.617          estimate D2E/DX2                !
 ! D218  D(58,22,24,62)          5.2936         estimate D2E/DX2                !
 ! D219  D(20,22,58,60)       -146.4279         estimate D2E/DX2                !
 ! D220  D(20,22,58,84)          3.9363         estimate D2E/DX2                !
 ! D221  D(24,22,58,60)          1.8214         estimate D2E/DX2                !
 ! D222  D(24,22,58,84)        152.1855         estimate D2E/DX2                !
 ! D223  D(1,23,25,27)          -0.7742         estimate D2E/DX2                !
 ! D224  D(1,23,25,61)        -156.7848         estimate D2E/DX2                !
 ! D225  D(21,23,25,27)        158.6997         estimate D2E/DX2                !
 ! D226  D(21,23,25,61)          2.689          estimate D2E/DX2                !
 ! D227  D(22,24,26,3)          -1.9477         estimate D2E/DX2                !
 ! D228  D(22,24,26,28)        150.2002         estimate D2E/DX2                !
 ! D229  D(62,24,26,3)        -149.1811         estimate D2E/DX2                !
 ! D230  D(62,24,26,28)          2.9668         estimate D2E/DX2                !
 ! D231  D(22,24,62,60)         -9.5272         estimate D2E/DX2                !
 ! D232  D(22,24,62,64)       -124.7492         estimate D2E/DX2                !
 ! D233  D(22,24,62,101)       111.4782         estimate D2E/DX2                !
 ! D234  D(26,24,62,60)        140.0827         estimate D2E/DX2                !
 ! D235  D(26,24,62,64)         24.8607         estimate D2E/DX2                !
 ! D236  D(26,24,62,101)       -98.9119         estimate D2E/DX2                !
 ! D237  D(23,25,27,29)        -22.4036         estimate D2E/DX2                !
 ! D238  D(23,25,27,65)       -136.5443         estimate D2E/DX2                !
 ! D239  D(23,25,27,85)        103.5776         estimate D2E/DX2                !
 ! D240  D(61,25,27,29)        135.8468         estimate D2E/DX2                !
[...]
 Alpha virt. eigenvalues --    1.63757   1.64238   1.64329   1.64618   1.64777
 Alpha virt. eigenvalues --    1.64996   1.65216   1.65413   1.65851   1.66022
 Alpha virt. eigenvalues --    1.66299   1.66486   1.66516   1.66973   1.67053
 Alpha virt. eigenvalues --    1.67414   1.67561   1.67703   1.67900   1.68182
 Alpha virt. eigenvalues --    1.68276   1.68617   1.68839   1.69015   1.69207
 Alpha virt. eigenvalues --    1.69425   1.69618   1.69865   1.70306   1.70880
 Alpha virt. eigenvalues --    1.70945   1.71098   1.71301   1.71542   1.71833
 Alpha virt. eigenvalues --    1.72126   1.72348   1.72420   1.72638   1.73042
 Alpha virt. eigenvalues --    1.73274   1.73512   1.73915   1.73942   1.74202
 Alpha virt. eigenvalues --    1.74346   1.74619   1.74861   1.74950   1.75271
 Alpha virt. eigenvalues --    1.75411   1.75670   1.75801   1.75980   1.76149
 Alpha virt. eigenvalues --    1.76234   1.76319   1.76679   1.76911   1.77191
 Alpha virt. eigenvalues --    1.77470   1.77530   1.77884   1.78092   1.78381
 Alpha virt. eigenvalues --    1.78536   1.78769   1.79113   1.79390   1.79442
 Alpha virt. eigenvalues --    1.79750   1.79972   1.80203   1.80484   1.80593
 Alpha virt. eigenvalues --    1.80723   1.81188   1.81429   1.81512   1.81680
 Alpha virt. eigenvalues --    1.81824   1.81982   1.82160   1.82427   1.82674
 Alpha virt. eigenvalues --    1.82856   1.83247   1.83629   1.83797   1.84026
 Alpha virt. eigenvalues --    1.84209   1.84837   1.84875   1.85262   1.85721
 Alpha virt. eigenvalues --    1.85872   1.86173   1.86703   1.86912   1.87072
 Alpha virt. eigenvalues --    1.87395   1.87482   1.87796   1.88147   1.88571
 Alpha virt. eigenvalues --    1.88727   1.88827   1.89138   1.89422   1.90092
 Alpha virt. eigenvalues --    1.90388   1.90656   1.91084   1.91405   1.91859
 Alpha virt. eigenvalues --    1.92158   1.92526   1.92787   1.93200   1.93363
 Alpha virt. eigenvalues --    1.93623   1.93942   1.94501   1.94841   1.95274
 Alpha virt. eigenvalues --    1.95706   1.96085   1.96282   1.96465   1.97238
 Alpha virt. eigenvalues --    1.97424   1.97551   1.97995   1.98087   1.98544
 Alpha virt. eigenvalues --    1.99055   1.99158   1.99493   1.99939   2.00650
 Alpha virt. eigenvalues --    2.00878   2.01038   2.01468   2.01569   2.02073
 Alpha virt. eigenvalues --    2.02416   2.02853   2.03174   2.03330   2.04115
 Alpha virt. eigenvalues --    2.04348   2.04678   2.04824   2.05010   2.05461
 Alpha virt. eigenvalues --    2.06045   2.06402   2.07022   2.07238   2.07519
 Alpha virt. eigenvalues --    2.08396   2.08474   2.08918   2.08952   2.09424
 Alpha virt. eigenvalues --    2.09678   2.09958   2.10790   2.11066   2.11319
 Alpha virt. eigenvalues --    2.11613   2.12144   2.12398   2.13057   2.13366
 Alpha virt. eigenvalues --    2.13613   2.13929   2.14121   2.14402   2.14813
 Alpha virt. eigenvalues --    2.15154   2.15974   2.16175   2.16488   2.17182
 Alpha virt. eigenvalues --    2.17580   2.17720   2.18179   2.18350   2.18924
 Alpha virt. eigenvalues --    2.19376   2.19476   2.19636   2.20496   2.20690
 Alpha virt. eigenvalues --    2.21072   2.21113   2.21460   2.21837   2.22349
 Alpha virt. eigenvalues --    2.22856   2.23411   2.23616   2.23712   2.24309
 Alpha virt. eigenvalues --    2.24678   2.24842   2.25812   2.26041   2.26271
 Alpha virt. eigenvalues --    2.26518   2.26950   2.27290   2.28041   2.28247
 Alpha virt. eigenvalues --    2.28727   2.29197   2.29998   2.30285   2.30331
 Alpha virt. eigenvalues --    2.31156   2.31645   2.32056   2.32646   2.32880
 Alpha virt. eigenvalues --    2.33974   2.34234   2.34440   2.34869   2.34907
 Alpha virt. eigenvalues --    2.36036   2.36588   2.37073   2.37767   2.37869
 Alpha virt. eigenvalues --    2.38326   2.38499   2.38801   2.39542   2.40015
 Alpha virt. eigenvalues --    2.40572   2.41167   2.41272   2.41828   2.42007
 Alpha virt. eigenvalues --    2.42563   2.42807   2.43671   2.44380   2.44971
 Alpha virt. eigenvalues --    2.45011   2.45313   2.46170   2.46482   2.46978
 Alpha virt. eigenvalues --    2.47691   2.48011   2.48200   2.48685   2.49148
 Alpha virt. eigenvalues --    2.49541   2.49818   2.50578   2.50818   2.51361
 Alpha virt. eigenvalues --    2.51649   2.51839   2.51993   2.52800   2.52953
 Alpha virt. eigenvalues --    2.53612   2.53657   2.54171   2.54453   2.54887
 Alpha virt. eigenvalues --    2.55206   2.55893   2.56127   2.56342   2.56822
 Alpha virt. eigenvalues --    2.57143   2.57338   2.57471   2.58292   2.58474
 Alpha virt. eigenvalues --    2.58649   2.59118   2.59457   2.59692   2.60145
 Alpha virt. eigenvalues --    2.60163   2.60705   2.61219   2.62097   2.62166
 Alpha virt. eigenvalues --    2.62739   2.63085   2.63477   2.63737   2.64038
 Alpha virt. eigenvalues --    2.64231   2.64609   2.64952   2.65405   2.65526
 Alpha virt. eigenvalues --    2.66248   2.66431   2.66810   2.67189   2.67418
 Alpha virt. eigenvalues --    2.67685   2.68149   2.68341   2.68861   2.69037
 Alpha virt. eigenvalues --    2.69237   2.69548   2.70122   2.70327   2.70869
 Alpha virt. eigenvalues --    2.70954   2.71409   2.71626   2.71836   2.72235
 Alpha virt. eigenvalues --    2.72785   2.73176   2.73551   2.73935   2.74233
 Alpha virt. eigenvalues --    2.74494   2.75016   2.75405   2.75816   2.76230
 Alpha virt. eigenvalues --    2.76758   2.77375   2.77574   2.78296   2.78621
 Alpha virt. eigenvalues --    2.79002   2.79176   2.79842   2.80307   2.80761
 Alpha virt. eigenvalues --    2.80967   2.81466   2.82491   2.82681   2.83093
 Alpha virt. eigenvalues --    2.83489   2.83862   2.84000   2.84428   2.85165
 Alpha virt. eigenvalues --    2.85501   2.85868   2.86698   2.86909   2.87295
 Alpha virt. eigenvalues --    2.88479   2.88903   2.89594   2.90071   2.90272
 Alpha virt. eigenvalues --    2.90972   2.91887   2.92541   2.92911   2.93566
 Alpha virt. eigenvalues --    2.94158   2.94499   2.95440   2.96368   2.97596
 Alpha virt. eigenvalues --    2.98452   2.98732   3.00840   3.01362   3.03053
 Alpha virt. eigenvalues --    3.04383   3.04996   3.06266   3.07909   3.08897
 Alpha virt. eigenvalues --    3.09204   3.10164   3.11471   3.12768   3.14090
 Alpha virt. eigenvalues --    3.15047   3.15690   3.16142   3.17735   3.18647
 Alpha virt. eigenvalues --    3.19220   3.19940   3.20252   3.22567   3.23673
 Alpha virt. eigenvalues --    3.26475   3.27311   3.29689   3.31191   3.33517
 Alpha virt. eigenvalues --    3.37334   3.39178   3.39835   3.41350   3.43221
 Alpha virt. eigenvalues --    3.43499   3.47144   3.48108   3.49843   4.00588
 Alpha virt. eigenvalues --    4.02147   4.02771   4.02957   4.03614   4.04815
 Alpha virt. eigenvalues --    4.06250   4.07209   4.07367   4.08032   4.08227
 Alpha virt. eigenvalues --    4.09170   4.09456   4.10062   4.11044   4.12180
 Alpha virt. eigenvalues --    4.12876   4.13791   4.14166   4.14809   4.15328
 Alpha virt. eigenvalues --    4.16203   4.17638   4.17771   4.18104   4.19211
 Alpha virt. eigenvalues --    4.19575   4.20084   4.20362   4.21004   4.21269
 Alpha virt. eigenvalues --    4.22661   4.23154   4.23953   4.24396   4.25067
 Alpha virt. eigenvalues --    4.25463   4.25596   4.26392   4.26703   4.27084
 Alpha virt. eigenvalues --    4.27549   4.27785   4.28384   4.28977   4.29170
 Alpha virt. eigenvalues --    4.29472   4.29834   4.30243   4.30699   4.31438
 Alpha virt. eigenvalues --    4.33369   4.34063   4.34598   4.35427   4.37125
 Alpha virt. eigenvalues --    4.37666   4.38029   4.38404   4.39217   4.39552
 Alpha virt. eigenvalues --    4.40306   4.41384   4.41600   4.42213   4.42518
 Alpha virt. eigenvalues --    4.43452   4.43781   4.45271   4.45371   4.47419
 Alpha virt. eigenvalues --    4.48572   4.49666   4.50282   4.52229   4.52261
 Alpha virt. eigenvalues --    4.53341   4.54736   4.56122   4.58436   4.59259
 Alpha virt. eigenvalues --    4.61794   4.62785   4.64120   4.64572   4.66649
 Alpha virt. eigenvalues --    4.69049   4.69454   4.73208   4.76563   4.77370
 Alpha virt. eigenvalues --    4.80600   4.81432   4.82091   4.84963   4.87662
 Alpha virt. eigenvalues --    4.92654   4.94515   4.95732   4.96558   5.01667
 Alpha virt. eigenvalues --    5.05393   5.10904   5.19360
          Condensed to atoms (all electrons):
 Mulliken charges:
               1
     1  C   -0.344116
     2  C   -0.370751
     3  C    0.112424
     4  C   -0.374273
     5  C    0.077249
     6  C    0.156176
     7  C   -0.380729
     8  C    0.154928
     9  C    0.085247
    10  C    0.108843
    11  C    0.112068
    12  C    0.146149
    13  C    0.056086
    14  C    0.117309
    15  C   -0.336350
    16  C   -0.364371
    17  C    0.185136
    18  C    0.120036
    19  C    0.123260
    20  C    0.070853
    21  C   -0.359877
    22  C    0.012468
    23  C    0.185268
    24  C    0.083454
    25  C    0.183146
    26  C    0.129980
    27  C   -0.376076
    28  C   -0.375728
    29  C    0.156520
    30  C    0.185247
    31  C    0.086827
    32  C    0.180745
    33  C   -0.016640
    34  C   -0.375083
    35  C    0.062724
    36  C    0.124683
    37  C    0.096703
    38  C    0.122566
    39  C    0.148593
    40  C    0.118955
    41  C    0.115284
    42  C    0.144207
    43  C    0.125392
    44  C    0.140036
    45  C    0.142984
    46  C    0.115406
    47  C    0.120240
    48  C    0.126237
    49  C   -0.382868
    50  C   -0.386480
    51  C    0.099077
    52  C    0.089393
    53  C    0.013632
    54  C   -0.013486
    55  C    0.005081
    56  C    0.019056
    57  C    0.085404
    58  C    0.007445
    59  C    0.156729
    60  C    0.083810
    61  C   -0.378748
    62  C   -0.394310
    63  C    0.112844
    64  C    0.149345
    65  C    0.115701
    66  C    0.124722
    67  C    0.147573
    68  C    0.119715
    69  C   -0.392414
    70  C   -0.377012
    71  C    0.085822
    72  C    0.129974
    73  C    0.036323
    74  C    0.115831
    75  C    0.099907
    76  C    0.125906
    77  C   -0.359048
    78  C   -0.379476
    79  C   -0.380460
    80  C   -0.383187
    81  C    0.178752
    82  C    0.189057
    83  C    0.071678
    84  C    0.040335
    85  Cl   0.035742
    86  Cl   0.021323
    87  Cl   0.035269
    88  Cl   0.032507
    89  Cl   0.033485
    90  Cl   0.029002
    91  Cl   0.029886
    92  Cl   0.032636
    93  Cl   0.038811
    94  Cl   0.014833
    95  Cl   0.031094
    96  Cl   0.037089
    97  Cl   0.030768
    98  Cl   0.028577
    99  Cl   0.034127
   100  Cl   0.011186
   101  Cl   0.036578
   102  Cl   0.032220
   103  Cl   0.014866
   104  Cl   0.004942
 Sum of Mulliken charges =  -0.00000
 Mulliken charges with hydrogens summed into heavy atoms:
               1
     1  C   -0.344116
     2  C   -0.370751
     3  C    0.112424
     4  C   -0.374273
     5  C    0.077249
     6  C    0.156176
     7  C   -0.380729
     8  C    0.154928
     9  C    0.085247
    10  C    0.108843
    11  C    0.112068
    12  C    0.146149
    13  C    0.056086
    14  C    0.117309
    15  C   -0.336350
    16  C   -0.364371
    17  C    0.185136
    18  C    0.120036
    19  C    0.123260
    20  C    0.070853
    21  C   -0.359877
    22  C    0.012468
    23  C    0.185268
    24  C    0.083454
    25  C    0.183146
    26  C    0.129980
    27  C   -0.376076
    28  C   -0.375728
    29  C    0.156520
    30  C    0.185247
    31  C    0.086827
    32  C    0.180745
    33  C   -0.016640
    34  C   -0.375083
    35  C    0.062724
    36  C    0.124683
    37  C    0.096703
    38  C    0.122566
    39  C    0.148593
    40  C    0.118955
    41  C    0.115284
    42  C    0.144207
    43  C    0.125392
    44  C    0.140036
    45  C    0.142984
    46  C    0.115406
    47  C    0.120240
    48  C    0.126237
    49  C   -0.382868
    50  C   -0.386480
    51  C    0.099077
    52  C    0.089393
    53  C    0.013632
    54  C   -0.013486
    55  C    0.005081
    56  C    0.019056
    57  C    0.085404
    58  C    0.007445
    59  C    0.156729
    60  C    0.083810
    61  C   -0.378748
    62  C   -0.394310
    63  C    0.112844
    64  C    0.149345
    65  C    0.115701
    66  C    0.124722
    67  C    0.147573
    68  C    0.119715
    69  C   -0.392414
    70  C   -0.377012
    71  C    0.085822
    72  C    0.129974
    73  C    0.036323
    74  C    0.115831
    75  C    0.099907
    76  C    0.125906
    77  C   -0.359048
    78  C   -0.379476
    79  C   -0.380460
    80  C   -0.383187
    81  C    0.178752
    82  C    0.189057
    83  C    0.071678
    84  C    0.040335
    85  Cl   0.035742
    86  Cl   0.021323
    87  Cl   0.035269
    88  Cl   0.032507
    89  Cl   0.033485
    90  Cl   0.029002
    91  Cl   0.029886
    92  Cl   0.032636
    93  Cl   0.038811
    94  Cl   0.014833
    95  Cl   0.031094
    96  Cl   0.037089
    97  Cl   0.030768
    98  Cl   0.028577
    99  Cl   0.034127
   100  Cl   0.011186
   101  Cl   0.036578
   102  Cl   0.032220
   103  Cl   0.014866
   104  Cl   0.004942
 Electronic spatial extent (au):  <R**2>=          82096.8460
 Charge=              0.0000 electrons
 Dipole moment (field-independent basis, Debye):
    X=              0.3910    Y=              1.2936    Z=             -2.4851  Tot=              2.8288
 Quadrupole moment (field-independent basis, Debye-Ang):
   XX=           -764.9380   YY=           -765.6638   ZZ=           -724.8310
   XY=             -3.1886   XZ=             -6.5231   YZ=              0.0382
 Traceless Quadrupole moment (field-independent basis, Debye-Ang):
   XX=            -13.1270   YY=            -13.8529   ZZ=             26.9799
   XY=             -3.1886   XZ=             -6.5231   YZ=              0.0382
 Octapole moment (field-independent basis, Debye-Ang**2):
  XXX=            -42.6043  YYY=            -18.3668  ZZZ=            -20.0475  XYY=            -29.5064
  XXY=            -14.7898  XXZ=             -4.5593  XZZ=             17.2516  YZZ=             46.3178
  YYZ=             17.2819  XYZ=              4.0366
 Hexadecapole moment (field-independent basis, Debye-Ang**3):
 XXXX=         -42439.9357 YYYY=         -41077.7383 ZZZZ=         -30386.9053 XXXY=             33.5419
 XXXZ=            -86.6390 YYYX=           -110.7131 YYYZ=            -12.9045 ZZZX=             52.5610
 ZZZY=            -15.5235 XXYY=         -13970.5659 XXZZ=         -12101.3736 YYZZ=         -12102.5543
 XXYZ=            -28.1549 YYXZ=             19.3403 ZZXY=            -28.9853
 N-N= 3.225916857994D+04 E-N=-9.377742193472D+04  KE= 1.234701033496D+04
 Leave Link  601 at Wed Jun 29 11:15:36 2022, MaxMem=  1342177280 cpu:              26.1 elap:               1.4
 (Enter /home/mkliu/g16/l9999.exe)
 1\1\GINC-NODE02\FOpt\RB3LYP\6-31G(d,p)\C84Cl20\MKLIU\29-Jun-2022\0\\#P
  opt b3lyp/6-31G(d, p) empiricaldispersion=GD3\\force\\0,1\C,8.4210458
 968,18.6177210421,10.8516131676\C,12.6207370786,19.9675730623,8.909469
 6359\C,8.2591796962,26.8600949813,10.5360458855\C,12.5016427188,25.761
 925059,8.9314688371\C,8.0187714567,19.1377952812,9.4785721355\C,12.133
 2200856,19.4538257511,10.2389459722\C,7.8833152636,27.122743087,9.0892
 083832\C,11.9167367528,26.2184148005,10.2417609846\C,9.0123899116,19.2
 716415953,8.4445825483\C,12.3568596395,20.1264222774,11.37799893\C,12.
 1289778404,25.5311904566,11.3709592491\C,8.9784296936,26.6248464407,8.
 1601841232\C,10.3893413717,19.0959558847,8.7425796029\C,10.2876712846,
 26.6659879424,8.6334541522\C,10.9170870478,18.5736946858,10.0531359991
 \C,10.6900699485,27.0775428038,10.0349923746\C,9.8930676844,18.7572275
 91,11.1125090101\C,9.5664843686,26.7773431203,11.0033775924\C,10.14485
 51405,19.4375618719,12.2549727239\C,9.8200170455,26.0341109847,12.1940
 782851\C,8.8923054863,19.8395017273,12.9861462758\C,8.7319332375,25.41
 43485825,12.8465967114\C,7.8439139311,19.4854163363,11.957514457\C,7.4
 17222229,25.5380762505,12.3704934957\C,6.7218059308,20.1763157477,11.8
 106740667\C,7.1881245218,26.2376830176,11.2126484969\C,5.9280261962,20
 .1516315208,10.5276534567\C,6.0408710461,25.9104628711,10.2934272761\C
 ,6.7735624564,19.7492447722,9.3314546641\C,6.6293246701,26.2914073292,
 8.9551518193\C,6.4407384802,20.3413016982,8.102100607\C,6.3364902575,2
 5.6336633545,7.842353859\C,7.3599412856,20.4002377037,7.0620834895\C,7
 .2289530331,25.6673288474,6.6163268303\C,8.7050816746,19.9842272642,7.
 2330245679\C,8.6944872716,25.8714316285,7.0052702599\C,9.7468233303,20
 .6348194322,6.4764904948\C,9.7263602173,25.1377451456,6.3682672069\C,1
 1.0551847006,20.5940462643,6.9389250609\C,12.7469193746,22.1800764599,
 7.7714816081\C,12.7250175892,23.5717211763,7.7745492408\C,11.032163208
 3,25.1549949359,6.8946444333\C,11.3654927005,19.7925144777,8.057021381
 1\C,12.9575358204,21.4545199016,8.946862078\C,12.8974879435,24.2918248
 202,8.9567214768\C,11.299938427,25.9377705224,8.0140657361\C,13.170687
 9098,22.1635808411,10.1427932187\C,13.1320185395,23.5816742281,10.1467
 015091\C,13.1951826723,21.3906047447,11.4634188853\C,13.0789326326,24.
 3469280943,11.4675508049\C,12.4486402811,22.1661228911,12.5315264198\C
 ,12.4011511312,23.5108970136,12.5285981582\C,11.3684821078,20.13670095
 99,12.4436440489\C,11.1022138431,25.4224144665,12.3921165291\C,11.3521
 563762,21.3777795159,13.0508815395\C,11.2408613604,24.1946980318,13.04
 23226423\C,8.8778160731,21.3216038305,13.3397273507\C,8.8693033463,24.
 1146111205,13.4757497854\C,7.6537835384,22.0288826356,13.2464786586\C,
 7.6567446728,23.4136719288,13.3559112981\C,6.4108356052,21.3990232452,
 12.6387228252\C,6.5835708727,24.3454682375,12.7814531377\C,5.844291289
 ,22.3189317892,11.5668487466\C,5.9442945795,23.7087982222,11.563763232
 4\C,5.5642038403,21.6229982526,10.3971678209\C,5.7188573585,24.4128022
 369,10.3619704029\C,5.3619385019,22.2961539186,9.1927745344\C,5.418650
 2523,23.7063849389,9.1749071755\C,5.3911741997,21.4514674569,7.9342217
 3\C,5.3826883661,24.4560982646,7.8378498668\C,5.9640030308,22.23543023
 7,6.7774510239\C,5.9701121253,23.6146473929,6.7346917747\C,7.029690112
 3,21.5279174919,6.2003968107\C,7.004831332,24.2911008315,6.0622423496\
 C,8.0207062354,22.1832587176,5.4945563028\C,8.0146137973,23.5811442681
 ,5.4378399074\C,9.3980409354,21.6073938452,5.3489407182\C,9.4048714895
 ,24.1278625778,5.2675788422\C,12.0873474398,21.6249538925,6.5219311802
 \C,12.075947401,24.1204305122,6.5155095056\C,10.2399588489,22.86589361
 9,5.4178438374\C,11.4498917119,22.8704108837,5.9585135572\C,10.1087598
 476,22.0160996473,13.4806544203\C,10.1049433085,23.4483418243,13.52329
 93647\Cl,4.4413879787,19.0777622036,10.6806232162\Cl,7.8519893875,16.8
 58504269,11.0162742163\Cl,3.7168628812,20.8102394867,7.5385410325\Cl,3
 .6506469525,24.9645253678,7.4681283643\Cl,4.5326170005,26.8889326608,1
 0.6960313995\Cl,14.060670052,19.0026238942,8.2848507498\Cl,14.92938933
 79,21.0204036431,11.9425110497\Cl,14.7630903309,24.8835729081,11.96557
 21275\Cl,13.2951155769,20.9129516121,5.3300749456\Cl,9.5843600917,20.7
 365938051,3.7228706322\Cl,13.9344344575,26.797507161,8.4069313923\Cl,1
 3.3104744856,24.8352491748,5.3514919573\Cl,9.6448184428,24.9129219325,
 3.6172624065\Cl,6.7143922709,26.9866111864,5.4321649323\Cl,7.541878048
 5,28.9102961429,8.7912719832\Cl,11.1256924586,28.8828361,10.1122049383
 \Cl,5.3142913072,24.7916532722,14.0310475396\Cl,5.1685961816,21.036100
 3247,13.951101638\Cl,8.7016611815,18.8559271256,14.5466937504\Cl,11.37
 76354795,16.769830664,9.8902189053\\Version=ES64L-G16RevA.03\State=1-A
 \HF=-12405.0207128\RMSD=1.665e-09\RMSF=2.033e-05\Dipole=-0.1346252,0.2
 35516,1.0793715\Quadrupole=-5.5253254,-7.688117,13.2134425,1.8776505,9
 .3198399,10.4155443\PG=C01 [X(C84Cl20)]\\@


 YOU SHOULDN'T LET PEOPLE DRIVE YOU CRAZY
 WHEN YOU KNOW IT'S WITHIN WALKING DISTANCE.
 Job cpu time:       1 days 18 hours 48 minutes  0.3 seconds.
 Elapsed time:       0 days  1 hours 47 minutes  8.8 seconds.
 File lengths (MBytes):  RWF=   1649 Int=      0 D2E=      0 Chk=    205 Scr=      1
 Normal termination of Gaussian 16 at Wed Jun 29 11:15:39 2022.
