 Entering Gaussian System, Link 0=g16
 Input=20_addons_C84_11_Cl22_rank_5.gjf
 Output=20_addons_C84_11_Cl22_rank_5.log
 Initial command:
 /home/mkliu/g16/l1.exe "/data/scratch/Gau-151337.inp" -scrdir="/data/scratch/"
 Entering Link 1 = /home/mkliu/g16/l1.exe PID=    151338.
  
 Copyright (c) 1988,1990,1992,1993,1995,1998,2003,2009,2016,
            Gaussian, Inc.  All Rights Reserved.
  
 This is part of the Gaussian(R) 16 program.  It is based on
 the Gaussian(R) 09 system (copyright 2009, Gaussian, Inc.),
 the Gaussian(R) 03 system (copyright 2003, Gaussian, Inc.),
 the Gaussian(R) 98 system (copyright 1998, Gaussian, Inc.),
 the Gaussian(R) 94 system (copyright 1995, Gaussian, Inc.),
 the Gaussian 92(TM) system (copyright 1992, Gaussian, Inc.),
 the Gaussian 90(TM) system (copyright 1990, Gaussian, Inc.),
 the Gaussian 88(TM) system (copyright 1988, Gaussian, Inc.),
 the Gaussian 86(TM) system (copyright 1986, Carnegie Mellon
 University), and the Gaussian 82(TM) system (copyright 1983,
 Carnegie Mellon University). Gaussian is a federally registered
 trademark of Gaussian, Inc.
  
 This software contains proprietary and confidential information,
 including trade secrets, belonging to Gaussian, Inc.
  
 This software is provided under written license and may be
 used, copied, transmitted, or stored only in accord with that
 written license.
  
 The following legend is applicable only to US Government
 contracts under FAR:
  
                    RESTRICTED RIGHTS LEGEND
  
 Use, reproduction and disclosure by the US Government is
 subject to restrictions as set forth in subparagraphs (a)
 and (c) of the Commercial Computer Software - Restricted
 Rights clause in FAR 52.227-19.
  
 Gaussian, Inc.
 340 Quinnipiac St., Bldg. 40, Wallingford CT 06492
  
  
 ---------------------------------------------------------------
 Warning -- This program may not be used in any manner that
 competes with the business of Gaussian, Inc. or will provide
 assistance to any competitor of Gaussian, Inc.  The licensee
 of this program is prohibited from giving any competitor of
 Gaussian, Inc. access to this program.  By using this program,
 the user acknowledges that Gaussian, Inc. is engaged in the
 business of creating and licensing software in the field of
 computational chemistry and represents and warrants to the
 licensee that it is not a competitor of Gaussian, Inc. and that
 it will not use this program in any manner prohibited above.
 ---------------------------------------------------------------
  

 Cite this work as:
 Gaussian 16, Revision A.03,
 M. J. Frisch, G. W. Trucks, H. B. Schlegel, G. E. Scuseria, 
 M. A. Robb, J. R. Cheeseman, G. Scalmani, V. Barone, 
 G. A. Petersson, H. Nakatsuji, X. Li, M. Caricato, A. V. Marenich, 
 J. Bloino, B. G. Janesko, R. Gomperts, B. Mennucci, H. P. Hratchian, 
 J. V. Ortiz, A. F. Izmaylov, J. L. Sonnenberg, D. Williams-Young, 
 F. Ding, F. Lipparini, F. Egidi, J. Goings, B. Peng, A. Petrone, 
 T. Henderson, D. Ranasinghe, V. G. Zakrzewski, J. Gao, N. Rega, 
 G. Zheng, W. Liang, M. Hada, M. Ehara, K. Toyota, R. Fukuda, 
 J. Hasegawa, M. Ishida, T. Nakajima, Y. Honda, O. Kitao, H. Nakai, 
 T. Vreven, K. Throssell, J. A. Montgomery, Jr., J. E. Peralta, 
 F. Ogliaro, M. J. Bearpark, J. J. Heyd, E. N. Brothers, K. N. Kudin, 
 V. N. Staroverov, T. A. Keith, R. Kobayashi, J. Normand, 
 K. Raghavachari, A. P. Rendell, J. C. Burant, S. S. Iyengar, 
 J. Tomasi, M. Cossi, J. M. Millam, M. Klene, C. Adamo, R. Cammi, 
 J. W. Ochterski, R. L. Martin, K. Morokuma, O. Farkas, 
 J. B. Foresman, and D. J. Fox, Gaussian, Inc., Wallingford CT, 2016.
 
 ******************************************
 Gaussian 16:  ES64L-G16RevA.03 25-Dec-2016
                29-Jun-2022 
 ******************************************
 %mem=10GB
 %chk=20_addons_C84_11_Cl22_rank_5.chk
 %nprocshared=24
 Will use up to   24 processors via shared memory.
 ------------------------------------------------
 #P opt b3lyp/6-31G(d, p) empiricaldispersion=GD3
 ------------------------------------------------
 1/18=20,19=15,26=3,38=1/1,3;
 2/9=110,12=2,17=6,18=5,40=1/2;
 3/5=1,6=6,7=101,11=2,25=1,30=1,71=1,74=-5,124=31/1,2,3;
 4//1;
 5/5=2,38=5/2;
 6/7=2,8=2,9=2,10=2,28=1/1;
 7//1,2,3,16;
 1/18=20,19=15,26=3/3(2);
 2/9=110/2;
 99//99;
 2/9=110/2;
 3/5=1,6=6,7=101,11=2,25=1,30=1,71=1,74=-5,124=31/1,2,3;
 4/5=5,16=3,69=1/1;
 5/5=2,38=5/2;
 7//1,2,3,16;
 1/18=20,19=15,26=3/3(-5);
 2/9=110/2;
 6/7=2,8=2,9=2,10=2,19=2,28=1/1;
 99/9=1/99;
 Leave Link    1 at Wed Jun 29 07:27:12 2022, MaxMem=  1342177280 cpu:               0.7 elap:               0.1
 (Enter /home/mkliu/g16/l101.exe)
 -----
 force
 -----
 Symbolic Z-matrix:
 Charge =  0 Multiplicity = 1
 C                     8.42641   18.64198   10.82222 
 C                     12.58449   19.98492   8.90539 
 C                     8.26466   26.82522   10.50631 
 C                     12.46658   25.72452   8.92444 
 C                     8.01464   19.16053   9.46874 
 C                     12.09325   19.47819   10.23038 
 C                     7.88648   27.08957   9.07358 
 C                     11.88388   26.17915   10.23129 
 C                     8.99766   19.28698   8.44802 
 C                     12.34758   20.11757   11.36474 
 C                     12.13175   25.53893   11.36403 
 C                     8.96239   26.56164   8.16442 
 C                     10.36749   19.0978   8.73806 
 C                     10.26177   26.6036   8.6384 
 C                     10.91327   18.55653   10.02804 
 C                     10.67632   27.05043   10.01461 
 C                     9.90045   18.73693   11.08116 
 C                     9.56984   26.73913   10.98034 
 C                     10.1441   19.46097   12.20482 
 C                     9.82718   26.03211   12.15973 
 C                     8.94083   20.02828   12.71777 
 C                     8.76299   25.39548   12.79877 
 C                     7.87197   19.5428   11.89665 
 C                     7.44632   25.50895   12.32803 
 C                     6.70364   20.19051   11.79291 
 C                     7.20334   26.20846   11.17811 
 C                     5.91223   20.16491   10.52242 
 C                     6.05357   25.89211   10.27304 
 C                     6.76665   19.77465   9.34025 
 C                     6.63767   26.26695   8.94218 
 C                     6.42943   20.36332   8.12988 
 C                     6.34931   25.60025   7.83622 
 C                     7.35939   20.42144   7.08444 
 C                     7.22814   25.63507   6.61557 
 C                     8.68938   19.99457   7.24569 
 C                     8.6808    25.80928   7.01742 
 C                     9.71969   20.64806   6.48467 
 C                     9.7027    25.08439   6.38698 
 C                     11.05198   20.59663   6.94969 
 C                     12.70382   22.17307   7.78697 
 C                     12.68507   23.56035   7.78381 
 C                     11.00419   25.09949   6.90681 
 C                     11.34337   19.81417   8.05699 
 C                     12.90542   21.458    8.95633 
 C                     12.85008   24.27042   8.96051 
 C                     11.26926   25.87462   8.02173 
 C                     13.118    22.16228   10.1467 
 C                     13.08019   23.56882   10.14817 
 C                     13.1594   21.38573   11.44743 
 C                     13.04886   24.3441   11.44843 
 C                     12.3842   22.1468   12.4799 
 C                     12.33575   23.52615   12.47433 
 C                     11.47316   19.9793   12.58436 
 C                     11.21099   25.60989   12.55152 
 C                     11.3404   21.4091   13.01692 
 C                     11.25034   24.18017   13.02317 
 C                     8.89159   21.31377   13.29493 
 C                     8.89026   24.11266   13.44803 
 C                     7.67078   22.031    13.21294 
 C                     7.68711   23.41312   13.31426 
 C                     6.43698   21.41929   12.60683 
 C                     6.6202    24.33354   12.75034 
 C                     5.88375   22.33093   11.54388 
 C                     5.99291   23.70926   11.53376 
 C                     5.58284   21.63266   10.38354 
 C                     5.75911   24.4049   10.33795 
 C                     5.38135   22.30138   9.18838 
 C                     5.45135   23.70212   9.16542 
 C                     5.38282   21.44928   7.94917 
 C                     5.39503   24.43863   7.83887 
 C                     5.94165   22.22442   6.79107 
 C                     5.9587    23.59343   6.73873 
 C                     7.01395   21.51061   6.22205 
 C                     6.99585   24.27093   6.04979 
 C                     8.02306   22.17043   5.53239 
 C                     7.9929    23.58214   5.41816 
 C                     9.35954   21.71013   5.61669 
 C                     9.39127   24.10769   5.273 
 C                     12.06849   21.62066   6.54218 
 C                     12.06754   24.1036   6.51922 
 C                     10.21483   22.8523   5.46451 
 C                     11.46263   22.85821   5.95492 
 C                     10.14622   22.02416   13.43147 
 C                     10.13491   23.44992   13.47613 
 Cl                    4.55511   26.81091   10.66433 
 Cl                    3.69083   24.9513   7.5353 
 Cl                    13.2854   24.87489   5.43735 
 Cl                    13.86017   26.73421   8.39567 
 Cl                    14.72531   24.80195   11.92085 
 Cl                    14.87423   21.0792   11.90577 
 Cl                    13.99555   19.05517   8.28789 
 Cl                    3.73629   20.79849   7.63248 
 Cl                    4.4379    19.13492   10.62282 
 Cl                    9.69909   24.90394   3.68969 
 Cl                    6.77325   26.96357   5.48307 
 Cl                    7.59987   28.84115   8.75204 
 Cl                    5.35533   24.73887   13.96284 
 Cl                    11.08837   28.80489   10.05838 
 Cl                    7.83759   16.93853   10.97836 
 Cl                    5.20457   21.11122   13.90963 
 Cl                    13.29389   20.88103   5.41973 
 Cl                    11.84277   26.73555   13.82787 
 Cl                    12.23423   18.96647   13.87325 
 Cl                    11.42652   16.82555   9.83539 
 
 ITRead=  0  0  0  0  0  0  0  0  0  0  0  0  0  0  0  0  0  0  0  0
 ITRead=  0  0  0  0  0  0  0  0  0  0  0  0  0  0  0  0  0  0  0  0
 ITRead=  0  0  0  0  0  0  0  0  0  0  0  0  0  0  0  0  0  0  0  0
 ITRead=  0  0  0  0  0  0  0  0  0  0  0  0  0  0  0  0  0  0  0  0
 ITRead=  0  0  0  0  0  0  0  0  0  0  0  0  0  0  0  0  0  0  0  0
 ITRead=  0  0  0  0
 MicOpt= -1 -1 -1 -1 -1 -1 -1 -1 -1 -1 -1 -1 -1 -1 -1 -1 -1 -1 -1 -1
 MicOpt= -1 -1 -1 -1 -1 -1 -1 -1 -1 -1 -1 -1 -1 -1 -1 -1 -1 -1 -1 -1
 MicOpt= -1 -1 -1 -1 -1 -1 -1 -1 -1 -1 -1 -1 -1 -1 -1 -1 -1 -1 -1 -1
 MicOpt= -1 -1 -1 -1 -1 -1 -1 -1 -1 -1 -1 -1 -1 -1 -1 -1 -1 -1 -1 -1
 MicOpt= -1 -1 -1 -1 -1 -1 -1 -1 -1 -1 -1 -1 -1 -1 -1 -1 -1 -1 -1 -1
 MicOpt= -1 -1 -1 -1
 NAtoms=    104 NQM=      104 NQMF=       0 NMMI=      0 NMMIF=      0
                NMic=       0 NMicF=      0.
                    Isotopes and Nuclear Properties:
 (Nuclear quadrupole moments (NQMom) in fm**2, nuclear magnetic moments (NMagM)
  in nuclear magnetons)

  Atom         1           2           3           4           5           6           7           8           9          10
 IAtWgt=          12          12          12          12          12          12          12          12          12          12
 AtmWgt=  12.0000000  12.0000000  12.0000000  12.0000000  12.0000000  12.0000000  12.0000000  12.0000000  12.0000000  12.0000000
 NucSpn=           0           0           0           0           0           0           0           0           0           0
 AtZEff=  -0.0000000  -0.0000000  -0.0000000  -0.0000000  -0.0000000  -0.0000000  -0.0000000  -0.0000000  -0.0000000  -0.0000000
 NQMom=    0.0000000   0.0000000   0.0000000   0.0000000   0.0000000   0.0000000   0.0000000   0.0000000   0.0000000   0.0000000
 NMagM=    0.0000000   0.0000000   0.0000000   0.0000000   0.0000000   0.0000000   0.0000000   0.0000000   0.0000000   0.0000000
 AtZNuc=   6.0000000   6.0000000   6.0000000   6.0000000   6.0000000   6.0000000   6.0000000   6.0000000   6.0000000   6.0000000

  Atom        11          12          13          14          15          16          17          18          19          20
 IAtWgt=          12          12          12          12          12          12          12          12          12          12
 AtmWgt=  12.0000000  12.0000000  12.0000000  12.0000000  12.0000000  12.0000000  12.0000000  12.0000000  12.0000000  12.0000000
 NucSpn=           0           0           0           0           0           0           0           0           0           0
 AtZEff=  -0.0000000  -0.0000000  -0.0000000  -0.0000000  -0.0000000  -0.0000000  -0.0000000  -0.0000000  -0.0000000  -0.0000000
 NQMom=    0.0000000   0.0000000   0.0000000   0.0000000   0.0000000   0.0000000   0.0000000   0.0000000   0.0000000   0.0000000
 NMagM=    0.0000000   0.0000000   0.0000000   0.0000000   0.0000000   0.0000000   0.0000000   0.0000000   0.0000000   0.0000000
 AtZNuc=   6.0000000   6.0000000   6.0000000   6.0000000   6.0000000   6.0000000   6.0000000   6.0000000   6.0000000   6.0000000

  Atom        21          22          23          24          25          26          27          28          29          30
 IAtWgt=          12          12          12          12          12          12          12          12          12          12
 AtmWgt=  12.0000000  12.0000000  12.0000000  12.0000000  12.0000000  12.0000000  12.0000000  12.0000000  12.0000000  12.0000000
 NucSpn=           0           0           0           0           0           0           0           0           0           0
 AtZEff=  -0.0000000  -0.0000000  -0.0000000  -0.0000000  -0.0000000  -0.0000000  -0.0000000  -0.0000000  -0.0000000  -0.0000000
 NQMom=    0.0000000   0.0000000   0.0000000   0.0000000   0.0000000   0.0000000   0.0000000   0.0000000   0.0000000   0.0000000
 NMagM=    0.0000000   0.0000000   0.0000000   0.0000000   0.0000000   0.0000000   0.0000000   0.0000000   0.0000000   0.0000000
 AtZNuc=   6.0000000   6.0000000   6.0000000   6.0000000   6.0000000   6.0000000   6.0000000   6.0000000   6.0000000   6.0000000

  Atom        31          32          33          34          35          36          37          38          39          40
 IAtWgt=          12          12          12          12          12          12          12          12          12          12
 AtmWgt=  12.0000000  12.0000000  12.0000000  12.0000000  12.0000000  12.0000000  12.0000000  12.0000000  12.0000000  12.0000000
 NucSpn=           0           0           0           0           0           0           0           0           0           0
 AtZEff=  -0.0000000  -0.0000000  -0.0000000  -0.0000000  -0.0000000  -0.0000000  -0.0000000  -0.0000000  -0.0000000  -0.0000000
 NQMom=    0.0000000   0.0000000   0.0000000   0.0000000   0.0000000   0.0000000   0.0000000   0.0000000   0.0000000   0.0000000
 NMagM=    0.0000000   0.0000000   0.0000000   0.0000000   0.0000000   0.0000000   0.0000000   0.0000000   0.0000000   0.0000000
 AtZNuc=   6.0000000   6.0000000   6.0000000   6.0000000   6.0000000   6.0000000   6.0000000   6.0000000   6.0000000   6.0000000

  Atom        41          42          43          44          45          46          47          48          49          50
 IAtWgt=          12          12          12          12          12          12          12          12          12          12
 AtmWgt=  12.0000000  12.0000000  12.0000000  12.0000000  12.0000000  12.0000000  12.0000000  12.0000000  12.0000000  12.0000000
 NucSpn=           0           0           0           0           0           0           0           0           0           0
 AtZEff=  -0.0000000  -0.0000000  -0.0000000  -0.0000000  -0.0000000  -0.0000000  -0.0000000  -0.0000000  -0.0000000  -0.0000000
 NQMom=    0.0000000   0.0000000   0.0000000   0.0000000   0.0000000   0.0000000   0.0000000   0.0000000   0.0000000   0.0000000
 NMagM=    0.0000000   0.0000000   0.0000000   0.0000000   0.0000000   0.0000000   0.0000000   0.0000000   0.0000000   0.0000000
 AtZNuc=   6.0000000   6.0000000   6.0000000   6.0000000   6.0000000   6.0000000   6.0000000   6.0000000   6.0000000   6.0000000

  Atom        51          52          53          54          55          56          57          58          59          60
 IAtWgt=          12          12          12          12          12          12          12          12          12          12
 AtmWgt=  12.0000000  12.0000000  12.0000000  12.0000000  12.0000000  12.0000000  12.0000000  12.0000000  12.0000000  12.0000000
 NucSpn=           0           0           0           0           0           0           0           0           0           0
 AtZEff=  -0.0000000  -0.0000000  -0.0000000  -0.0000000  -0.0000000  -0.0000000  -0.0000000  -0.0000000  -0.0000000  -0.0000000
 NQMom=    0.0000000   0.0000000   0.0000000   0.0000000   0.0000000   0.0000000   0.0000000   0.0000000   0.0000000   0.0000000
 NMagM=    0.0000000   0.0000000   0.0000000   0.0000000   0.0000000   0.0000000   0.0000000   0.0000000   0.0000000   0.0000000
 AtZNuc=   6.0000000   6.0000000   6.0000000   6.0000000   6.0000000   6.0000000   6.0000000   6.0000000   6.0000000   6.0000000

  Atom        61          62          63          64          65          66          67          68          69          70
 IAtWgt=          12          12          12          12          12          12          12          12          12          12
 AtmWgt=  12.0000000  12.0000000  12.0000000  12.0000000  12.0000000  12.0000000  12.0000000  12.0000000  12.0000000  12.0000000
 NucSpn=           0           0           0           0           0           0           0           0           0           0
 AtZEff=  -0.0000000  -0.0000000  -0.0000000  -0.0000000  -0.0000000  -0.0000000  -0.0000000  -0.0000000  -0.0000000  -0.0000000
 NQMom=    0.0000000   0.0000000   0.0000000   0.0000000   0.0000000   0.0000000   0.0000000   0.0000000   0.0000000   0.0000000
 NMagM=    0.0000000   0.0000000   0.0000000   0.0000000   0.0000000   0.0000000   0.0000000   0.0000000   0.0000000   0.0000000
 AtZNuc=   6.0000000   6.0000000   6.0000000   6.0000000   6.0000000   6.0000000   6.0000000   6.0000000   6.0000000   6.0000000

  Atom        71          72          73          74          75          76          77          78          79          80
 IAtWgt=          12          12          12          12          12          12          12          12          12          12
 AtmWgt=  12.0000000  12.0000000  12.0000000  12.0000000  12.0000000  12.0000000  12.0000000  12.0000000  12.0000000  12.0000000
 NucSpn=           0           0           0           0           0           0           0           0           0           0
 AtZEff=  -0.0000000  -0.0000000  -0.0000000  -0.0000000  -0.0000000  -0.0000000  -0.0000000  -0.0000000  -0.0000000  -0.0000000
 NQMom=    0.0000000   0.0000000   0.0000000   0.0000000   0.0000000   0.0000000   0.0000000   0.0000000   0.0000000   0.0000000
 NMagM=    0.0000000   0.0000000   0.0000000   0.0000000   0.0000000   0.0000000   0.0000000   0.0000000   0.0000000   0.0000000
 AtZNuc=   6.0000000   6.0000000   6.0000000   6.0000000   6.0000000   6.0000000   6.0000000   6.0000000   6.0000000   6.0000000

  Atom        81          82          83          84          85          86          87          88          89          90
 IAtWgt=          12          12          12          12          35          35          35          35          35          35
 AtmWgt=  12.0000000  12.0000000  12.0000000  12.0000000  34.9688527  34.9688527  34.9688527  34.9688527  34.9688527  34.9688527
 NucSpn=           0           0           0           0           3           3           3           3           3           3
 AtZEff=  -0.0000000  -0.0000000  -0.0000000  -0.0000000  -0.0000000  -0.0000000  -0.0000000  -0.0000000  -0.0000000  -0.0000000
 NQMom=    0.0000000   0.0000000   0.0000000   0.0000000  -8.1650000  -8.1650000  -8.1650000  -8.1650000  -8.1650000  -8.1650000
 NMagM=    0.0000000   0.0000000   0.0000000   0.0000000   0.8218740   0.8218740   0.8218740   0.8218740   0.8218740   0.8218740
 AtZNuc=   6.0000000   6.0000000   6.0000000   6.0000000  17.0000000  17.0000000  17.0000000  17.0000000  17.0000000  17.0000000

  Atom        91          92          93          94          95          96          97          98          99         100
 IAtWgt=          35          35          35          35          35          35          35          35          35          35
 AtmWgt=  34.9688527  34.9688527  34.9688527  34.9688527  34.9688527  34.9688527  34.9688527  34.9688527  34.9688527  34.9688527
 NucSpn=           3           3           3           3           3           3           3           3           3           3
 AtZEff=  -0.0000000  -0.0000000  -0.0000000  -0.0000000  -0.0000000  -0.0000000  -0.0000000  -0.0000000  -0.0000000  -0.0000000
 NQMom=   -8.1650000  -8.1650000  -8.1650000  -8.1650000  -8.1650000  -8.1650000  -8.1650000  -8.1650000  -8.1650000  -8.1650000
 NMagM=    0.8218740   0.8218740   0.8218740   0.8218740   0.8218740   0.8218740   0.8218740   0.8218740   0.8218740   0.8218740
 AtZNuc=  17.0000000  17.0000000  17.0000000  17.0000000  17.0000000  17.0000000  17.0000000  17.0000000  17.0000000  17.0000000

  Atom       101         102         103         104
 IAtWgt=          35          35          35          35
 AtmWgt=  34.9688527  34.9688527  34.9688527  34.9688527
 NucSpn=           3           3           3           3
 AtZEff=  -0.0000000  -0.0000000  -0.0000000  -0.0000000
 NQMom=   -8.1650000  -8.1650000  -8.1650000  -8.1650000
 NMagM=    0.8218740   0.8218740   0.8218740   0.8218740
 AtZNuc=  17.0000000  17.0000000  17.0000000  17.0000000
 Leave Link  101 at Wed Jun 29 07:27:12 2022, MaxMem=  1342177280 cpu:               6.8 elap:               0.3
 (Enter /home/mkliu/g16/l103.exe)

 GradGradGradGradGradGradGradGradGradGradGradGradGradGradGradGradGradGrad
 Berny optimization.
 Initialization pass.
                           ----------------------------
                           !    Initial Parameters    !
                           ! (Angstroms and Degrees)  !
 --------------------------                            --------------------------
 ! Name  Definition              Value          Derivative Info.                !
 --------------------------------------------------------------------------------
 ! R1    R(1,5)                  1.5068         estimate D2E/DX2                !
 ! R2    R(1,17)                 1.4996         estimate D2E/DX2                !
 ! R3    R(1,23)                 1.5077         estimate D2E/DX2                !
 ! R4    R(1,99)                 1.8091         estimate D2E/DX2                !
 ! R5    R(2,6)                  1.5012         estimate D2E/DX2                !
 ! R6    R(2,43)                 1.5131         estimate D2E/DX2                !
 ! R7    R(2,44)                 1.5085         estimate D2E/DX2                !
 ! R8    R(2,91)                 1.7991         estimate D2E/DX2                !
 ! R9    R(3,7)                  1.5052         estimate D2E/DX2                !
 ! R10   R(3,18)                 1.3913         estimate D2E/DX2                !
 ! R11   R(3,26)                 1.3993         estimate D2E/DX2                !
 ! R12   R(4,8)                  1.5014         estimate D2E/DX2                !
 ! R13   R(4,45)                 1.5043         estimate D2E/DX2                !
 ! R14   R(4,46)                 1.507          estimate D2E/DX2                !
 ! R15   R(4,88)                 1.8003         estimate D2E/DX2                !
 ! R16   R(5,9)                  1.4227         estimate D2E/DX2                !
 ! R17   R(5,29)                 1.3968         estimate D2E/DX2                !
 ! R18   R(6,10)                 1.3267         estimate D2E/DX2                !
 ! R19   R(6,15)                 1.5109         estimate D2E/DX2                !
 ! R20   R(7,12)                 1.5043         estimate D2E/DX2                !
 ! R21   R(7,30)                 1.5012         estimate D2E/DX2                !
 ! R22   R(7,96)                 1.8038         estimate D2E/DX2                !
 ! R23   R(8,11)                 1.3245         estimate D2E/DX2                !
 ! R24   R(8,16)                 1.5047         estimate D2E/DX2                !
 ! R25   R(9,13)                 1.4129         estimate D2E/DX2                !
 ! R26   R(9,35)                 1.4287         estimate D2E/DX2                !
 ! R27   R(10,49)                1.508          estimate D2E/DX2                !
 ! R28   R(10,53)                1.5071         estimate D2E/DX2                !
 ! R29   R(11,50)                1.5086         estimate D2E/DX2                !
 ! R30   R(11,54)                1.5043         estimate D2E/DX2                !
 ! R31   R(12,14)                1.3838         estimate D2E/DX2                !
 ! R32   R(12,36)                1.4003         estimate D2E/DX2                !
 ! R33   R(13,15)                1.5016         estimate D2E/DX2                !
 ! R34   R(13,43)                1.389          estimate D2E/DX2                !
 ! R35   R(14,16)                1.5051         estimate D2E/DX2                !
 ! R36   R(14,46)                1.3881         estimate D2E/DX2                !
 ! R37   R(15,17)                1.4722         estimate D2E/DX2                !
 ! R38   R(15,104)               1.8157         estimate D2E/DX2                !
 ! R39   R(16,18)                1.5013         estimate D2E/DX2                !
 ! R40   R(16,98)                1.8027         estimate D2E/DX2                !
 ! R41   R(17,19)                1.3588         estimate D2E/DX2                !
 ! R42   R(18,20)                1.3989         estimate D2E/DX2                !
 ! R43   R(19,21)                1.4258         estimate D2E/DX2                !
 ! R44   R(19,53)                1.4762         estimate D2E/DX2                !
 ! R45   R(20,22)                1.3951         estimate D2E/DX2                !
 ! R46   R(20,54)                1.4989         estimate D2E/DX2                !
 ! R47   R(21,23)                1.4326         estimate D2E/DX2                !
 ! R48   R(21,57)                1.41           estimate D2E/DX2                !
 ! R49   R(22,24)                1.4029         estimate D2E/DX2                !
 ! R50   R(22,58)                1.4434         estimate D2E/DX2                !
 ! R51   R(23,25)                1.3399         estimate D2E/DX2                !
 ! R52   R(24,26)                1.3677         estimate D2E/DX2                !
 ! R53   R(24,62)                1.4975         estimate D2E/DX2                !
 ! R54   R(25,27)                1.497          estimate D2E/DX2                !
 ! R55   R(25,61)                1.4978         estimate D2E/DX2                !
 ! R56   R(26,28)                1.4971         estimate D2E/DX2                !
 ! R57   R(27,29)                1.5099         estimate D2E/DX2                !
 ! R58   R(27,65)                1.5107         estimate D2E/DX2                !
 ! R59   R(27,93)                1.8013         estimate D2E/DX2                !
 ! R60   R(28,30)                1.501          estimate D2E/DX2                !
 ! R61   R(28,66)                1.5175         estimate D2E/DX2                !
 ! R62   R(28,85)                1.8008         estimate D2E/DX2                !
 ! R63   R(29,31)                1.3875         estimate D2E/DX2                !
 ! R64   R(30,32)                1.3232         estimate D2E/DX2                !
 ! R65   R(31,33)                1.4004         estimate D2E/DX2                !
 ! R66   R(31,69)                1.519          estimate D2E/DX2                !
 ! R67   R(32,34)                1.5045         estimate D2E/DX2                !
 ! R68   R(32,70)                1.5033         estimate D2E/DX2                !
 ! R69   R(33,35)                1.4061         estimate D2E/DX2                !
 ! R70   R(33,73)                1.4315         estimate D2E/DX2                !
 ! R71   R(34,36)                1.5173         estimate D2E/DX2                !
 ! R72   R(34,74)                1.495          estimate D2E/DX2                !
 ! R73   R(34,95)                1.804          estimate D2E/DX2                !
 ! R74   R(35,37)                1.438          estimate D2E/DX2                !
 ! R75   R(36,38)                1.4026         estimate D2E/DX2                !
 ! R76   R(37,39)                1.412          estimate D2E/DX2                !
 ! R77   R(37,77)                1.4181         estimate D2E/DX2                !
 ! R78   R(38,42)                1.4015         estimate D2E/DX2                !
 ! R79   R(38,78)                1.5139         estimate D2E/DX2                !
 ! R80   R(39,43)                1.3868         estimate D2E/DX2                !
 ! R81   R(39,79)                1.4993         estimate D2E/DX2                !
 ! R82   R(40,41)                1.3874         estimate D2E/DX2                !
 ! R83   R(40,44)                1.3854         estimate D2E/DX2                !
 ! R84   R(40,79)                1.5028         estimate D2E/DX2                !
 ! R85   R(41,45)                1.3842         estimate D2E/DX2                !
 ! R86   R(41,80)                1.5085         estimate D2E/DX2                !
 ! R87   R(42,46)                1.3835         estimate D2E/DX2                !
 ! R88   R(42,80)                1.5076         estimate D2E/DX2                !
 ! R89   R(44,47)                1.3994         estimate D2E/DX2                !
 ! R90   R(45,48)                1.3985         estimate D2E/DX2                !
 ! R91   R(47,48)                1.4071         estimate D2E/DX2                !
 ! R92   R(47,49)                1.5155         estimate D2E/DX2                !
 ! R93   R(48,50)                1.5142         estimate D2E/DX2                !
 ! R94   R(49,51)                1.4987         estimate D2E/DX2                !
 ! R95   R(49,90)                1.8013         estimate D2E/DX2                !
 ! R96   R(50,52)                1.4933         estimate D2E/DX2                !
 ! R97   R(50,89)                1.8009         estimate D2E/DX2                !
 ! R98   R(51,52)                1.3802         estimate D2E/DX2                !
 ! R99   R(51,55)                1.3864         estimate D2E/DX2                !
 ! R100  R(52,56)                1.381          estimate D2E/DX2                !
 ! R101  R(53,55)                1.4997         estimate D2E/DX2                !
 ! R102  R(53,103)               1.8073         estimate D2E/DX2                !
 ! R103  R(54,56)                1.506          estimate D2E/DX2                !
 ! R104  R(54,102)               1.8153         estimate D2E/DX2                !
 ! R105  R(55,83)                1.4058         estimate D2E/DX2                !
 ! R106  R(56,84)                1.4081         estimate D2E/DX2                !
 ! R107  R(57,59)                1.4183         estimate D2E/DX2                !
 ! R108  R(57,83)                1.4482         estimate D2E/DX2                !
 ! R109  R(58,60)                1.3982         estimate D2E/DX2                !
 ! R110  R(58,84)                1.4104         estimate D2E/DX2                !
 ! R111  R(59,60)                1.3859         estimate D2E/DX2                !
 ! R112  R(59,61)                1.5046         estimate D2E/DX2                !
 ! R113  R(60,62)                1.5177         estimate D2E/DX2                !
 ! R114  R(61,63)                1.5057         estimate D2E/DX2                !
 ! R115  R(61,100)               1.8196         estimate D2E/DX2                !
 ! R116  R(62,64)                1.5044         estimate D2E/DX2                !
 ! R117  R(62,97)                1.7984         estimate D2E/DX2                !
 ! R118  R(63,64)                1.3827         estimate D2E/DX2                !
 ! R119  R(63,65)                1.3873         estimate D2E/DX2                !
 ! R120  R(64,66)                1.4031         estimate D2E/DX2                !
 ! R121  R(65,67)                1.3843         estimate D2E/DX2                !
 ! R122  R(66,68)                1.4012         estimate D2E/DX2                !
 ! R123  R(67,68)                1.4027         estimate D2E/DX2                !
 ! R124  R(67,69)                1.5039         estimate D2E/DX2                !
 ! R125  R(68,70)                1.5183         estimate D2E/DX2                !
 ! R126  R(69,71)                1.5014         estimate D2E/DX2                !
 ! R127  R(69,92)                1.7986         estimate D2E/DX2                !
 ! R128  R(70,72)                1.4975         estimate D2E/DX2                !
 ! R129  R(70,86)                1.8053         estimate D2E/DX2                !
 ! R130  R(71,72)                1.3701         estimate D2E/DX2                !
 ! R131  R(71,73)                1.4082         estimate D2E/DX2                !
 ! R132  R(72,74)                1.4175         estimate D2E/DX2                !
 ! R133  R(73,75)                1.389          estimate D2E/DX2                !
 ! R134  R(74,76)                1.3666         estimate D2E/DX2                !
 ! R135  R(75,76)                1.4166         estimate D2E/DX2                !
 ! R136  R(75,77)                1.416          estimate D2E/DX2                !
 ! R137  R(76,78)                1.5009         estimate D2E/DX2                !
 ! R138  R(77,81)                1.435          estimate D2E/DX2                !
 ! R139  R(78,81)                1.5136         estimate D2E/DX2                !
 ! R140  R(78,94)                1.7988         estimate D2E/DX2                !
 ! R141  R(79,82)                1.4978         estimate D2E/DX2                !
 ! R142  R(79,101)               1.8189         estimate D2E/DX2                !
 ! R143  R(80,82)                1.4951         estimate D2E/DX2                !
 ! R144  R(80,87)                1.8024         estimate D2E/DX2                !
 ! R145  R(81,82)                1.3407         estimate D2E/DX2                !
 ! R146  R(83,84)                1.4265         estimate D2E/DX2                !
 ! A1    A(5,1,17)             113.6989         estimate D2E/DX2                !
 ! A2    A(5,1,23)             109.5119         estimate D2E/DX2                !
 ! A3    A(5,1,99)             108.218          estimate D2E/DX2                !
 ! A4    A(17,1,23)            101.5709         estimate D2E/DX2                !
 ! A5    A(17,1,99)            111.3855         estimate D2E/DX2                !
 ! A6    A(23,1,99)            112.4195         estimate D2E/DX2                !
 ! A7    A(6,2,43)             100.8587         estimate D2E/DX2                !
 ! A8    A(6,2,44)             111.6804         estimate D2E/DX2                !
 ! A9    A(6,2,91)             112.6528         estimate D2E/DX2                !
 ! A10   A(43,2,44)            107.6764         estimate D2E/DX2                !
 ! A11   A(43,2,91)            113.1151         estimate D2E/DX2                !
 ! A12   A(44,2,91)            110.4493         estimate D2E/DX2                !
 ! A13   A(7,3,18)             124.812          estimate D2E/DX2                !
 ! A14   A(7,3,26)             110.1101         estimate D2E/DX2                !
 ! A15   A(18,3,26)            121.3776         estimate D2E/DX2                !
 ! A16   A(8,4,45)             111.7643         estimate D2E/DX2                !
 ! A17   A(8,4,46)             100.5379         estimate D2E/DX2                !
 ! A18   A(8,4,88)             112.722          estimate D2E/DX2                !
 ! A19   A(45,4,46)            108.2522         estimate D2E/DX2                !
 ! A20   A(45,4,88)            110.5998         estimate D2E/DX2                !
 ! A21   A(46,4,88)            112.5332         estimate D2E/DX2                !
 ! A22   A(1,5,9)              119.0921         estimate D2E/DX2                !
 ! A23   A(1,5,29)             118.561          estimate D2E/DX2                !
 ! A24   A(9,5,29)             120.8132         estimate D2E/DX2                !
 ! A25   A(2,6,10)             121.9534         estimate D2E/DX2                !
 ! A26   A(2,6,15)             110.0759         estimate D2E/DX2                !
 ! A27   A(10,6,15)            123.9306         estimate D2E/DX2                !
 ! A28   A(3,7,12)             109.5091         estimate D2E/DX2                !
 ! A29   A(3,7,30)             101.3086         estimate D2E/DX2                !
 ! A30   A(3,7,96)             112.3427         estimate D2E/DX2                !
 ! A31   A(12,7,30)            110.4737         estimate D2E/DX2                !
 ! A32   A(12,7,96)            110.2858         estimate D2E/DX2                !
 ! A33   A(30,7,96)            112.6028         estimate D2E/DX2                !
 ! A34   A(4,8,11)             121.6952         estimate D2E/DX2                !
 ! A35   A(4,8,16)             111.1894         estimate D2E/DX2                !
 ! A36   A(11,8,16)            123.5864         estimate D2E/DX2                !
 ! A37   A(5,9,13)             120.7099         estimate D2E/DX2                !
 ! A38   A(5,9,35)             119.9125         estimate D2E/DX2                !
 ! A39   A(13,9,35)            116.6308         estimate D2E/DX2                !
 ! A40   A(6,10,49)            123.7342         estimate D2E/DX2                !
 ! A41   A(6,10,53)            122.4448         estimate D2E/DX2                !
 ! A42   A(49,10,53)           110.1896         estimate D2E/DX2                !
 ! A43   A(8,11,50)            122.9862         estimate D2E/DX2                !
 ! A44   A(8,11,54)            122.5295         estimate D2E/DX2                !
 ! A45   A(50,11,54)           111.4257         estimate D2E/DX2                !
 ! A46   A(7,12,14)            116.9974         estimate D2E/DX2                !
 ! A47   A(7,12,36)            122.6682         estimate D2E/DX2                !
 ! A48   A(14,12,36)           119.057          estimate D2E/DX2                !
 ! A49   A(9,13,15)            125.2379         estimate D2E/DX2                !
 ! A50   A(9,13,43)            120.7595         estimate D2E/DX2                !
 ! A51   A(15,13,43)           110.5953         estimate D2E/DX2                !
 ! A52   A(12,14,16)           125.5081         estimate D2E/DX2                !
 ! A53   A(12,14,46)           120.8946         estimate D2E/DX2                !
 ! A54   A(16,14,46)           111.2361         estimate D2E/DX2                !
 ! A55   A(6,15,13)            100.3123         estimate D2E/DX2                !
 ! A56   A(6,15,17)            111.5149         estimate D2E/DX2                !
 ! A57   A(6,15,104)           112.0239         estimate D2E/DX2                !
 ! A58   A(13,15,17)           108.6807         estimate D2E/DX2                !
 ! A59   A(13,15,104)          110.8071         estimate D2E/DX2                !
 ! A60   A(17,15,104)          112.7795         estimate D2E/DX2                !
 ! A61   A(8,16,14)            100.4161         estimate D2E/DX2                !
 ! A62   A(8,16,18)            112.2577         estimate D2E/DX2                !
 ! A63   A(8,16,98)            112.123          estimate D2E/DX2                !
 ! A64   A(14,16,18)           108.8817         estimate D2E/DX2                !
 ! A65   A(14,16,98)           111.9667         estimate D2E/DX2                !
 ! A66   A(18,16,98)           110.7716         estimate D2E/DX2                !
 ! A67   A(1,17,15)            123.0214         estimate D2E/DX2                !
 ! A68   A(1,17,19)            110.6583         estimate D2E/DX2                !
 ! A69   A(15,17,19)           122.2418         estimate D2E/DX2                !
 ! A70   A(3,18,16)            117.3495         estimate D2E/DX2                !
 ! A71   A(3,18,20)            119.4122         estimate D2E/DX2                !
 ! A72   A(16,18,20)           120.7654         estimate D2E/DX2                !
 ! A73   A(17,19,21)           110.9907         estimate D2E/DX2                !
 ! A74   A(17,19,53)           124.1373         estimate D2E/DX2                !
 ! A75   A(21,19,53)           121.8446         estimate D2E/DX2                !
 ! A76   A(18,20,22)           118.4566         estimate D2E/DX2                !
 ! A77   A(18,20,54)           122.1783         estimate D2E/DX2                !
 ! A78   A(22,20,54)           117.1278         estimate D2E/DX2                !
 ! A79   A(19,21,23)           106.7749         estimate D2E/DX2                !
 ! A80   A(19,21,57)           122.6503         estimate D2E/DX2                !
 ! A81   A(23,21,57)           121.1659         estimate D2E/DX2                !
 ! A82   A(20,22,24)           121.6907         estimate D2E/DX2                !
 ! A83   A(20,22,58)           122.9817         estimate D2E/DX2                !
 ! A84   A(24,22,58)           107.7927         estimate D2E/DX2                !
 ! A85   A(1,23,21)            109.6667         estimate D2E/DX2                !
 ! A86   A(1,23,25)            123.6622         estimate D2E/DX2                !
 ! A87   A(21,23,25)           122.0814         estimate D2E/DX2                !
 ! A88   A(22,24,26)           119.3548         estimate D2E/DX2                !
 ! A89   A(22,24,62)           111.0792         estimate D2E/DX2                !
 ! A90   A(26,24,62)           122.7211         estimate D2E/DX2                !
 ! A91   A(23,25,27)           121.2251         estimate D2E/DX2                !
 ! A92   A(23,25,61)           120.6469         estimate D2E/DX2                !
 ! A93   A(27,25,61)           112.4005         estimate D2E/DX2                !
 ! A94   A(3,26,24)            119.6246         estimate D2E/DX2                !
 ! A95   A(3,26,28)            112.6684         estimate D2E/DX2                !
 ! A96   A(24,26,28)           122.4559         estimate D2E/DX2                !
 ! A97   A(25,27,29)           111.6988         estimate D2E/DX2                !
 ! A98   A(25,27,65)           100.1764         estimate D2E/DX2                !
 ! A99   A(25,27,93)           113.2767         estimate D2E/DX2                !
 ! A100  A(29,27,65)           107.6097         estimate D2E/DX2                !
 ! A101  A(29,27,93)           111.0388         estimate D2E/DX2                !
 ! A102  A(65,27,93)           112.4716         estimate D2E/DX2                !
 ! A103  A(26,28,30)           100.6264         estimate D2E/DX2                !
 ! A104  A(26,28,66)           109.2855         estimate D2E/DX2                !
 ! A105  A(26,28,85)           113.5721         estimate D2E/DX2                !
 ! A106  A(30,28,66)           110.9897         estimate D2E/DX2                !
 ! A107  A(30,28,85)           112.8968         estimate D2E/DX2                !
 ! A108  A(66,28,85)           109.2254         estimate D2E/DX2                !
 ! A109  A(5,29,27)            123.1742         estimate D2E/DX2                !
 ! A110  A(5,29,31)            118.9408         estimate D2E/DX2                !
 ! A111  A(27,29,31)           115.8355         estimate D2E/DX2                !
 ! A112  A(7,30,28)            112.5177         estimate D2E/DX2                !
 ! A113  A(7,30,32)            122.0443         estimate D2E/DX2                !
 ! A114  A(28,30,32)           122.0373         estimate D2E/DX2                !
 ! A115  A(29,31,33)           120.4923         estimate D2E/DX2                !
 ! A116  A(29,31,69)           125.0675         estimate D2E/DX2                !
 ! A117  A(33,31,69)           109.8201         estimate D2E/DX2                !
 ! A118  A(30,32,34)           122.6277         estimate D2E/DX2                !
 ! A119  A(30,32,70)           121.7493         estimate D2E/DX2                !
 ! A120  A(34,32,70)           112.9609         estimate D2E/DX2                !
 ! A121  A(31,33,35)           121.9994         estimate D2E/DX2                !
 ! A122  A(31,33,73)           108.7266         estimate D2E/DX2                !
 ! A123  A(35,33,73)           121.8911         estimate D2E/DX2                !
 ! A124  A(32,34,36)           110.3058         estimate D2E/DX2                !
 ! A125  A(32,34,74)           101.2548         estimate D2E/DX2                !
 ! A126  A(32,34,95)           112.2772         estimate D2E/DX2                !
 ! A127  A(36,34,74)           110.7182         estimate D2E/DX2                !
 ! A128  A(36,34,95)           108.8525         estimate D2E/DX2                !
 ! A129  A(74,34,95)           113.279          estimate D2E/DX2                !
 ! A130  A(9,35,33)            116.8045         estimate D2E/DX2                !
 ! A131  A(9,35,37)            121.0537         estimate D2E/DX2                !
 ! A132  A(33,35,37)           118.6246         estimate D2E/DX2                !
 ! A133  A(12,36,34)           118.1095         estimate D2E/DX2                !
 ! A134  A(12,36,38)           119.956          estimate D2E/DX2                !
 ! A135  A(34,36,38)           121.2774         estimate D2E/DX2                !
 ! A136  A(35,37,39)           119.0248         estimate D2E/DX2                !
 ! A137  A(35,37,77)           118.8363         estimate D2E/DX2                !
 ! A138  A(39,37,77)           117.9342         estimate D2E/DX2                !
 ! A139  A(36,38,42)           120.2847         estimate D2E/DX2                !
 ! A140  A(36,38,78)           120.9509         estimate D2E/DX2                !
 ! A141  A(42,38,78)           118.0928         estimate D2E/DX2                !
 ! A142  A(37,39,43)           118.7993         estimate D2E/DX2                !
 ! A143  A(37,39,79)           121.6884         estimate D2E/DX2                !
 ! A144  A(43,39,79)           117.3814         estimate D2E/DX2                !
 ! A145  A(41,40,44)           121.3315         estimate D2E/DX2                !
 ! A146  A(41,40,79)           111.0978         estimate D2E/DX2                !
 ! A147  A(44,40,79)           124.8159         estimate D2E/DX2                !
 ! A148  A(40,41,45)           120.6225         estimate D2E/DX2                !
 ! A149  A(40,41,80)           111.5631         estimate D2E/DX2                !
 ! A150  A(45,41,80)           125.2181         estimate D2E/DX2                !
 ! A151  A(38,42,46)           118.8707         estimate D2E/DX2                !
 ! A152  A(38,42,80)           123.5396         estimate D2E/DX2                !
 ! A153  A(46,42,80)           116.2417         estimate D2E/DX2                !
 ! A154  A(2,43,13)            111.0734         estimate D2E/DX2                !
 ! A155  A(2,43,39)            123.8064         estimate D2E/DX2                !
 ! A156  A(13,43,39)           122.3348         estimate D2E/DX2                !
 ! A157  A(2,44,40)            116.3959         estimate D2E/DX2                !
 ! A158  A(2,44,47)            123.5397         estimate D2E/DX2                !
 ! A159  A(40,44,47)           118.7072         estimate D2E/DX2                !
 ! A160  A(4,45,41)            116.4297         estimate D2E/DX2                !
 ! A161  A(4,45,48)            123.1797         estimate D2E/DX2                !
 ! A162  A(41,45,48)           118.9604         estimate D2E/DX2                !
 ! A163  A(4,46,14)            111.276          estimate D2E/DX2                !
 ! A164  A(4,46,42)            125.3899         estimate D2E/DX2                !
 ! A165  A(14,46,42)           120.8767         estimate D2E/DX2                !
 ! A166  A(44,47,48)           119.9942         estimate D2E/DX2                !
 ! A167  A(44,47,49)           118.4495         estimate D2E/DX2                !
 ! A168  A(48,47,49)           120.8016         estimate D2E/DX2                !
 ! A169  A(45,48,47)           120.3338         estimate D2E/DX2                !
 ! A170  A(45,48,50)           117.9699         estimate D2E/DX2                !
 ! A171  A(47,48,50)           120.8828         estimate D2E/DX2                !
 ! A172  A(10,49,47)           111.6625         estimate D2E/DX2                !
 ! A173  A(10,49,51)           100.741          estimate D2E/DX2                !
 ! A174  A(10,49,90)           112.5406         estimate D2E/DX2                !
 ! A175  A(47,49,51)           108.4783         estimate D2E/DX2                !
 ! A176  A(47,49,90)           109.3663         estimate D2E/DX2                !
 ! A177  A(51,49,90)           113.7994         estimate D2E/DX2                !
 ! A178  A(11,50,48)           111.7192         estimate D2E/DX2                !
 ! A179  A(11,50,52)           100.4832         estimate D2E/DX2                !
 ! A180  A(11,50,89)           112.2863         estimate D2E/DX2                !
 ! A181  A(48,50,52)           108.6242         estimate D2E/DX2                !
 ! A182  A(48,50,89)           109.6441         estimate D2E/DX2                !
 ! A183  A(52,50,89)           113.8015         estimate D2E/DX2                !
 ! A184  A(49,51,52)           121.5252         estimate D2E/DX2                !
 ! A185  A(49,51,55)           112.7095         estimate D2E/DX2                !
 ! A186  A(52,51,55)           120.4576         estimate D2E/DX2                !
 ! A187  A(50,52,51)           122.2358         estimate D2E/DX2                !
 ! A188  A(50,52,56)           112.8894         estimate D2E/DX2                !
 ! A189  A(51,52,56)           119.9528         estimate D2E/DX2                !
 ! A190  A(10,53,19)           110.2754         estimate D2E/DX2                !
 ! A191  A(10,53,55)           101.38           estimate D2E/DX2                !
 ! A192  A(10,53,103)          112.5954         estimate D2E/DX2                !
 ! A193  A(19,53,55)           109.2218         estimate D2E/DX2                !
 ! A194  A(19,53,103)          111.4523         estimate D2E/DX2                !
 ! A195  A(55,53,103)          111.4615         estimate D2E/DX2                !
 ! A196  A(11,54,20)           111.8411         estimate D2E/DX2                !
 ! A197  A(11,54,56)           100.7458         estimate D2E/DX2                !
 ! A198  A(11,54,102)          111.7928         estimate D2E/DX2                !
 ! A199  A(20,54,56)           111.9251         estimate D2E/DX2                !
 ! A200  A(20,54,102)          109.2939         estimate D2E/DX2                !
 ! A201  A(56,54,102)          111.0626         estimate D2E/DX2                !
 ! A202  A(51,55,53)           109.204          estimate D2E/DX2                !
 ! A203  A(51,55,83)           121.3974         estimate D2E/DX2                !
 ! A204  A(53,55,83)           125.2674         estimate D2E/DX2                !
 ! A205  A(52,56,54)           110.2223         estimate D2E/DX2                !
 ! A206  A(52,56,84)           120.3225         estimate D2E/DX2                !
 ! A207  A(54,56,84)           124.9175         estimate D2E/DX2                !
 ! A208  A(21,57,59)           117.8689         estimate D2E/DX2                !
 ! A209  A(21,57,83)           117.1005         estimate D2E/DX2                !
 ! A210  A(59,57,83)           120.2045         estimate D2E/DX2                !
 ! A211  A(22,58,60)           109.0115         estimate D2E/DX2                !
 ! A212  A(22,58,84)           120.2917         estimate D2E/DX2                !
 ! A213  A(60,58,84)           121.7501         estimate D2E/DX2                !
 ! A214  A(57,59,60)           119.337          estimate D2E/DX2                !
 ! A215  A(57,59,61)           121.5697         estimate D2E/DX2                !
 ! A216  A(60,59,61)           116.3952         estimate D2E/DX2                !
 ! A217  A(58,60,59)           121.0704         estimate D2E/DX2                !
 ! A218  A(58,60,62)           109.6972         estimate D2E/DX2                !
 ! A219  A(59,60,62)           124.7043         estimate D2E/DX2                !
 ! A220  A(25,61,59)           113.9817         estimate D2E/DX2                !
 ! A221  A(25,61,63)           100.2829         estimate D2E/DX2                !
 ! A222  A(25,61,100)          111.7621         estimate D2E/DX2                !
 ! A223  A(59,61,63)           109.8478         estimate D2E/DX2                !
 ! A224  A(59,61,100)          109.6212         estimate D2E/DX2                !
 ! A225  A(63,61,100)          111.0454         estimate D2E/DX2                !
 ! A226  A(24,62,60)           101.1275         estimate D2E/DX2                !
 ! A227  A(24,62,64)           109.1284         estimate D2E/DX2                !
 ! A228  A(24,62,97)           113.6559         estimate D2E/DX2                !
 ! A229  A(60,62,64)           109.9936         estimate D2E/DX2                !
 ! A230  A(60,62,97)           112.3704         estimate D2E/DX2                !
 ! A231  A(64,62,97)           110.2106         estimate D2E/DX2                !
 ! A232  A(61,63,64)           125.4312         estimate D2E/DX2                !
 ! A233  A(61,63,65)           111.4334         estimate D2E/DX2                !
 ! A234  A(64,63,65)           120.8484         estimate D2E/DX2                !
 ! A235  A(62,64,63)           116.1464         estimate D2E/DX2                !
 ! A236  A(62,64,66)           123.5702         estimate D2E/DX2                !
 ! A237  A(63,64,66)           119.1651         estimate D2E/DX2                !
 ! A238  A(27,65,63)           111.3987         estimate D2E/DX2                !
 ! A239  A(27,65,67)           125.4844         estimate D2E/DX2                !
 ! A240  A(63,65,67)           120.7015         estimate D2E/DX2                !
 ! A241  A(28,66,64)           119.3437         estimate D2E/DX2                !
 ! A242  A(28,66,68)           119.8924         estimate D2E/DX2                !
 ! A243  A(64,66,68)           120.0736         estimate D2E/DX2                !
 ! A244  A(65,67,68)           119.2937         estimate D2E/DX2                !
 ! A245  A(65,67,69)           115.9489         estimate D2E/DX2                !
 ! A246  A(68,67,69)           123.5239         estimate D2E/DX2                !
 ! A247  A(66,68,67)           119.876          estimate D2E/DX2                !
 ! A248  A(66,68,70)           119.7322         estimate D2E/DX2                !
 ! A249  A(67,68,70)           119.7918         estimate D2E/DX2                !
 ! A250  A(31,69,67)           107.9214         estimate D2E/DX2                !
 ! A251  A(31,69,71)           101.7944         estimate D2E/DX2                !
 ! A252  A(31,69,92)           113.1435         estimate D2E/DX2                !
 ! A253  A(67,69,71)           110.085          estimate D2E/DX2                !
 ! A254  A(67,69,92)           110.4391         estimate D2E/DX2                !
 ! A255  A(71,69,92)           113.0615         estimate D2E/DX2                !
 ! A256  A(32,70,68)           110.659          estimate D2E/DX2                !
 ! A257  A(32,70,72)           101.2968         estimate D2E/DX2                !
 ! A258  A(32,70,86)           112.3021         estimate D2E/DX2                !
 ! A259  A(68,70,72)           110.7397         estimate D2E/DX2                !
 ! A260  A(68,70,86)           108.6433         estimate D2E/DX2                !
 ! A261  A(72,70,86)           113.0835         estimate D2E/DX2                !
 ! A262  A(69,71,72)           123.3631         estimate D2E/DX2                !
 ! A263  A(69,71,73)           109.4744         estimate D2E/DX2                !
 ! A264  A(72,71,73)           118.7874         estimate D2E/DX2                !
 ! A265  A(70,72,71)           122.0877         estimate D2E/DX2                !
 ! A266  A(70,72,74)           111.267          estimate D2E/DX2                !
 ! A267  A(71,72,74)           120.347          estimate D2E/DX2                !
 ! A268  A(33,73,71)           109.0249         estimate D2E/DX2                !
 ! A269  A(33,73,75)           119.0273         estimate D2E/DX2                !
 ! A270  A(71,73,75)           120.8664         estimate D2E/DX2                !
 ! A271  A(34,74,72)           111.4611         estimate D2E/DX2                !
 ! A272  A(34,74,76)           121.4316         estimate D2E/DX2                !
 ! A273  A(72,74,76)           121.1693         estimate D2E/DX2                !
 ! A274  A(73,75,76)           119.8643         estimate D2E/DX2                !
 ! A275  A(73,75,77)           120.1135         estimate D2E/DX2                !
 ! A276  A(76,75,77)           110.4154         estimate D2E/DX2                !
 ! A277  A(74,76,75)           118.7207         estimate D2E/DX2                !
 ! A278  A(74,76,78)           123.2279         estimate D2E/DX2                !
 ! A279  A(75,76,78)           109.688          estimate D2E/DX2                !
 ! A280  A(37,77,75)           121.3039         estimate D2E/DX2                !
 ! A281  A(37,77,81)           120.6394         estimate D2E/DX2                !
 ! A282  A(75,77,81)           107.3074         estimate D2E/DX2                !
 ! A283  A(38,78,76)           110.2674         estimate D2E/DX2                !
 ! A284  A(38,78,81)           109.2727         estimate D2E/DX2                !
 ! A285  A(38,78,94)           109.081          estimate D2E/DX2                !
 ! A286  A(76,78,81)           101.7871         estimate D2E/DX2                !
 ! A287  A(76,78,94)           113.5508         estimate D2E/DX2                !
 ! A288  A(81,78,94)           112.6693         estimate D2E/DX2                !
 ! A289  A(39,79,40)           108.2135         estimate D2E/DX2                !
 ! A290  A(39,79,82)           113.3677         estimate D2E/DX2                !
 ! A291  A(39,79,101)          110.2886         estimate D2E/DX2                !
 ! A292  A(40,79,82)           101.073          estimate D2E/DX2                !
 ! A293  A(40,79,101)          112.0746         estimate D2E/DX2                !
 ! A294  A(82,79,101)          111.5015         estimate D2E/DX2                !
 ! A295  A(41,80,42)           108.1262         estimate D2E/DX2                !
 ! A296  A(41,80,82)           100.4896         estimate D2E/DX2                !
 ! A297  A(41,80,87)           112.376          estimate D2E/DX2                !
 ! A298  A(42,80,82)           111.2184         estimate D2E/DX2                !
 ! A299  A(42,80,87)           110.3791         estimate D2E/DX2                !
 ! A300  A(82,80,87)           113.7842         estimate D2E/DX2                !
 ! A301  A(77,81,78)           110.443          estimate D2E/DX2                !
 ! A302  A(77,81,82)           121.2946         estimate D2E/DX2                !
 ! A303  A(78,81,82)           123.2999         estimate D2E/DX2                !
 ! A304  A(79,82,80)           112.1227         estimate D2E/DX2                !
 ! A305  A(79,82,81)           121.0796         estimate D2E/DX2                !
 ! A306  A(80,82,81)           121.2173         estimate D2E/DX2                !
 ! A307  A(55,83,57)           119.5705         estimate D2E/DX2                !
 ! A308  A(55,83,84)           116.9537         estimate D2E/DX2                !
 ! A309  A(57,83,84)           119.1007         estimate D2E/DX2                !
 ! A310  A(56,84,58)           116.6785         estimate D2E/DX2                !
 ! A311  A(56,84,83)           120.132          estimate D2E/DX2                !
 ! A312  A(58,84,83)           118.4265         estimate D2E/DX2                !
 ! D1    D(17,1,5,9)            19.0512         estimate D2E/DX2                !
 ! D2    D(17,1,5,29)         -146.9475         estimate D2E/DX2                !
 ! D3    D(23,1,5,9)           131.8777         estimate D2E/DX2                !
 ! D4    D(23,1,5,29)          -34.1211         estimate D2E/DX2                !
 ! D5    D(99,1,5,9)          -105.2614         estimate D2E/DX2                !
 ! D6    D(99,1,5,29)           88.7398         estimate D2E/DX2                !
 ! D7    D(5,1,17,15)          -34.6735         estimate D2E/DX2                !
 ! D8    D(5,1,17,19)          123.0018         estimate D2E/DX2                !
 ! D9    D(23,1,17,15)        -152.2026         estimate D2E/DX2                !
 ! D10   D(23,1,17,19)           5.4727         estimate D2E/DX2                !
 ! D11   D(99,1,17,15)          87.9125         estimate D2E/DX2                !
 ! D12   D(99,1,17,19)        -114.4122         estimate D2E/DX2                !
 ! D13   D(5,1,23,21)         -123.4861         estimate D2E/DX2                !
 ! D14   D(5,1,23,25)           32.8148         estimate D2E/DX2                !
 ! D15   D(17,1,23,21)          -2.9678         estimate D2E/DX2                !
 ! D16   D(17,1,23,25)         153.3331         estimate D2E/DX2                !
 ! D17   D(99,1,23,21)         116.1829         estimate D2E/DX2                !
 ! D18   D(99,1,23,25)         -87.5162         estimate D2E/DX2                !
 ! D19   D(43,2,6,10)         -135.206          estimate D2E/DX2                !
 ! D20   D(43,2,6,15)           22.9788         estimate D2E/DX2                !
 ! D21   D(44,2,6,10)          -21.0656         estimate D2E/DX2                !
 ! D22   D(44,2,6,15)          137.1192         estimate D2E/DX2                !
 ! D23   D(91,2,6,10)          103.9163         estimate D2E/DX2                !
 ! D24   D(91,2,6,15)          -97.8989         estimate D2E/DX2                !
 ! D25   D(6,2,43,13)           -9.257          estimate D2E/DX2                !
 ! D26   D(6,2,43,39)          152.1589         estimate D2E/DX2                !
 ! D27   D(44,2,43,13)        -126.3822         estimate D2E/DX2                !
 ! D28   D(44,2,43,39)          35.0337         estimate D2E/DX2                !
 ! D29   D(91,2,43,13)         111.2922         estimate D2E/DX2                !
 ! D30   D(91,2,43,39)         -87.2919         estimate D2E/DX2                !
 ! D31   D(6,2,44,40)         -148.1861         estimate D2E/DX2                !
 ! D32   D(6,2,44,47)           18.3103         estimate D2E/DX2                !
 ! D33   D(43,2,44,40)         -38.3415         estimate D2E/DX2                !
 ! D34   D(43,2,44,47)         128.1549         estimate D2E/DX2                !
 ! D35   D(91,2,44,40)          85.6159         estimate D2E/DX2                !
 ! D36   D(91,2,44,47)        -107.8877         estimate D2E/DX2                !
 ! D37   D(18,3,7,12)           28.9159         estimate D2E/DX2                !
 ! D38   D(18,3,7,30)          145.6133         estimate D2E/DX2                !
 ! D39   D(18,3,7,96)          -93.992          estimate D2E/DX2                !
 ! D40   D(26,3,7,12)         -129.51           estimate D2E/DX2                !
 ! D41   D(26,3,7,30)          -12.8125         estimate D2E/DX2                !
 ! D42   D(26,3,7,96)          107.5821         estimate D2E/DX2                !
 ! D43   D(7,3,18,16)            5.5655         estimate D2E/DX2                !
 ! D44   D(7,3,18,20)         -156.742          estimate D2E/DX2                !
 ! D45   D(26,3,18,16)         161.7098         estimate D2E/DX2                !
 ! D46   D(26,3,18,20)          -0.5976         estimate D2E/DX2                !
 ! D47   D(7,3,26,24)          159.5365         estimate D2E/DX2                !
 ! D48   D(7,3,26,28)            4.506          estimate D2E/DX2                !
 ! D49   D(18,3,26,24)           0.2448         estimate D2E/DX2                !
 ! D50   D(18,3,26,28)        -154.7857         estimate D2E/DX2                !
 ! D51   D(45,4,8,11)           22.4601         estimate D2E/DX2                !
 ! D52   D(45,4,8,16)         -137.0423         estimate D2E/DX2                !
 ! D53   D(46,4,8,11)          137.1241         estimate D2E/DX2                !
 ! D54   D(46,4,8,16)          -22.3784         estimate D2E/DX2                !
 ! D55   D(88,4,8,11)         -102.8435         estimate D2E/DX2                !
 ! D56   D(88,4,8,16)           97.6541         estimate D2E/DX2                !
 ! D57   D(8,4,45,41)          145.3296         estimate D2E/DX2                !
 ! D58   D(8,4,45,48)          -20.8536         estimate D2E/DX2                !
 ! D59   D(46,4,45,41)          35.5121         estimate D2E/DX2                !
 ! D60   D(46,4,45,48)        -130.6711         estimate D2E/DX2                !
 ! D61   D(88,4,45,41)         -88.2017         estimate D2E/DX2                !
 ! D62   D(88,4,45,48)         105.6151         estimate D2E/DX2                !
 ! D63   D(8,4,46,14)           12.6741         estimate D2E/DX2                !
 ! D64   D(8,4,46,42)         -149.5351         estimate D2E/DX2                !
 ! D65   D(45,4,46,14)         129.9632         estimate D2E/DX2                !
 ! D66   D(45,4,46,42)         -32.246          estimate D2E/DX2                !
 ! D67   D(88,4,46,14)        -107.4941         estimate D2E/DX2                !
 ! D68   D(88,4,46,42)          90.2967         estimate D2E/DX2                !
 ! D69   D(1,5,9,13)            -8.1433         estimate D2E/DX2                !
 ! D70   D(1,5,9,35)          -168.7408         estimate D2E/DX2                !
 ! D71   D(29,5,9,13)          157.5314         estimate D2E/DX2                !
 ! D72   D(29,5,9,35)           -3.0661         estimate D2E/DX2                !
 ! D73   D(1,5,29,27)           11.1405         estimate D2E/DX2                !
 ! D74   D(1,5,29,31)          174.1661         estimate D2E/DX2                !
 ! D75   D(9,5,29,27)         -154.6086         estimate D2E/DX2                !
 ! D76   D(9,5,29,31)            8.417          estimate D2E/DX2                !
 ! D77   D(2,6,10,49)           -0.9643         estimate D2E/DX2                !
 ! D78   D(2,6,10,53)          155.4247         estimate D2E/DX2                !
 ! D79   D(15,6,10,49)        -156.0875         estimate D2E/DX2                !
 ! D80   D(15,6,10,53)           0.3015         estimate D2E/DX2                !
 ! D81   D(2,6,15,13)          -27.1308         estimate D2E/DX2                !
 ! D82   D(2,6,15,17)         -142.0704         estimate D2E/DX2                !
 ! D83   D(2,6,15,104)          90.4552         estimate D2E/DX2                !
 ! D84   D(10,6,15,13)         130.5344         estimate D2E/DX2                !
 ! D85   D(10,6,15,17)          15.5948         estimate D2E/DX2                !
 ! D86   D(10,6,15,104)       -111.8796         estimate D2E/DX2                !
 ! D87   D(3,7,12,14)          -32.5126         estimate D2E/DX2                !
 ! D88   D(3,7,12,36)          134.4391         estimate D2E/DX2                !
 ! D89   D(30,7,12,14)        -143.2659         estimate D2E/DX2                !
 ! D90   D(30,7,12,36)          23.6858         estimate D2E/DX2                !
 ! D91   D(96,7,12,14)          91.6073         estimate D2E/DX2                !
 ! D92   D(96,7,12,36)        -101.441          estimate D2E/DX2                !
 ! D93   D(3,7,30,28)           17.2308         estimate D2E/DX2                !
 ! D94   D(3,7,30,32)         -142.3187         estimate D2E/DX2                !
 ! D95   D(12,7,30,28)         133.2196         estimate D2E/DX2                !
 ! D96   D(12,7,30,32)         -26.33           estimate D2E/DX2                !
 ! D97   D(96,7,30,28)        -102.9797         estimate D2E/DX2                !
 ! D98   D(96,7,30,32)          97.4707         estimate D2E/DX2                !
 ! D99   D(4,8,11,50)            2.299          estimate D2E/DX2                !
 ! D100  D(4,8,11,54)         -156.2141         estimate D2E/DX2                !
 ! D101  D(16,8,11,50)         159.2248         estimate D2E/DX2                !
 ! D102  D(16,8,11,54)           0.7116         estimate D2E/DX2                !
 ! D103  D(4,8,16,14)           22.9841         estimate D2E/DX2                !
 ! D104  D(4,8,16,18)          138.5            estimate D2E/DX2                !
 ! D105  D(4,8,16,98)          -96.0475         estimate D2E/DX2                !
 ! D106  D(11,8,16,14)        -136.0599         estimate D2E/DX2                !
 ! D107  D(11,8,16,18)         -20.544          estimate D2E/DX2                !
 ! D108  D(11,8,16,98)         104.9085         estimate D2E/DX2                !
 ! D109  D(5,9,13,15)            9.8448         estimate D2E/DX2                !
 ! D110  D(5,9,13,43)         -147.3191         estimate D2E/DX2                !
 ! D111  D(35,9,13,15)         171.0536         estimate D2E/DX2                !
 ! D112  D(35,9,13,43)          13.8897         estimate D2E/DX2                !
 ! D113  D(5,9,35,33)           -6.1787         estimate D2E/DX2                !
 ! D114  D(5,9,35,37)          152.3739         estimate D2E/DX2                !
 ! D115  D(13,9,35,33)        -167.5454         estimate D2E/DX2                !
 ! D116  D(13,9,35,37)          -8.9928         estimate D2E/DX2                !
 ! D117  D(6,10,49,47)          25.5785         estimate D2E/DX2                !
 ! D118  D(6,10,49,51)         140.5683         estimate D2E/DX2                !
 ! D119  D(6,10,49,90)         -97.8687         estimate D2E/DX2                !
 ! D120  D(53,10,49,47)       -133.3131         estimate D2E/DX2                !
 ! D121  D(53,10,49,51)        -18.3233         estimate D2E/DX2                !
 ! D122  D(53,10,49,90)        103.2397         estimate D2E/DX2                !
 ! D123  D(6,10,53,19)         -19.2096         estimate D2E/DX2                !
 ! D124  D(6,10,53,55)        -134.8274         estimate D2E/DX2                !
 ! D125  D(6,10,53,103)        105.963          estimate D2E/DX2                !
 ! D126  D(49,10,53,19)        140.0036         estimate D2E/DX2                !
 ! D127  D(49,10,53,55)         24.3858         estimate D2E/DX2                !
 ! D128  D(49,10,53,103)       -94.8238         estimate D2E/DX2                !
 ! D129  D(8,11,50,48)         -28.5506         estimate D2E/DX2                !
 ! D130  D(8,11,50,52)        -143.5942         estimate D2E/DX2                !
 ! D131  D(8,11,50,89)          95.1145         estimate D2E/DX2                !
 ! D132  D(54,11,50,48)        132.0744         estimate D2E/DX2                !
 ! D133  D(54,11,50,52)         17.0309         estimate D2E/DX2                !
 ! D134  D(54,11,50,89)       -104.2605         estimate D2E/DX2                !
 ! D135  D(8,11,54,20)          20.6087         estimate D2E/DX2                !
 ! D136  D(8,11,54,56)         139.6548         estimate D2E/DX2                !
 ! D137  D(8,11,54,102)       -102.3214         estimate D2E/DX2                !
 ! D138  D(50,11,54,20)       -140.1194         estimate D2E/DX2                !
 ! D139  D(50,11,54,56)        -21.0732         estimate D2E/DX2                !
 ! D140  D(50,11,54,102)        96.9505         estimate D2E/DX2                !
 ! D141  D(7,12,14,16)           4.1007         estimate D2E/DX2                !
 ! D142  D(7,12,14,46)         165.091          estimate D2E/DX2                !
 ! D143  D(36,12,14,16)       -163.3416         estimate D2E/DX2                !
 ! D144  D(36,12,14,46)         -2.3513         estimate D2E/DX2                !
 ! D145  D(7,12,36,34)           5.7915         estimate D2E/DX2                !
 ! D146  D(7,12,36,38)        -165.0386         estimate D2E/DX2                !
 ! D147  D(14,12,36,34)        172.4864         estimate D2E/DX2                !
 ! D148  D(14,12,36,38)          1.6564         estimate D2E/DX2                !
 ! D149  D(9,13,15,6)         -138.2705         estimate D2E/DX2                !
 ! D150  D(9,13,15,17)         -21.2046         estimate D2E/DX2                !
 ! D151  D(9,13,15,104)        103.2473         estimate D2E/DX2                !
 ! D152  D(43,13,15,6)          20.8582         estimate D2E/DX2                !
 ! D153  D(43,13,15,17)        137.924          estimate D2E/DX2                !
 ! D154  D(43,13,15,104)       -97.624          estimate D2E/DX2                !
 ! D155  D(9,13,43,2)          152.5173         estimate D2E/DX2                !
 ! D156  D(9,13,43,39)          -9.2178         estimate D2E/DX2                !
 ! D157  D(15,13,43,2)          -7.6895         estimate D2E/DX2                !
 ! D158  D(15,13,43,39)       -169.4246         estimate D2E/DX2                !
 ! D159  D(12,14,16,8)         148.1834         estimate D2E/DX2                !
 ! D160  D(12,14,16,18)         30.1561         estimate D2E/DX2                !
 ! D161  D(12,14,16,98)        -92.6712         estimate D2E/DX2                !
 ! D162  D(46,14,16,8)         -14.3665         estimate D2E/DX2                !
 ! D163  D(46,14,16,18)       -132.3939         estimate D2E/DX2                !
 ! D164  D(46,14,16,98)        104.7788         estimate D2E/DX2                !
 ! D165  D(12,14,46,4)        -162.3329         estimate D2E/DX2                !
 ! D166  D(12,14,46,42)          0.7961         estimate D2E/DX2                !
 ! D167  D(16,14,46,4)           1.14           estimate D2E/DX2                !
 ! D168  D(16,14,46,42)        164.2689         estimate D2E/DX2                !
 ! D169  D(6,15,17,1)          143.8116         estimate D2E/DX2                !
 ! D170  D(6,15,17,19)         -11.3394         estimate D2E/DX2                !
 ! D171  D(13,15,17,1)          34.1535         estimate D2E/DX2                !
 ! D172  D(13,15,17,19)       -120.9975         estimate D2E/DX2                !
 ! D173  D(104,15,17,1)        -89.1232         estimate D2E/DX2                !
 ! D174  D(104,15,17,19)       115.7257         estimate D2E/DX2                !
 ! D175  D(8,16,18,3)         -143.8431         estimate D2E/DX2                !
 ! D176  D(8,16,18,20)          18.2123         estimate D2E/DX2                !
 ! D177  D(14,16,18,3)         -33.5734         estimate D2E/DX2                !
 ! D178  D(14,16,18,20)        128.482          estimate D2E/DX2                !
 ! D179  D(98,16,18,3)          89.9689         estimate D2E/DX2                !
 ! D180  D(98,16,18,20)       -107.9757         estimate D2E/DX2                !
 ! D181  D(1,17,19,21)          -6.1309         estimate D2E/DX2                !
 ! D182  D(1,17,19,53)        -166.6748         estimate D2E/DX2                !
 ! D183  D(15,17,19,21)        151.7484         estimate D2E/DX2                !
 ! D184  D(15,17,19,53)         -8.7955         estimate D2E/DX2                !
 ! D185  D(3,18,20,22)           2.1532         estimate D2E/DX2                !
 ! D186  D(3,18,20,54)         164.6646         estimate D2E/DX2                !
 ! D187  D(16,18,20,22)       -159.5373         estimate D2E/DX2                !
 ! D188  D(16,18,20,54)          2.974          estimate D2E/DX2                !
 ! D189  D(17,19,21,23)          3.9889         estimate D2E/DX2                !
 ! D190  D(17,19,21,57)       -142.6388         estimate D2E/DX2                !
 ! D191  D(53,19,21,23)        165.0511         estimate D2E/DX2                !
 ! D192  D(53,19,21,57)         18.4234         estimate D2E/DX2                !
 ! D193  D(17,19,53,10)         23.7257         estimate D2E/DX2                !
 ! D194  D(17,19,53,55)        134.3092         estimate D2E/DX2                !
 ! D195  D(17,19,53,103)      -102.0953         estimate D2E/DX2                !
 ! D196  D(21,19,53,10)       -134.8002         estimate D2E/DX2                !
 ! D197  D(21,19,53,55)        -24.2166         estimate D2E/DX2                !
 ! D198  D(21,19,53,103)        99.3789         estimate D2E/DX2                !
 ! D199  D(18,20,22,24)         -3.4556         estimate D2E/DX2                !
 ! D200  D(18,20,22,58)        142.5169         estimate D2E/DX2                !
 ! D201  D(54,20,22,24)       -166.8491         estimate D2E/DX2                !
 ! D202  D(54,20,22,58)        -20.8766         estimate D2E/DX2                !
 ! D203  D(18,20,54,11)        -22.2409         estimate D2E/DX2                !
 ! D204  D(18,20,54,56)       -134.4419         estimate D2E/DX2                !
 ! D205  D(18,20,54,102)       102.0971         estimate D2E/DX2                !
 ! D206  D(22,20,54,11)        140.4897         estimate D2E/DX2                !
 ! D207  D(22,20,54,56)         28.2886         estimate D2E/DX2                !
 ! D208  D(22,20,54,102)       -95.1724         estimate D2E/DX2                !
 ! D209  D(19,21,23,1)          -0.3178         estimate D2E/DX2                !
 ! D210  D(19,21,23,25)       -157.0624         estimate D2E/DX2                !
 ! D211  D(57,21,23,1)         146.9118         estimate D2E/DX2                !
 ! D212  D(57,21,23,25)         -9.8328         estimate D2E/DX2                !
 ! D213  D(19,21,57,59)        151.5868         estimate D2E/DX2                !
 ! D214  D(19,21,57,83)         -3.9013         estimate D2E/DX2                !
 ! D215  D(23,21,57,59)          9.5753         estimate D2E/DX2                !
 ! D216  D(23,21,57,83)       -145.9128         estimate D2E/DX2                !
 ! D217  D(20,22,24,26)          3.1341         estimate D2E/DX2                !
 ! D218  D(20,22,24,62)        154.9516         estimate D2E/DX2                !
 ! D219  D(58,22,24,26)       -147.3286         estimate D2E/DX2                !
 ! D220  D(58,22,24,62)          4.4889         estimate D2E/DX2                !
 ! D221  D(20,22,58,60)       -146.7968         estimate D2E/DX2                !
 ! D222  D(20,22,58,84)          0.9667         estimate D2E/DX2                !
 ! D223  D(24,22,58,60)          3.1983         estimate D2E/DX2                !
 ! D224  D(24,22,58,84)        150.9619         estimate D2E/DX2                !
 ! D225  D(1,23,25,27)          -5.935          estimate D2E/DX2                !
 ! D226  D(1,23,25,61)        -157.238          estimate D2E/DX2                !
 ! D227  D(21,23,25,27)        147.5328         estimate D2E/DX2                !
 ! D228  D(21,23,25,61)         -3.7702         estimate D2E/DX2                !
 ! D229  D(22,24,26,3)          -1.4653         estimate D2E/DX2                !
 ! D230  D(22,24,26,28)        151.0423         estimate D2E/DX2                !
 ! D231  D(62,24,26,3)        -149.8778         estimate D2E/DX2                !
 ! D232  D(62,24,26,28)          2.6297         estimate D2E/DX2                !
 ! D233  D(22,24,62,60)         -9.5316         estimate D2E/DX2                !
 ! D234  D(22,24,62,64)       -125.4474         estimate D2E/DX2                !
 ! D235  D(22,24,62,97)        111.1075         estimate D2E/DX2                !
 ! D236  D(26,24,62,60)        141.1748         estimate D2E/DX2                !
 ! D237  D(26,24,62,64)         25.259          estimate D2E/DX2                !
 ! D238  D(26,24,62,97)        -98.1861         estimate D2E/DX2                !
 ! D239  D(23,25,27,29)        -19.4037         estimate D2E/DX2                !
 ! D240  D(23,25,27,65)       -133.1217         estimate D2E/DX2                !
[...]
 Alpha virt. eigenvalues --    1.64971   1.65198   1.65278   1.65484   1.65840
 Alpha virt. eigenvalues --    1.65929   1.66307   1.66334   1.66583   1.66929
 Alpha virt. eigenvalues --    1.67156   1.67656   1.67863   1.67930   1.68151
 Alpha virt. eigenvalues --    1.68271   1.68533   1.68872   1.68964   1.69393
 Alpha virt. eigenvalues --    1.69586   1.69963   1.70350   1.70526   1.70572
 Alpha virt. eigenvalues --    1.70982   1.71193   1.71306   1.71477   1.71860
 Alpha virt. eigenvalues --    1.71978   1.72261   1.72488   1.72592   1.72937
 Alpha virt. eigenvalues --    1.73045   1.73297   1.73401   1.73912   1.74010
 Alpha virt. eigenvalues --    1.74241   1.74464   1.74683   1.74845   1.74981
 Alpha virt. eigenvalues --    1.75290   1.75373   1.75539   1.75765   1.75835
 Alpha virt. eigenvalues --    1.75956   1.76345   1.76532   1.76775   1.76919
 Alpha virt. eigenvalues --    1.76999   1.77125   1.77648   1.77795   1.78000
 Alpha virt. eigenvalues --    1.78341   1.78537   1.78854   1.79160   1.79505
 Alpha virt. eigenvalues --    1.79553   1.79815   1.79987   1.80246   1.80564
 Alpha virt. eigenvalues --    1.80838   1.81158   1.81342   1.81656   1.81769
 Alpha virt. eigenvalues --    1.81926   1.82087   1.82175   1.82604   1.82724
 Alpha virt. eigenvalues --    1.82957   1.83088   1.83579   1.83759   1.84045
 Alpha virt. eigenvalues --    1.84355   1.84386   1.84666   1.85175   1.85365
 Alpha virt. eigenvalues --    1.85529   1.85975   1.86650   1.86893   1.87394
 Alpha virt. eigenvalues --    1.87567   1.87753   1.87980   1.88404   1.88586
 Alpha virt. eigenvalues --    1.88608   1.89081   1.89349   1.89854   1.90050
 Alpha virt. eigenvalues --    1.90420   1.90641   1.91037   1.91222   1.91332
 Alpha virt. eigenvalues --    1.91697   1.92415   1.92595   1.92657   1.93285
 Alpha virt. eigenvalues --    1.93558   1.93822   1.94121   1.94940   1.95408
 Alpha virt. eigenvalues --    1.95475   1.95594   1.95789   1.96269   1.96746
 Alpha virt. eigenvalues --    1.97318   1.97545   1.97680   1.98051   1.98592
 Alpha virt. eigenvalues --    1.98858   1.99267   1.99541   1.99987   2.00224
 Alpha virt. eigenvalues --    2.00496   2.00930   2.01323   2.02054   2.02182
 Alpha virt. eigenvalues --    2.02418   2.02727   2.03128   2.03318   2.03905
 Alpha virt. eigenvalues --    2.04184   2.04765   2.04815   2.05218   2.05493
 Alpha virt. eigenvalues --    2.05997   2.06384   2.06868   2.06994   2.07570
 Alpha virt. eigenvalues --    2.08053   2.08465   2.08632   2.08683   2.09324
 Alpha virt. eigenvalues --    2.09920   2.10258   2.10362   2.10901   2.11613
 Alpha virt. eigenvalues --    2.11684   2.12166   2.12786   2.13112   2.13477
 Alpha virt. eigenvalues --    2.13988   2.14088   2.14392   2.14596   2.14907
 Alpha virt. eigenvalues --    2.15623   2.15877   2.16409   2.16794   2.17055
 Alpha virt. eigenvalues --    2.17374   2.17462   2.17931   2.18240   2.18866
 Alpha virt. eigenvalues --    2.18997   2.19258   2.19440   2.20238   2.20308
 Alpha virt. eigenvalues --    2.21134   2.21443   2.21656   2.21769   2.21936
 Alpha virt. eigenvalues --    2.22260   2.22587   2.23179   2.23472   2.24114
 Alpha virt. eigenvalues --    2.24788   2.24860   2.25308   2.25861   2.26263
 Alpha virt. eigenvalues --    2.26719   2.27071   2.27456   2.27616   2.28304
 Alpha virt. eigenvalues --    2.28535   2.29163   2.29554   2.29939   2.30415
 Alpha virt. eigenvalues --    2.30866   2.31129   2.31656   2.32458   2.32813
 Alpha virt. eigenvalues --    2.33005   2.33739   2.34305   2.34808   2.34985
 Alpha virt. eigenvalues --    2.35268   2.36145   2.36851   2.37308   2.37626
 Alpha virt. eigenvalues --    2.38153   2.38707   2.38922   2.39735   2.39771
 Alpha virt. eigenvalues --    2.40260   2.40879   2.41266   2.41471   2.42364
 Alpha virt. eigenvalues --    2.43065   2.43618   2.43855   2.44497   2.44731
 Alpha virt. eigenvalues --    2.44987   2.45429   2.46080   2.46613   2.46648
 Alpha virt. eigenvalues --    2.46933   2.47494   2.48133   2.48788   2.48974
 Alpha virt. eigenvalues --    2.49806   2.49894   2.50340   2.50669   2.50918
 Alpha virt. eigenvalues --    2.51450   2.52053   2.52463   2.52725   2.52875
 Alpha virt. eigenvalues --    2.53470   2.53853   2.54137   2.54753   2.55054
 Alpha virt. eigenvalues --    2.55387   2.55623   2.55730   2.56264   2.56733
 Alpha virt. eigenvalues --    2.56999   2.57366   2.57513   2.58239   2.58466
 Alpha virt. eigenvalues --    2.58782   2.59246   2.59884   2.60008   2.60251
 Alpha virt. eigenvalues --    2.60478   2.60921   2.61233   2.61299   2.61799
 Alpha virt. eigenvalues --    2.61977   2.62671   2.63066   2.63431   2.63850
 Alpha virt. eigenvalues --    2.64196   2.64540   2.64759   2.65207   2.65570
 Alpha virt. eigenvalues --    2.65648   2.65914   2.66036   2.66513   2.67092
 Alpha virt. eigenvalues --    2.67216   2.67500   2.68123   2.68345   2.68560
 Alpha virt. eigenvalues --    2.68929   2.69317   2.69610   2.70223   2.70550
 Alpha virt. eigenvalues --    2.71305   2.71588   2.71796   2.71818   2.72427
 Alpha virt. eigenvalues --    2.73118   2.73428   2.73830   2.74045   2.74313
 Alpha virt. eigenvalues --    2.74400   2.74901   2.75082   2.75908   2.76502
 Alpha virt. eigenvalues --    2.76637   2.76807   2.77507   2.78007   2.78326
 Alpha virt. eigenvalues --    2.78895   2.79417   2.79574   2.80414   2.81000
 Alpha virt. eigenvalues --    2.81229   2.81443   2.82177   2.82477   2.82883
 Alpha virt. eigenvalues --    2.83281   2.83785   2.84270   2.84654   2.84805
 Alpha virt. eigenvalues --    2.85549   2.85919   2.86428   2.87027   2.87512
 Alpha virt. eigenvalues --    2.87998   2.88476   2.89119   2.89486   2.89727
 Alpha virt. eigenvalues --    2.90695   2.91532   2.92170   2.92666   2.92741
 Alpha virt. eigenvalues --    2.93530   2.94865   2.95230   2.96607   2.97862
 Alpha virt. eigenvalues --    2.98663   2.99186   3.00722   3.01240   3.03154
 Alpha virt. eigenvalues --    3.03521   3.06106   3.06228   3.07707   3.08376
 Alpha virt. eigenvalues --    3.08884   3.10053   3.12239   3.13341   3.13782
 Alpha virt. eigenvalues --    3.14405   3.14920   3.16915   3.17508   3.18272
 Alpha virt. eigenvalues --    3.19182   3.20766   3.21441   3.23404   3.23555
 Alpha virt. eigenvalues --    3.26629   3.27424   3.28392   3.31176   3.33737
 Alpha virt. eigenvalues --    3.36614   3.38974   3.40487   3.40774   3.42078
 Alpha virt. eigenvalues --    3.43931   3.46254   3.47783   3.50685   4.00512
 Alpha virt. eigenvalues --    4.01006   4.02263   4.03096   4.04652   4.04867
 Alpha virt. eigenvalues --    4.05300   4.06759   4.07171   4.07666   4.08694
 Alpha virt. eigenvalues --    4.09195   4.09932   4.10495   4.11573   4.11887
 Alpha virt. eigenvalues --    4.12263   4.13834   4.14043   4.14371   4.14985
 Alpha virt. eigenvalues --    4.15552   4.17131   4.17978   4.18216   4.19073
 Alpha virt. eigenvalues --    4.19775   4.20391   4.20795   4.21295   4.21702
 Alpha virt. eigenvalues --    4.22639   4.22684   4.23944   4.24222   4.24998
 Alpha virt. eigenvalues --    4.25351   4.25899   4.26385   4.27004   4.27259
 Alpha virt. eigenvalues --    4.27450   4.27958   4.28330   4.28694   4.29041
 Alpha virt. eigenvalues --    4.29183   4.29299   4.30003   4.30667   4.31604
 Alpha virt. eigenvalues --    4.32227   4.34078   4.34945   4.35658   4.36682
 Alpha virt. eigenvalues --    4.37193   4.37829   4.38561   4.38987   4.39893
 Alpha virt. eigenvalues --    4.40333   4.41177   4.41460   4.41925   4.42752
 Alpha virt. eigenvalues --    4.43094   4.44102   4.44954   4.45985   4.48200
 Alpha virt. eigenvalues --    4.49040   4.49589   4.49917   4.51987   4.52841
 Alpha virt. eigenvalues --    4.53256   4.54435   4.55478   4.57769   4.59008
 Alpha virt. eigenvalues --    4.61554   4.62068   4.63649   4.65085   4.66327
 Alpha virt. eigenvalues --    4.67563   4.69939   4.73797   4.76227   4.78957
 Alpha virt. eigenvalues --    4.80189   4.80788   4.82941   4.85204   4.88138
 Alpha virt. eigenvalues --    4.89976   4.93921   4.95611   4.98539   5.00709
 Alpha virt. eigenvalues --    5.07064   5.11063   5.18220
          Condensed to atoms (all electrons):
 Mulliken charges:
               1
     1  C   -0.367968
     2  C   -0.374906
     3  C    0.109612
     4  C   -0.380957
     5  C    0.070679
     6  C    0.176444
     7  C   -0.380725
     8  C    0.180908
     9  C    0.082229
    10  C    0.171709
    11  C    0.181448
    12  C    0.146252
    13  C    0.059315
    14  C    0.116830
    15  C   -0.332588
    16  C   -0.384627
    17  C    0.173678
    18  C    0.150497
    19  C    0.143163
    20  C    0.116619
    21  C    0.013255
    22  C    0.048708
    23  C    0.115708
    24  C    0.084665
    25  C    0.162234
    26  C    0.130178
    27  C   -0.371006
    28  C   -0.377849
    29  C    0.160535
    30  C    0.186928
    31  C    0.082836
    32  C    0.177831
    33  C    0.007353
    34  C   -0.373059
    35  C    0.035830
    36  C    0.121877
    37  C    0.069576
    38  C    0.123287
    39  C    0.117192
    40  C    0.122781
    41  C    0.113269
    42  C    0.145508
    43  C    0.121744
    44  C    0.137671
    45  C    0.140739
    46  C    0.116432
    47  C    0.122068
    48  C    0.127284
    49  C   -0.370827
    50  C   -0.376982
    51  C    0.132162
    52  C    0.129592
    53  C   -0.363713
    54  C   -0.363464
    55  C    0.068851
    56  C    0.084000
    57  C    0.040620
    58  C   -0.011960
    59  C    0.126328
    60  C    0.085997
    61  C   -0.362413
    62  C   -0.394874
    63  C    0.113858
    64  C    0.150717
    65  C    0.115099
    66  C    0.123933
    67  C    0.146698
    68  C    0.121150
    69  C   -0.391306
    70  C   -0.373611
    71  C    0.088105
    72  C    0.127858
    73  C    0.016488
    74  C    0.124607
    75  C    0.022669
    76  C    0.089961
    77  C   -0.018748
    78  C   -0.386723
    79  C   -0.364730
    80  C   -0.376539
    81  C    0.113106
    82  C    0.164529
    83  C    0.059774
    84  C    0.058017
    85  Cl   0.035349
    86  Cl   0.027014
    87  Cl   0.031315
    88  Cl   0.037424
    89  Cl   0.035182
    90  Cl   0.027823
    91  Cl   0.038696
    92  Cl   0.035960
    93  Cl   0.030699
    94  Cl   0.030439
    95  Cl   0.030272
    96  Cl   0.030995
    97  Cl   0.038989
    98  Cl   0.034153
    99  Cl   0.038532
   100  Cl   0.005788
   101  Cl   0.004862
   102  Cl   0.012133
   103  Cl   0.022869
   104  Cl  -0.017912
 Sum of Mulliken charges =  -0.00000
 Mulliken charges with hydrogens summed into heavy atoms:
               1
     1  C   -0.367968
     2  C   -0.374906
     3  C    0.109612
     4  C   -0.380957
     5  C    0.070679
     6  C    0.176444
     7  C   -0.380725
     8  C    0.180908
     9  C    0.082229
    10  C    0.171709
    11  C    0.181448
    12  C    0.146252
    13  C    0.059315
    14  C    0.116830
    15  C   -0.332588
    16  C   -0.384627
    17  C    0.173678
    18  C    0.150497
    19  C    0.143163
    20  C    0.116619
    21  C    0.013255
    22  C    0.048708
    23  C    0.115708
    24  C    0.084665
    25  C    0.162234
    26  C    0.130178
    27  C   -0.371006
    28  C   -0.377849
    29  C    0.160535
    30  C    0.186928
    31  C    0.082836
    32  C    0.177831
    33  C    0.007353
    34  C   -0.373059
    35  C    0.035830
    36  C    0.121877
    37  C    0.069576
    38  C    0.123287
    39  C    0.117192
    40  C    0.122781
    41  C    0.113269
    42  C    0.145508
    43  C    0.121744
    44  C    0.137671
    45  C    0.140739
    46  C    0.116432
    47  C    0.122068
    48  C    0.127284
    49  C   -0.370827
    50  C   -0.376982
    51  C    0.132162
    52  C    0.129592
    53  C   -0.363713
    54  C   -0.363464
    55  C    0.068851
    56  C    0.084000
    57  C    0.040620
    58  C   -0.011960
    59  C    0.126328
    60  C    0.085997
    61  C   -0.362413
    62  C   -0.394874
    63  C    0.113858
    64  C    0.150717
    65  C    0.115099
    66  C    0.123933
    67  C    0.146698
    68  C    0.121150
    69  C   -0.391306
    70  C   -0.373611
    71  C    0.088105
    72  C    0.127858
    73  C    0.016488
    74  C    0.124607
    75  C    0.022669
    76  C    0.089961
    77  C   -0.018748
    78  C   -0.386723
    79  C   -0.364730
    80  C   -0.376539
    81  C    0.113106
    82  C    0.164529
    83  C    0.059774
    84  C    0.058017
    85  Cl   0.035349
    86  Cl   0.027014
    87  Cl   0.031315
    88  Cl   0.037424
    89  Cl   0.035182
    90  Cl   0.027823
    91  Cl   0.038696
    92  Cl   0.035960
    93  Cl   0.030699
    94  Cl   0.030439
    95  Cl   0.030272
    96  Cl   0.030995
    97  Cl   0.038989
    98  Cl   0.034153
    99  Cl   0.038532
   100  Cl   0.005788
   101  Cl   0.004862
   102  Cl   0.012133
   103  Cl   0.022869
   104  Cl  -0.017912
 Electronic spatial extent (au):  <R**2>=          82362.1085
 Charge=             -0.0000 electrons
 Dipole moment (field-independent basis, Debye):
    X=              0.9352    Y=              1.6601    Z=             -0.0760  Tot=              1.9069
 Quadrupole moment (field-independent basis, Debye-Ang):
   XX=           -769.5609   YY=           -763.4290   ZZ=           -727.0871
   XY=             -0.8764   XZ=             -7.8658   YZ=             -1.7912
 Traceless Quadrupole moment (field-independent basis, Debye-Ang):
   XX=            -16.2019   YY=            -10.0700   ZZ=             26.2719
   XY=             -0.8764   XZ=             -7.8658   YZ=             -1.7912
 Octapole moment (field-independent basis, Debye-Ang**2):
  XXX=             58.0705  YYY=            -62.6493  ZZZ=            -11.5157  XYY=              3.6971
  XXY=            -27.0822  XXZ=             33.1545  XZZ=             16.2826  YZZ=             50.2123
  YYZ=             -2.9936  XYZ=            -15.7061
 Hexadecapole moment (field-independent basis, Debye-Ang**3):
 XXXX=         -44227.7651 YYYY=         -40116.1964 ZZZZ=         -30385.0367 XXXY=            263.1529
 XXXZ=             10.5121 YYYX=             26.7559 YYYZ=             -4.6617 ZZZX=            -21.3376
 ZZZY=            -77.4196 XXYY=         -13920.2061 XXZZ=         -12409.8024 YYZZ=         -11877.1282
 XXYZ=             52.6793 YYXZ=            -29.8580 ZZXY=            -55.7503
 N-N= 3.222964623663D+04 E-N=-9.371785061982D+04  KE= 1.234697876474D+04
 Leave Link  601 at Wed Jun 29 09:27:59 2022, MaxMem=  1342177280 cpu:              19.8 elap:               1.1
 (Enter /home/mkliu/g16/l9999.exe)
 1\1\GINC-NODE02\FOpt\RB3LYP\6-31G(d,p)\C84Cl20\MKLIU\29-Jun-2022\0\\#P
  opt b3lyp/6-31G(d, p) empiricaldispersion=GD3\\force\\0,1\C,8.4168195
 02,18.6149766223,10.8241894085\C,12.607531128,19.9706268845,8.90638508
 12\C,8.2549625933,26.8478518051,10.5122306929\C,12.4895918548,25.74471
 6921,8.92167238\C,7.9939091153,19.1237513552,9.4561820095\C,12.1215976
 671,19.4518129166,10.2366563464\C,7.877712548,27.1140847645,9.07005079
 19\C,11.9026900085,26.1993924312,10.2347986239\C,8.986585688,19.253018
 2528,8.4387480043\C,12.380845567,20.0927755851,11.3755777172\C,12.1541
 692814,25.5629547043,11.3732088645\C,8.9708829448,26.6114275709,8.1449
 914477\C,10.376354664,19.0761997406,8.7483507629\C,10.280310951,26.649
 2613995,8.6207236903\C,10.9239790532,18.5322135863,10.0326454751\C,10.
 6873024855,27.0743314885,10.0186014523\C,9.9053225717,18.7154063866,11
 .0773744208\C,9.5701499711,26.7635184832,10.9890658551\C,10.1425951315
 ,19.4482750334,12.2053524519\C,9.8264675309,26.0532008728,12.174069622
 2\C,8.9416125167,20.0186103268,12.7162759938\C,8.7551071601,25.4114148
 465,12.8169880177\C,7.856995387,19.5239190818,11.9060975601\C,7.440464
 9082,25.5241468618,12.3430110853\C,6.6892188793,20.1703536596,11.80438
 33632\C,7.1950741365,26.2281435749,11.1891063659\C,5.8893824743,20.139
 3627475,10.5310672995\C,6.0391935581,25.9046395263,10.2797451938\C,6.7
 336855932,19.7319415051,9.3258076236\C,6.6224883378,26.2840367348,8.93
 87277912\C,6.4008519175,20.3264796775,8.1082051221\C,6.3293149918,25.6
 196597261,7.8294256515\C,7.3348937354,20.3918631068,7.064769241\C,7.21
 78058788,25.654517891,6.6008388331\C,8.6750389732,19.9650173303,7.2308
 956738\C,8.6860651003,25.8556251611,6.9924388671\C,9.7194806789,20.632
 7605923,6.4680959491\C,9.7179659002,25.1221163638,6.3576473479\C,11.06
 12463889,20.5830769691,6.9436069021\C,12.7536162641,22.1725244173,7.76
 48951372\C,12.7313292164,23.5640784152,7.7632114261\C,11.0273573905,25
 .1376199275,6.8809551179\C,11.3509259069,19.8010241473,8.0561895046\C,
 12.9587866362,21.4516517602,8.94237538\C,12.8960837574,24.2822827433,8
 .9462608713\C,11.2912987375,25.9183896404,8.002655782\C,13.1714784007,
 22.1572591291,10.1390713439\C,13.1298872655,23.5804203243,10.141069976
 7\C,13.186883753,21.3760718606,11.4537119724\C,13.0725327864,24.356328
 9608,11.4561489772\C,12.4015167895,22.1433406955,12.4872840322\C,12.35
 19007224,23.5321527888,12.4845586845\C,11.4805445527,19.96743871,12.58
 62081806\C,11.2215760854,25.6267705871,12.5622657003\C,11.3601351118,2
 1.4029963639,13.0268816927\C,11.2651535062,24.1847494528,13.0302213927
 \C,8.8919174671,21.2985049179,13.3199384478\C,8.8895596746,24.11526529
 32,13.4669906481\C,7.66227281,22.0234642671,13.2356858454\C,7.68295850
 78,23.4118228679,13.3443029772\C,6.4187192662,21.4018051616,12.6235570
 085\C,6.6070648794,24.3399658027,12.764591823\C,5.83695523,22.31698940
 45,11.5613274773\C,5.9520294512,23.7053375516,11.5530981727\C,5.532815
 9407,21.6179579302,10.3983082949\C,5.7169931563,24.408177923,10.352152
 5358\C,5.3329525396,22.2894531482,9.1941913014\C,5.403807991,23.700211
 9078,9.1691036901\C,5.3587636098,21.4430863319,7.9363913039\C,5.372486
 4871,24.4454147037,7.8297248591\C,5.9316389577,22.2226154523,6.7748249
 981\C,5.9476386812,23.599500435,6.7264908965\C,6.9992557958,21.5053947
 935,6.2059596734\C,6.98681068,24.2803645268,6.0363659545\C,8.014891864
 5,22.1675540085,5.5173710116\C,7.9871400789,23.5837251407,5.4063650166
 \C,9.3588551953,21.7045199354,5.6075257897\C,9.3935408543,24.116369524
 2,5.2564803731\C,12.0822418779,21.6166758843,6.5261122556\C,12.0833451
 994,24.1107674071,6.4995159627\C,10.2240000148,22.8497712089,5.4469105
 494\C,11.4672446302,22.8598659449,5.9474545857\C,10.1561100085,22.0195
 256304,13.4539497357\C,10.1395390864,23.4526170329,13.4983154357\Cl,4.
 5366080791,26.8842252453,10.693275381\Cl,3.6385481511,24.968938926,7.4
 620336395\Cl,13.3218753322,24.8544862873,5.351630597\Cl,13.9120860397,
 26.801788011,8.4216281751\Cl,14.7689055706,24.8365554516,11.9847900061
 \Cl,14.9282632592,21.0583513387,11.9722341982\Cl,14.0323431902,18.9848
 735038,8.2899356484\Cl,3.6837798627,20.8025611285,7.5388969368\Cl,4.39
 39942101,19.072725363,10.6754063636\Cl,9.6731371398,24.8792980496,3.60
 78758512\Cl,6.7074075583,26.979726987,5.4235004732\Cl,7.5430570615,28.
 9043363673,8.7664917642\Cl,5.3477565705,24.7996537207,14.0192144654\Cl
 ,11.1240279835,28.8635375697,10.0929961116\Cl,7.8322634319,16.87782533
 ,11.0220766958\Cl,5.1719601313,21.053386778,13.9698831423\Cl,13.306315
 2417,20.8898973024,5.3156669838\Cl,11.8638556873,26.7614520897,13.8860
 758552\Cl,12.2033009428,18.921182975,13.9285980473\Cl,11.4589161594,16
 .734117866,9.8676356656\\Version=ES64L-G16RevA.03\State=1-A\HF=-12404.
 9832472\RMSD=7.436e-09\RMSF=4.591e-05\Dipole=-0.7082582,-0.2246698,0.1
 03743\Quadrupole=-10.050225,-6.7680036,16.8182286,4.5315351,5.5344243,
 7.8572516\PG=C01 [X(C84Cl20)]\\@


 The theorems and results in mathematical physics are
 not theorems and results about Nature, but about our
 description of it.
                   --Gerard 't Hooft
 Job cpu time:       2 days  0 hours  3 minutes 47.0 seconds.
 Elapsed time:       0 days  2 hours  0 minutes 20.7 seconds.
 File lengths (MBytes):  RWF=   1649 Int=      0 D2E=      0 Chk=    205 Scr=      1
 Normal termination of Gaussian 16 at Wed Jun 29 09:28:02 2022.
