 Entering Gaussian System, Link 0=g16
 Input=20_addons_C84_11_Cl22_rank_9.gjf
 Output=20_addons_C84_11_Cl22_rank_9.log
 Initial command:
 /home/mkliu/g16/l1.exe "/data/scratch/Gau-176910.inp" -scrdir="/data/scratch/"
 Entering Link 1 = /home/mkliu/g16/l1.exe PID=    176911.
  
 Copyright (c) 1988,1990,1992,1993,1995,1998,2003,2009,2016,
            Gaussian, Inc.  All Rights Reserved.
  
 This is part of the Gaussian(R) 16 program.  It is based on
 the Gaussian(R) 09 system (copyright 2009, Gaussian, Inc.),
 the Gaussian(R) 03 system (copyright 2003, Gaussian, Inc.),
 the Gaussian(R) 98 system (copyright 1998, Gaussian, Inc.),
 the Gaussian(R) 94 system (copyright 1995, Gaussian, Inc.),
 the Gaussian 92(TM) system (copyright 1992, Gaussian, Inc.),
 the Gaussian 90(TM) system (copyright 1990, Gaussian, Inc.),
 the Gaussian 88(TM) system (copyright 1988, Gaussian, Inc.),
 the Gaussian 86(TM) system (copyright 1986, Carnegie Mellon
 University), and the Gaussian 82(TM) system (copyright 1983,
 Carnegie Mellon University). Gaussian is a federally registered
 trademark of Gaussian, Inc.
  
 This software contains proprietary and confidential information,
 including trade secrets, belonging to Gaussian, Inc.
  
 This software is provided under written license and may be
 used, copied, transmitted, or stored only in accord with that
 written license.
  
 The following legend is applicable only to US Government
 contracts under FAR:
  
                    RESTRICTED RIGHTS LEGEND
  
 Use, reproduction and disclosure by the US Government is
 subject to restrictions as set forth in subparagraphs (a)
 and (c) of the Commercial Computer Software - Restricted
 Rights clause in FAR 52.227-19.
  
 Gaussian, Inc.
 340 Quinnipiac St., Bldg. 40, Wallingford CT 06492
  
  
 ---------------------------------------------------------------
 Warning -- This program may not be used in any manner that
 competes with the business of Gaussian, Inc. or will provide
 assistance to any competitor of Gaussian, Inc.  The licensee
 of this program is prohibited from giving any competitor of
 Gaussian, Inc. access to this program.  By using this program,
 the user acknowledges that Gaussian, Inc. is engaged in the
 business of creating and licensing software in the field of
 computational chemistry and represents and warrants to the
 licensee that it is not a competitor of Gaussian, Inc. and that
 it will not use this program in any manner prohibited above.
 ---------------------------------------------------------------
  

 Cite this work as:
 Gaussian 16, Revision A.03,
 M. J. Frisch, G. W. Trucks, H. B. Schlegel, G. E. Scuseria, 
 M. A. Robb, J. R. Cheeseman, G. Scalmani, V. Barone, 
 G. A. Petersson, H. Nakatsuji, X. Li, M. Caricato, A. V. Marenich, 
 J. Bloino, B. G. Janesko, R. Gomperts, B. Mennucci, H. P. Hratchian, 
 J. V. Ortiz, A. F. Izmaylov, J. L. Sonnenberg, D. Williams-Young, 
 F. Ding, F. Lipparini, F. Egidi, J. Goings, B. Peng, A. Petrone, 
 T. Henderson, D. Ranasinghe, V. G. Zakrzewski, J. Gao, N. Rega, 
 G. Zheng, W. Liang, M. Hada, M. Ehara, K. Toyota, R. Fukuda, 
 J. Hasegawa, M. Ishida, T. Nakajima, Y. Honda, O. Kitao, H. Nakai, 
 T. Vreven, K. Throssell, J. A. Montgomery, Jr., J. E. Peralta, 
 F. Ogliaro, M. J. Bearpark, J. J. Heyd, E. N. Brothers, K. N. Kudin, 
 V. N. Staroverov, T. A. Keith, R. Kobayashi, J. Normand, 
 K. Raghavachari, A. P. Rendell, J. C. Burant, S. S. Iyengar, 
 J. Tomasi, M. Cossi, J. M. Millam, M. Klene, C. Adamo, R. Cammi, 
 J. W. Ochterski, R. L. Martin, K. Morokuma, O. Farkas, 
 J. B. Foresman, and D. J. Fox, Gaussian, Inc., Wallingford CT, 2016.
 
 ******************************************
 Gaussian 16:  ES64L-G16RevA.03 25-Dec-2016
                30-Jun-2022 
 ******************************************
 %mem=10GB
 %chk=20_addons_C84_11_Cl22_rank_9.chk
 %nprocshared=24
 Will use up to   24 processors via shared memory.
 ------------------------------------------------
 #P opt b3lyp/6-31G(d, p) empiricaldispersion=GD3
 ------------------------------------------------
 1/18=20,19=15,26=3,38=1/1,3;
 2/9=110,12=2,17=6,18=5,40=1/2;
 3/5=1,6=6,7=101,11=2,25=1,30=1,71=1,74=-5,124=31/1,2,3;
 4//1;
 5/5=2,38=5/2;
 6/7=2,8=2,9=2,10=2,28=1/1;
 7//1,2,3,16;
 1/18=20,19=15,26=3/3(2);
 2/9=110/2;
 99//99;
 2/9=110/2;
 3/5=1,6=6,7=101,11=2,25=1,30=1,71=1,74=-5,124=31/1,2,3;
 4/5=5,16=3,69=1/1;
 5/5=2,38=5/2;
 7//1,2,3,16;
 1/18=20,19=15,26=3/3(-5);
 2/9=110/2;
 6/7=2,8=2,9=2,10=2,19=2,28=1/1;
 99/9=1/99;
 Leave Link    1 at Thu Jun 30 02:14:21 2022, MaxMem=  1342177280 cpu:               0.7 elap:               0.1
 (Enter /home/mkliu/g16/l101.exe)
 -----
 force
 -----
 Symbolic Z-matrix:
 Charge =  0 Multiplicity = 1
 C                     8.42205   18.6698   10.80208 
 C                     12.57638   19.99266   8.88636 
 C                     8.22852   27.10481   10.5907 
 C                     12.47219   25.73374   8.92161 
 C                     8.02918   19.21204   9.44461 
 C                     12.06419   19.50572   10.2112 
 C                     7.96206   26.8042   9.14053 
 C                     11.85539   26.13835   10.22592 
 C                     8.99192   19.32854   8.40211 
 C                     12.32983   20.14875   11.38526 
 C                     12.10251   25.47455   11.39576 
 C                     8.96417   26.59004   8.17143 
 C                     10.35998   19.12805   8.69544 
 C                     10.29636   26.64729   8.61539 
 C                     10.81022   18.87055   10.03585 
 C                     10.6034   26.73639   10.0284 
 C                     9.88837   18.7941   11.0641 
 C                     9.61617   26.7217   11.00953 
 C                     10.1518   19.44153   12.26436 
 C                     9.87235   26.0319   12.20123 
 C                     8.89357   19.8665   12.94867 
 C                     8.74573   25.59146   13.09182 
 C                     7.86098   19.53095   11.90391 
 C                     7.42795   25.56688   12.36683 
 C                     6.73753   20.21649   11.76485 
 C                     7.18816   26.24733   11.25555 
 C                     5.94138   20.19689   10.49242 
 C                     6.06918   25.90133   10.30562 
 C                     6.80218   19.83888   9.31313 
 C                     6.70622   26.23015   8.9939 
 C                     6.47258   20.43894   8.0933 
 C                     6.38159   25.5628   7.83852 
 C                     7.36161   20.46993   7.04121 
 C                     7.33604   25.40862   6.81771 
 C                     8.6951    20.04715   7.20235 
 C                     8.6869    25.83391   6.99101 
 C                     9.73836   20.65011   6.44074 
 C                     9.73581   25.12444   6.34567 
 C                     11.0485   20.60226   6.89907 
 C                     12.67559   22.18087   7.78398 
 C                     12.65247   23.56766   7.79048 
 C                     11.03302   25.15925   6.85516 
 C                     11.35564   19.80755   8.00301 
 C                     12.87519   21.46771   8.95375 
 C                     12.82098   24.27166   8.97002 
 C                     11.3097   25.94895   7.97234 
 C                     13.08787   22.16644   10.15078 
 C                     13.05641   23.56909   10.16181 
 C                     13.15598   21.40334   11.46121 
 C                     13.06422   24.32845   11.48121 
 C                     12.42159   22.17874   12.52634 
 C                     12.42984   23.52094   12.56914 
 C                     11.3383   20.15467   12.40695 
 C                     11.1092   25.4235   12.38065 
 C                     11.34837   21.40855   13.06791 
 C                     11.36743   24.27116   13.31053 
 C                     8.89333   21.34557   13.25738 
 C                     8.90996   24.12975   13.41592 
 C                     7.69868   22.05248   13.13451 
 C                     7.71612   23.43771   13.23142 
 C                     6.43963   21.43348   12.58909 
 C                     6.62775   24.35204   12.73633 
 C                     5.87591   22.34543   11.53151 
 C                     5.98313   23.72553   11.53085 
 C                     5.58119   21.65343   10.3653 
 C                     5.75243   24.41998   10.33956 
 C                     5.37165   22.32077   9.16867 
 C                     5.44061   23.71978   9.16092 
 C                     5.37688   21.46911   7.92085 
 C                     5.38447   24.43997   7.82878 
 C                     5.88904   22.22423   6.73173 
 C                     5.93671   23.56886   6.72746 
 C                     6.88056   21.39432   5.96471 
 C                     7.00343   24.25881   6.0639 
 C                     8.01638   22.16945   5.43851 
 C                     8.0267    23.53009   5.44541 
 C                     9.39389   21.60809   5.32595 
 C                     9.40144   24.10232   5.28274 
 C                     12.07992   21.6288   6.5143 
 C                     12.06394   24.11569   6.51441 
 C                     10.23252   22.85859   5.4238 
 C                     11.44548   22.8679   5.95277 
 C                     10.11824   22.04729   13.41878 
 C                     10.11526   23.4618   13.49124 
 Cl                    4.57121   26.84225   10.64369 
 Cl                    3.69395   24.9699   7.51566 
 Cl                    13.33063   24.80965   5.43523 
 Cl                    13.91685   26.70471   8.47145 
 Cl                    14.75508   24.83704   11.85185 
 Cl                    14.88048   21.09967   11.86907 
 Cl                    14.01811   19.08986   8.30625 
 Cl                    3.75213   20.74096   7.65293 
 Cl                    4.5035    19.11993   10.59891 
 Cl                    5.39048   24.69277   14.00325 
 Cl                    7.85078   16.95617   10.92428 
 Cl                    5.26379   21.11297   13.91428 
 Cl                    8.60068   18.95342   14.49048 
 Cl                    8.67867   26.60768   14.58032 
 Cl                    7.96531   28.87011   10.9411 
 Cl                    13.31981   20.92949   5.41377 
 Cl                    9.6503    20.74836   3.7454 
 Cl                    9.6122    24.87289   3.65715 
 Cl                    11.95917   24.84469   14.9352 
 Cl                    6.067     20.43129   4.63461 
 
 ITRead=  0  0  0  0  0  0  0  0  0  0  0  0  0  0  0  0  0  0  0  0
 ITRead=  0  0  0  0  0  0  0  0  0  0  0  0  0  0  0  0  0  0  0  0
 ITRead=  0  0  0  0  0  0  0  0  0  0  0  0  0  0  0  0  0  0  0  0
 ITRead=  0  0  0  0  0  0  0  0  0  0  0  0  0  0  0  0  0  0  0  0
 ITRead=  0  0  0  0  0  0  0  0  0  0  0  0  0  0  0  0  0  0  0  0
 ITRead=  0  0  0  0
 MicOpt= -1 -1 -1 -1 -1 -1 -1 -1 -1 -1 -1 -1 -1 -1 -1 -1 -1 -1 -1 -1
 MicOpt= -1 -1 -1 -1 -1 -1 -1 -1 -1 -1 -1 -1 -1 -1 -1 -1 -1 -1 -1 -1
 MicOpt= -1 -1 -1 -1 -1 -1 -1 -1 -1 -1 -1 -1 -1 -1 -1 -1 -1 -1 -1 -1
 MicOpt= -1 -1 -1 -1 -1 -1 -1 -1 -1 -1 -1 -1 -1 -1 -1 -1 -1 -1 -1 -1
 MicOpt= -1 -1 -1 -1 -1 -1 -1 -1 -1 -1 -1 -1 -1 -1 -1 -1 -1 -1 -1 -1
 MicOpt= -1 -1 -1 -1
 NAtoms=    104 NQM=      104 NQMF=       0 NMMI=      0 NMMIF=      0
                NMic=       0 NMicF=      0.
                    Isotopes and Nuclear Properties:
 (Nuclear quadrupole moments (NQMom) in fm**2, nuclear magnetic moments (NMagM)
  in nuclear magnetons)

  Atom         1           2           3           4           5           6           7           8           9          10
 IAtWgt=          12          12          12          12          12          12          12          12          12          12
 AtmWgt=  12.0000000  12.0000000  12.0000000  12.0000000  12.0000000  12.0000000  12.0000000  12.0000000  12.0000000  12.0000000
 NucSpn=           0           0           0           0           0           0           0           0           0           0
 AtZEff=  -0.0000000  -0.0000000  -0.0000000  -0.0000000  -0.0000000  -0.0000000  -0.0000000  -0.0000000  -0.0000000  -0.0000000
 NQMom=    0.0000000   0.0000000   0.0000000   0.0000000   0.0000000   0.0000000   0.0000000   0.0000000   0.0000000   0.0000000
 NMagM=    0.0000000   0.0000000   0.0000000   0.0000000   0.0000000   0.0000000   0.0000000   0.0000000   0.0000000   0.0000000
 AtZNuc=   6.0000000   6.0000000   6.0000000   6.0000000   6.0000000   6.0000000   6.0000000   6.0000000   6.0000000   6.0000000

  Atom        11          12          13          14          15          16          17          18          19          20
 IAtWgt=          12          12          12          12          12          12          12          12          12          12
 AtmWgt=  12.0000000  12.0000000  12.0000000  12.0000000  12.0000000  12.0000000  12.0000000  12.0000000  12.0000000  12.0000000
 NucSpn=           0           0           0           0           0           0           0           0           0           0
 AtZEff=  -0.0000000  -0.0000000  -0.0000000  -0.0000000  -0.0000000  -0.0000000  -0.0000000  -0.0000000  -0.0000000  -0.0000000
 NQMom=    0.0000000   0.0000000   0.0000000   0.0000000   0.0000000   0.0000000   0.0000000   0.0000000   0.0000000   0.0000000
 NMagM=    0.0000000   0.0000000   0.0000000   0.0000000   0.0000000   0.0000000   0.0000000   0.0000000   0.0000000   0.0000000
 AtZNuc=   6.0000000   6.0000000   6.0000000   6.0000000   6.0000000   6.0000000   6.0000000   6.0000000   6.0000000   6.0000000

  Atom        21          22          23          24          25          26          27          28          29          30
 IAtWgt=          12          12          12          12          12          12          12          12          12          12
 AtmWgt=  12.0000000  12.0000000  12.0000000  12.0000000  12.0000000  12.0000000  12.0000000  12.0000000  12.0000000  12.0000000
 NucSpn=           0           0           0           0           0           0           0           0           0           0
 AtZEff=  -0.0000000  -0.0000000  -0.0000000  -0.0000000  -0.0000000  -0.0000000  -0.0000000  -0.0000000  -0.0000000  -0.0000000
 NQMom=    0.0000000   0.0000000   0.0000000   0.0000000   0.0000000   0.0000000   0.0000000   0.0000000   0.0000000   0.0000000
 NMagM=    0.0000000   0.0000000   0.0000000   0.0000000   0.0000000   0.0000000   0.0000000   0.0000000   0.0000000   0.0000000
 AtZNuc=   6.0000000   6.0000000   6.0000000   6.0000000   6.0000000   6.0000000   6.0000000   6.0000000   6.0000000   6.0000000

  Atom        31          32          33          34          35          36          37          38          39          40
 IAtWgt=          12          12          12          12          12          12          12          12          12          12
 AtmWgt=  12.0000000  12.0000000  12.0000000  12.0000000  12.0000000  12.0000000  12.0000000  12.0000000  12.0000000  12.0000000
 NucSpn=           0           0           0           0           0           0           0           0           0           0
 AtZEff=  -0.0000000  -0.0000000  -0.0000000  -0.0000000  -0.0000000  -0.0000000  -0.0000000  -0.0000000  -0.0000000  -0.0000000
 NQMom=    0.0000000   0.0000000   0.0000000   0.0000000   0.0000000   0.0000000   0.0000000   0.0000000   0.0000000   0.0000000
 NMagM=    0.0000000   0.0000000   0.0000000   0.0000000   0.0000000   0.0000000   0.0000000   0.0000000   0.0000000   0.0000000
 AtZNuc=   6.0000000   6.0000000   6.0000000   6.0000000   6.0000000   6.0000000   6.0000000   6.0000000   6.0000000   6.0000000

  Atom        41          42          43          44          45          46          47          48          49          50
 IAtWgt=          12          12          12          12          12          12          12          12          12          12
 AtmWgt=  12.0000000  12.0000000  12.0000000  12.0000000  12.0000000  12.0000000  12.0000000  12.0000000  12.0000000  12.0000000
 NucSpn=           0           0           0           0           0           0           0           0           0           0
 AtZEff=  -0.0000000  -0.0000000  -0.0000000  -0.0000000  -0.0000000  -0.0000000  -0.0000000  -0.0000000  -0.0000000  -0.0000000
 NQMom=    0.0000000   0.0000000   0.0000000   0.0000000   0.0000000   0.0000000   0.0000000   0.0000000   0.0000000   0.0000000
 NMagM=    0.0000000   0.0000000   0.0000000   0.0000000   0.0000000   0.0000000   0.0000000   0.0000000   0.0000000   0.0000000
 AtZNuc=   6.0000000   6.0000000   6.0000000   6.0000000   6.0000000   6.0000000   6.0000000   6.0000000   6.0000000   6.0000000

  Atom        51          52          53          54          55          56          57          58          59          60
 IAtWgt=          12          12          12          12          12          12          12          12          12          12
 AtmWgt=  12.0000000  12.0000000  12.0000000  12.0000000  12.0000000  12.0000000  12.0000000  12.0000000  12.0000000  12.0000000
 NucSpn=           0           0           0           0           0           0           0           0           0           0
 AtZEff=  -0.0000000  -0.0000000  -0.0000000  -0.0000000  -0.0000000  -0.0000000  -0.0000000  -0.0000000  -0.0000000  -0.0000000
 NQMom=    0.0000000   0.0000000   0.0000000   0.0000000   0.0000000   0.0000000   0.0000000   0.0000000   0.0000000   0.0000000
 NMagM=    0.0000000   0.0000000   0.0000000   0.0000000   0.0000000   0.0000000   0.0000000   0.0000000   0.0000000   0.0000000
 AtZNuc=   6.0000000   6.0000000   6.0000000   6.0000000   6.0000000   6.0000000   6.0000000   6.0000000   6.0000000   6.0000000

  Atom        61          62          63          64          65          66          67          68          69          70
 IAtWgt=          12          12          12          12          12          12          12          12          12          12
 AtmWgt=  12.0000000  12.0000000  12.0000000  12.0000000  12.0000000  12.0000000  12.0000000  12.0000000  12.0000000  12.0000000
 NucSpn=           0           0           0           0           0           0           0           0           0           0
 AtZEff=  -0.0000000  -0.0000000  -0.0000000  -0.0000000  -0.0000000  -0.0000000  -0.0000000  -0.0000000  -0.0000000  -0.0000000
 NQMom=    0.0000000   0.0000000   0.0000000   0.0000000   0.0000000   0.0000000   0.0000000   0.0000000   0.0000000   0.0000000
 NMagM=    0.0000000   0.0000000   0.0000000   0.0000000   0.0000000   0.0000000   0.0000000   0.0000000   0.0000000   0.0000000
 AtZNuc=   6.0000000   6.0000000   6.0000000   6.0000000   6.0000000   6.0000000   6.0000000   6.0000000   6.0000000   6.0000000

  Atom        71          72          73          74          75          76          77          78          79          80
 IAtWgt=          12          12          12          12          12          12          12          12          12          12
 AtmWgt=  12.0000000  12.0000000  12.0000000  12.0000000  12.0000000  12.0000000  12.0000000  12.0000000  12.0000000  12.0000000
 NucSpn=           0           0           0           0           0           0           0           0           0           0
 AtZEff=  -0.0000000  -0.0000000  -0.0000000  -0.0000000  -0.0000000  -0.0000000  -0.0000000  -0.0000000  -0.0000000  -0.0000000
 NQMom=    0.0000000   0.0000000   0.0000000   0.0000000   0.0000000   0.0000000   0.0000000   0.0000000   0.0000000   0.0000000
 NMagM=    0.0000000   0.0000000   0.0000000   0.0000000   0.0000000   0.0000000   0.0000000   0.0000000   0.0000000   0.0000000
 AtZNuc=   6.0000000   6.0000000   6.0000000   6.0000000   6.0000000   6.0000000   6.0000000   6.0000000   6.0000000   6.0000000

  Atom        81          82          83          84          85          86          87          88          89          90
 IAtWgt=          12          12          12          12          35          35          35          35          35          35
 AtmWgt=  12.0000000  12.0000000  12.0000000  12.0000000  34.9688527  34.9688527  34.9688527  34.9688527  34.9688527  34.9688527
 NucSpn=           0           0           0           0           3           3           3           3           3           3
 AtZEff=  -0.0000000  -0.0000000  -0.0000000  -0.0000000  -0.0000000  -0.0000000  -0.0000000  -0.0000000  -0.0000000  -0.0000000
 NQMom=    0.0000000   0.0000000   0.0000000   0.0000000  -8.1650000  -8.1650000  -8.1650000  -8.1650000  -8.1650000  -8.1650000
 NMagM=    0.0000000   0.0000000   0.0000000   0.0000000   0.8218740   0.8218740   0.8218740   0.8218740   0.8218740   0.8218740
 AtZNuc=   6.0000000   6.0000000   6.0000000   6.0000000  17.0000000  17.0000000  17.0000000  17.0000000  17.0000000  17.0000000

  Atom        91          92          93          94          95          96          97          98          99         100
 IAtWgt=          35          35          35          35          35          35          35          35          35          35
 AtmWgt=  34.9688527  34.9688527  34.9688527  34.9688527  34.9688527  34.9688527  34.9688527  34.9688527  34.9688527  34.9688527
 NucSpn=           3           3           3           3           3           3           3           3           3           3
 AtZEff=  -0.0000000  -0.0000000  -0.0000000  -0.0000000  -0.0000000  -0.0000000  -0.0000000  -0.0000000  -0.0000000  -0.0000000
 NQMom=   -8.1650000  -8.1650000  -8.1650000  -8.1650000  -8.1650000  -8.1650000  -8.1650000  -8.1650000  -8.1650000  -8.1650000
 NMagM=    0.8218740   0.8218740   0.8218740   0.8218740   0.8218740   0.8218740   0.8218740   0.8218740   0.8218740   0.8218740
 AtZNuc=  17.0000000  17.0000000  17.0000000  17.0000000  17.0000000  17.0000000  17.0000000  17.0000000  17.0000000  17.0000000

  Atom       101         102         103         104
 IAtWgt=          35          35          35          35
 AtmWgt=  34.9688527  34.9688527  34.9688527  34.9688527
 NucSpn=           3           3           3           3
 AtZEff=  -0.0000000  -0.0000000  -0.0000000  -0.0000000
 NQMom=   -8.1650000  -8.1650000  -8.1650000  -8.1650000
 NMagM=    0.8218740   0.8218740   0.8218740   0.8218740
 AtZNuc=  17.0000000  17.0000000  17.0000000  17.0000000
 Leave Link  101 at Thu Jun 30 02:14:21 2022, MaxMem=  1342177280 cpu:               6.8 elap:               0.3
 (Enter /home/mkliu/g16/l103.exe)

 GradGradGradGradGradGradGradGradGradGradGradGradGradGradGradGradGradGrad
 Berny optimization.
 Initialization pass.
                           ----------------------------
                           !    Initial Parameters    !
                           ! (Angstroms and Degrees)  !
 --------------------------                            --------------------------
 ! Name  Definition              Value          Derivative Info.                !
 --------------------------------------------------------------------------------
 ! R1    R(1,5)                  1.5136         estimate D2E/DX2                !
 ! R2    R(1,17)                 1.4947         estimate D2E/DX2                !
 ! R3    R(1,23)                 1.5068         estimate D2E/DX2                !
 ! R4    R(1,95)                 1.8105         estimate D2E/DX2                !
 ! R5    R(2,6)                  1.5015         estimate D2E/DX2                !
 ! R6    R(2,43)                 1.5181         estimate D2E/DX2                !
 ! R7    R(2,44)                 1.5065         estimate D2E/DX2                !
 ! R8    R(2,91)                 1.7973         estimate D2E/DX2                !
 ! R9    R(3,7)                  1.5048         estimate D2E/DX2                !
 ! R10   R(3,18)                 1.4993         estimate D2E/DX2                !
 ! R11   R(3,26)                 1.5032         estimate D2E/DX2                !
 ! R12   R(3,99)                 1.8189         estimate D2E/DX2                !
 ! R13   R(4,8)                  1.4985         estimate D2E/DX2                !
 ! R14   R(4,45)                 1.5039         estimate D2E/DX2                !
 ! R15   R(4,46)                 1.5162         estimate D2E/DX2                !
 ! R16   R(4,88)                 1.7979         estimate D2E/DX2                !
 ! R17   R(5,9)                  1.4238         estimate D2E/DX2                !
 ! R18   R(5,29)                 1.3841         estimate D2E/DX2                !
 ! R19   R(6,10)                 1.3647         estimate D2E/DX2                !
 ! R20   R(6,15)                 1.4166         estimate D2E/DX2                !
 ! R21   R(7,12)                 1.4104         estimate D2E/DX2                !
 ! R22   R(7,30)                 1.3886         estimate D2E/DX2                !
 ! R23   R(8,11)                 1.3676         estimate D2E/DX2                !
 ! R24   R(8,16)                 1.4015         estimate D2E/DX2                !
 ! R25   R(9,13)                 1.4134         estimate D2E/DX2                !
 ! R26   R(9,35)                 1.4297         estimate D2E/DX2                !
 ! R27   R(10,49)                1.5041         estimate D2E/DX2                !
 ! R28   R(10,53)                1.4237         estimate D2E/DX2                !
 ! R29   R(11,50)                1.4986         estimate D2E/DX2                !
 ! R30   R(11,54)                1.3997         estimate D2E/DX2                !
 ! R31   R(12,14)                1.4054         estimate D2E/DX2                !
 ! R32   R(12,36)                1.429          estimate D2E/DX2                !
 ! R33   R(13,15)                1.4373         estimate D2E/DX2                !
 ! R34   R(13,43)                1.3902         estimate D2E/DX2                !
 ! R35   R(14,16)                1.4487         estimate D2E/DX2                !
 ! R36   R(14,46)                1.3885         estimate D2E/DX2                !
 ! R37   R(15,17)                1.3831         estimate D2E/DX2                !
 ! R38   R(16,18)                1.3919         estimate D2E/DX2                !
 ! R39   R(17,19)                1.389          estimate D2E/DX2                !
 ! R40   R(18,20)                1.4006         estimate D2E/DX2                !
 ! R41   R(19,21)                1.494          estimate D2E/DX2                !
 ! R42   R(19,53)                1.3916         estimate D2E/DX2                !
 ! R43   R(20,22)                1.5021         estimate D2E/DX2                !
 ! R44   R(20,54)                1.39           estimate D2E/DX2                !
 ! R45   R(21,23)                1.5068         estimate D2E/DX2                !
 ! R46   R(21,57)                1.511          estimate D2E/DX2                !
 ! R47   R(21,97)                1.8157         estimate D2E/DX2                !
 ! R48   R(22,24)                1.5042         estimate D2E/DX2                !
 ! R49   R(22,58)                1.5062         estimate D2E/DX2                !
 ! R50   R(22,98)                1.8036         estimate D2E/DX2                !
 ! R51   R(23,25)                1.3234         estimate D2E/DX2                !
 ! R52   R(24,26)                1.3249         estimate D2E/DX2                !
 ! R53   R(24,62)                1.5009         estimate D2E/DX2                !
 ! R54   R(25,27)                1.5011         estimate D2E/DX2                !
 ! R55   R(25,61)                1.4997         estimate D2E/DX2                !
 ! R56   R(26,28)                1.508          estimate D2E/DX2                !
 ! R57   R(27,29)                1.5033         estimate D2E/DX2                !
 ! R58   R(27,65)                1.5058         estimate D2E/DX2                !
 ! R59   R(27,93)                1.7996         estimate D2E/DX2                !
 ! R60   R(28,30)                1.4948         estimate D2E/DX2                !
 ! R61   R(28,66)                1.5152         estimate D2E/DX2                !
 ! R62   R(28,85)                1.801          estimate D2E/DX2                !
 ! R63   R(29,31)                1.3988         estimate D2E/DX2                !
 ! R64   R(30,32)                1.3732         estimate D2E/DX2                !
 ! R65   R(31,33)                1.3778         estimate D2E/DX2                !
 ! R66   R(31,69)                1.5138         estimate D2E/DX2                !
 ! R67   R(32,34)                1.406          estimate D2E/DX2                !
 ! R68   R(32,70)                1.5017         estimate D2E/DX2                !
 ! R69   R(33,35)                1.4082         estimate D2E/DX2                !
 ! R70   R(33,73)                1.4983         estimate D2E/DX2                !
 ! R71   R(34,36)                1.4268         estimate D2E/DX2                !
 ! R72   R(34,74)                1.4145         estimate D2E/DX2                !
 ! R73   R(35,37)                1.4255         estimate D2E/DX2                !
 ! R74   R(36,38)                1.4213         estimate D2E/DX2                !
 ! R75   R(37,39)                1.3888         estimate D2E/DX2                !
 ! R76   R(37,77)                1.5097         estimate D2E/DX2                !
 ! R77   R(38,42)                1.3941         estimate D2E/DX2                !
 ! R78   R(38,78)                1.5121         estimate D2E/DX2                !
 ! R79   R(39,43)                1.3945         estimate D2E/DX2                !
 ! R80   R(39,79)                1.5052         estimate D2E/DX2                !
 ! R81   R(40,41)                1.387          estimate D2E/DX2                !
 ! R82   R(40,44)                1.3845         estimate D2E/DX2                !
 ! R83   R(40,79)                1.5072         estimate D2E/DX2                !
 ! R84   R(41,45)                1.384          estimate D2E/DX2                !
 ! R85   R(41,80)                1.5083         estimate D2E/DX2                !
 ! R86   R(42,46)                1.3958         estimate D2E/DX2                !
 ! R87   R(42,80)                1.506          estimate D2E/DX2                !
 ! R88   R(44,47)                1.4023         estimate D2E/DX2                !
 ! R89   R(45,48)                1.4033         estimate D2E/DX2                !
 ! R90   R(47,48)                1.403          estimate D2E/DX2                !
 ! R91   R(47,49)                1.518          estimate D2E/DX2                !
 ! R92   R(48,50)                1.5223         estimate D2E/DX2                !
 ! R93   R(49,51)                1.5083         estimate D2E/DX2                !
 ! R94   R(49,90)                1.7979         estimate D2E/DX2                !
 ! R95   R(50,52)                1.496          estimate D2E/DX2                !
 ! R96   R(50,89)                1.8042         estimate D2E/DX2                !
 ! R97   R(51,52)                1.3429         estimate D2E/DX2                !
 ! R98   R(51,55)                1.4277         estimate D2E/DX2                !
 ! R99   R(52,56)                1.4971         estimate D2E/DX2                !
 ! R100  R(53,55)                1.4175         estimate D2E/DX2                !
 ! R101  R(54,56)                1.5031         estimate D2E/DX2                !
 ! R102  R(55,83)                1.4298         estimate D2E/DX2                !
 ! R103  R(56,84)                1.5019         estimate D2E/DX2                !
 ! R104  R(56,103)               1.8217         estimate D2E/DX2                !
 ! R105  R(57,59)                1.3936         estimate D2E/DX2                !
 ! R106  R(57,83)                1.4209         estimate D2E/DX2                !
 ! R107  R(58,60)                1.3922         estimate D2E/DX2                !
 ! R108  R(58,84)                1.3801         estimate D2E/DX2                !
 ! R109  R(59,60)                1.3887         estimate D2E/DX2                !
 ! R110  R(59,61)                1.5053         estimate D2E/DX2                !
 ! R111  R(60,62)                1.5052         estimate D2E/DX2                !
 ! R112  R(61,63)                1.506          estimate D2E/DX2                !
 ! R113  R(61,96)                1.8004         estimate D2E/DX2                !
 ! R114  R(62,64)                1.5037         estimate D2E/DX2                !
 ! R115  R(62,94)                1.8033         estimate D2E/DX2                !
 ! R116  R(63,64)                1.3843         estimate D2E/DX2                !
 ! R117  R(63,65)                1.3877         estimate D2E/DX2                !
 ! R118  R(64,66)                1.3981         estimate D2E/DX2                !
 ! R119  R(65,67)                1.3861         estimate D2E/DX2                !
 ! R120  R(66,68)                1.406          estimate D2E/DX2                !
 ! R121  R(67,68)                1.4007         estimate D2E/DX2                !
 ! R122  R(67,69)                1.5108         estimate D2E/DX2                !
 ! R123  R(68,70)                1.5154         estimate D2E/DX2                !
 ! R124  R(69,71)                1.4988         estimate D2E/DX2                !
 ! R125  R(69,92)                1.8005         estimate D2E/DX2                !
 ! R126  R(70,72)                1.5089         estimate D2E/DX2                !
 ! R127  R(70,86)                1.7991         estimate D2E/DX2                !
 ! R128  R(71,72)                1.3455         estimate D2E/DX2                !
 ! R129  R(71,73)                1.5034         estimate D2E/DX2                !
 ! R130  R(72,74)                1.4333         estimate D2E/DX2                !
 ! R131  R(73,75)                1.4723         estimate D2E/DX2                !
 ! R132  R(73,104)               1.8326         estimate D2E/DX2                !
 ! R133  R(74,76)                1.4002         estimate D2E/DX2                !
 ! R134  R(75,76)                1.3607         estimate D2E/DX2                !
 ! R135  R(75,77)                1.4918         estimate D2E/DX2                !
 ! R136  R(76,78)                1.4979         estimate D2E/DX2                !
 ! R137  R(77,81)                1.5089         estimate D2E/DX2                !
 ! R138  R(77,101)               1.8174         estimate D2E/DX2                !
 ! R139  R(78,81)                1.5025         estimate D2E/DX2                !
 ! R140  R(78,102)               1.8113         estimate D2E/DX2                !
 ! R141  R(79,82)                1.5011         estimate D2E/DX2                !
 ! R142  R(79,100)               1.7993         estimate D2E/DX2                !
 ! R143  R(80,82)                1.5016         estimate D2E/DX2                !
 ! R144  R(80,87)                1.803          estimate D2E/DX2                !
 ! R145  R(81,82)                1.3233         estimate D2E/DX2                !
 ! R146  R(83,84)                1.4164         estimate D2E/DX2                !
 ! A1    A(5,1,17)             112.46           estimate D2E/DX2                !
 ! A2    A(5,1,23)             110.7575         estimate D2E/DX2                !
 ! A3    A(5,1,95)             108.5245         estimate D2E/DX2                !
 ! A4    A(17,1,23)            100.9278         estimate D2E/DX2                !
 ! A5    A(17,1,95)            112.1121         estimate D2E/DX2                !
 ! A6    A(23,1,95)            111.9685         estimate D2E/DX2                !
 ! A7    A(6,2,43)             101.5114         estimate D2E/DX2                !
 ! A8    A(6,2,44)             110.2248         estimate D2E/DX2                !
 ! A9    A(6,2,91)             113.2985         estimate D2E/DX2                !
 ! A10   A(43,2,44)            107.7523         estimate D2E/DX2                !
 ! A11   A(43,2,91)            113.3266         estimate D2E/DX2                !
 ! A12   A(44,2,91)            110.3133         estimate D2E/DX2                !
 ! A13   A(7,3,18)             112.4613         estimate D2E/DX2                !
 ! A14   A(7,3,26)             100.9371         estimate D2E/DX2                !
 ! A15   A(7,3,99)             110.727          estimate D2E/DX2                !
 ! A16   A(18,3,26)            111.7929         estimate D2E/DX2                !
 ! A17   A(18,3,99)            109.1548         estimate D2E/DX2                !
 ! A18   A(26,3,99)            111.6093         estimate D2E/DX2                !
 ! A19   A(8,4,45)             109.2664         estimate D2E/DX2                !
 ! A20   A(8,4,46)             101.0141         estimate D2E/DX2                !
 ! A21   A(8,4,88)             113.7574         estimate D2E/DX2                !
 ! A22   A(45,4,46)            109.6319         estimate D2E/DX2                !
 ! A23   A(45,4,88)            110.2878         estimate D2E/DX2                !
 ! A24   A(46,4,88)            112.4985         estimate D2E/DX2                !
 ! A25   A(1,5,9)              120.6941         estimate D2E/DX2                !
 ! A26   A(1,5,29)             118.5234         estimate D2E/DX2                !
 ! A27   A(9,5,29)             119.5262         estimate D2E/DX2                !
 ! A28   A(2,6,10)             122.6738         estimate D2E/DX2                !
 ! A29   A(2,6,15)             109.764          estimate D2E/DX2                !
 ! A30   A(10,6,15)            119.3455         estimate D2E/DX2                !
 ! A31   A(3,7,12)             124.5203         estimate D2E/DX2                !
 ! A32   A(3,7,30)             110.1508         estimate D2E/DX2                !
 ! A33   A(12,7,30)            120.4814         estimate D2E/DX2                !
 ! A34   A(4,8,11)             122.6253         estimate D2E/DX2                !
 ! A35   A(4,8,16)             111.1162         estimate D2E/DX2                !
 ! A36   A(11,8,16)            119.2826         estimate D2E/DX2                !
 ! A37   A(5,9,13)             119.3997         estimate D2E/DX2                !
 ! A38   A(5,9,35)             121.01           estimate D2E/DX2                !
 ! A39   A(13,9,35)            116.5135         estimate D2E/DX2                !
 ! A40   A(6,10,49)            122.9137         estimate D2E/DX2                !
 ! A41   A(6,10,53)            118.9311         estimate D2E/DX2                !
 ! A42   A(49,10,53)           110.0488         estimate D2E/DX2                !
 ! A43   A(8,11,50)            122.4091         estimate D2E/DX2                !
 ! A44   A(8,11,54)            119.4302         estimate D2E/DX2                !
 ! A45   A(50,11,54)           112.7926         estimate D2E/DX2                !
 ! A46   A(7,12,14)            116.7605         estimate D2E/DX2                !
 ! A47   A(7,12,36)            120.6691         estimate D2E/DX2                !
 ! A48   A(14,12,36)           117.8026         estimate D2E/DX2                !
 ! A49   A(9,13,15)            121.4779         estimate D2E/DX2                !
 ! A50   A(9,13,43)            121.3672         estimate D2E/DX2                !
 ! A51   A(15,13,43)           109.1314         estimate D2E/DX2                !
 ! A52   A(12,14,16)           120.765          estimate D2E/DX2                !
 ! A53   A(12,14,46)           121.6682         estimate D2E/DX2                !
 ! A54   A(16,14,46)           109.1447         estimate D2E/DX2                !
 ! A55   A(6,15,13)            108.2052         estimate D2E/DX2                !
 ! A56   A(6,15,17)            121.5183         estimate D2E/DX2                !
 ! A57   A(13,15,17)           119.6333         estimate D2E/DX2                !
 ! A58   A(8,16,14)            107.4907         estimate D2E/DX2                !
 ! A59   A(8,16,18)            121.9888         estimate D2E/DX2                !
 ! A60   A(14,16,18)           122.4473         estimate D2E/DX2                !
 ! A61   A(1,17,15)            121.8787         estimate D2E/DX2                !
 ! A62   A(1,17,19)            112.105          estimate D2E/DX2                !
 ! A63   A(15,17,19)           119.3578         estimate D2E/DX2                !
 ! A64   A(3,18,16)            117.1842         estimate D2E/DX2                !
 ! A65   A(3,18,20)            122.1975         estimate D2E/DX2                !
 ! A66   A(16,18,20)           118.3738         estimate D2E/DX2                !
 ! A67   A(17,19,21)           111.6332         estimate D2E/DX2                !
 ! A68   A(17,19,53)           119.282          estimate D2E/DX2                !
 ! A69   A(21,19,53)           121.6921         estimate D2E/DX2                !
 ! A70   A(18,20,22)           120.7766         estimate D2E/DX2                !
 ! A71   A(18,20,54)           119.2191         estimate D2E/DX2                !
 ! A72   A(22,20,54)           117.5488         estimate D2E/DX2                !
 ! A73   A(19,21,23)           101.3163         estimate D2E/DX2                !
 ! A74   A(19,21,57)           111.8491         estimate D2E/DX2                !
 ! A75   A(19,21,97)           112.4426         estimate D2E/DX2                !
 ! A76   A(23,21,57)           111.0732         estimate D2E/DX2                !
 ! A77   A(23,21,97)           111.485          estimate D2E/DX2                !
 ! A78   A(57,21,97)           108.5872         estimate D2E/DX2                !
 ! A79   A(20,22,24)           112.0912         estimate D2E/DX2                !
 ! A80   A(20,22,58)           109.29           estimate D2E/DX2                !
 ! A81   A(20,22,98)           110.6087         estimate D2E/DX2                !
 ! A82   A(24,22,58)           100.5664         estimate D2E/DX2                !
 ! A83   A(24,22,98)           111.9875         estimate D2E/DX2                !
 ! A84   A(58,22,98)           111.918          estimate D2E/DX2                !
 ! A85   A(1,23,21)            112.2793         estimate D2E/DX2                !
 ! A86   A(1,23,25)            122.3646         estimate D2E/DX2                !
 ! A87   A(21,23,25)           122.6328         estimate D2E/DX2                !
 ! A88   A(22,24,26)           123.6697         estimate D2E/DX2                !
 ! A89   A(22,24,62)           111.2004         estimate D2E/DX2                !
 ! A90   A(26,24,62)           121.7141         estimate D2E/DX2                !
 ! A91   A(23,25,27)           122.1771         estimate D2E/DX2                !
 ! A92   A(23,25,61)           122.0878         estimate D2E/DX2                !
 ! A93   A(27,25,61)           111.7846         estimate D2E/DX2                !
 ! A94   A(3,26,24)            122.5927         estimate D2E/DX2                !
 ! A95   A(3,26,28)            111.4577         estimate D2E/DX2                !
 ! A96   A(24,26,28)           123.0106         estimate D2E/DX2                !
 ! A97   A(25,27,29)           111.3697         estimate D2E/DX2                !
 ! A98   A(25,27,65)           100.7072         estimate D2E/DX2                !
 ! A99   A(25,27,93)           112.4215         estimate D2E/DX2                !
 ! A100  A(29,27,65)           107.5243         estimate D2E/DX2                !
 ! A101  A(29,27,93)           111.1869         estimate D2E/DX2                !
 ! A102  A(65,27,93)           113.1246         estimate D2E/DX2                !
 ! A103  A(26,28,30)           100.723          estimate D2E/DX2                !
 ! A104  A(26,28,66)           111.4266         estimate D2E/DX2                !
 ! A105  A(26,28,85)           112.2753         estimate D2E/DX2                !
 ! A106  A(30,28,66)           108.8923         estimate D2E/DX2                !
 ! A107  A(30,28,85)           113.8442         estimate D2E/DX2                !
 ! A108  A(66,28,85)           109.4328         estimate D2E/DX2                !
 ! A109  A(5,29,27)            122.7489         estimate D2E/DX2                !
 ! A110  A(5,29,31)            119.0771         estimate D2E/DX2                !
 ! A111  A(27,29,31)           116.5523         estimate D2E/DX2                !
 ! A112  A(7,30,28)            112.5629         estimate D2E/DX2                !
 ! A113  A(7,30,32)            120.2358         estimate D2E/DX2                !
 ! A114  A(28,30,32)           122.0505         estimate D2E/DX2                !
 ! A115  A(29,31,33)           121.5688         estimate D2E/DX2                !
 ! A116  A(29,31,69)           124.1815         estimate D2E/DX2                !
 ! A117  A(33,31,69)           111.3929         estimate D2E/DX2                !
 ! A118  A(30,32,34)           120.2448         estimate D2E/DX2                !
 ! A119  A(30,32,70)           121.7225         estimate D2E/DX2                !
 ! A120  A(34,32,70)           111.3489         estimate D2E/DX2                !
 ! A121  A(31,33,35)           121.1257         estimate D2E/DX2                !
 ! A122  A(31,33,73)           110.8158         estimate D2E/DX2                !
 ! A123  A(35,33,73)           124.8556         estimate D2E/DX2                !
 ! A124  A(32,34,36)           121.4565         estimate D2E/DX2                !
 ! A125  A(32,34,74)           108.4469         estimate D2E/DX2                !
 ! A126  A(36,34,74)           121.9814         estimate D2E/DX2                !
 ! A127  A(9,35,33)            116.3308         estimate D2E/DX2                !
 ! A128  A(9,35,37)            120.5992         estimate D2E/DX2                !
 ! A129  A(33,35,37)           120.3262         estimate D2E/DX2                !
 ! A130  A(12,36,34)           116.2159         estimate D2E/DX2                !
 ! A131  A(12,36,38)           119.7365         estimate D2E/DX2                !
 ! A132  A(34,36,38)           119.656          estimate D2E/DX2                !
 ! A133  A(35,37,39)           119.9674         estimate D2E/DX2                !
 ! A134  A(35,37,77)           119.7321         estimate D2E/DX2                !
 ! A135  A(39,37,77)           118.7378         estimate D2E/DX2                !
 ! A136  A(36,38,42)           120.5512         estimate D2E/DX2                !
 ! A137  A(36,38,78)           119.5651         estimate D2E/DX2                !
 ! A138  A(42,38,78)           118.6562         estimate D2E/DX2                !
 ! A139  A(37,39,43)           119.2531         estimate D2E/DX2                !
 ! A140  A(37,39,79)           122.5848         estimate D2E/DX2                !
 ! A141  A(43,39,79)           116.1108         estimate D2E/DX2                !
 ! A142  A(41,40,44)           120.8952         estimate D2E/DX2                !
 ! A143  A(41,40,79)           111.321          estimate D2E/DX2                !
 ! A144  A(44,40,79)           125.4548         estimate D2E/DX2                !
 ! A145  A(40,41,45)           120.7025         estimate D2E/DX2                !
 ! A146  A(40,41,80)           111.4578         estimate D2E/DX2                !
 ! A147  A(45,41,80)           125.7141         estimate D2E/DX2                !
 ! A148  A(38,42,46)           119.4118         estimate D2E/DX2                !
 ! A149  A(38,42,80)           122.4786         estimate D2E/DX2                !
 ! A150  A(46,42,80)           115.9413         estimate D2E/DX2                !
 ! A151  A(2,43,13)            110.2238         estimate D2E/DX2                !
 ! A152  A(2,43,39)            124.6282         estimate D2E/DX2                !
 ! A153  A(13,43,39)           121.0061         estimate D2E/DX2                !
 ! A154  A(2,44,40)            115.9735         estimate D2E/DX2                !
 ! A155  A(2,44,47)            123.7895         estimate D2E/DX2                !
 ! A156  A(40,44,47)           119.1077         estimate D2E/DX2                !
 ! A157  A(4,45,41)            116.032          estimate D2E/DX2                !
 ! A158  A(4,45,48)            123.5708         estimate D2E/DX2                !
 ! A159  A(41,45,48)           119.312          estimate D2E/DX2                !
 ! A160  A(4,46,14)            109.9365         estimate D2E/DX2                !
 ! A161  A(4,46,42)            124.9452         estimate D2E/DX2                !
 ! A162  A(14,46,42)           120.6999         estimate D2E/DX2                !
 ! A163  A(44,47,48)           120.0962         estimate D2E/DX2                !
 ! A164  A(44,47,49)           119.5544         estimate D2E/DX2                !
 ! A165  A(48,47,49)           119.7881         estimate D2E/DX2                !
 ! A166  A(45,48,47)           119.8402         estimate D2E/DX2                !
 ! A167  A(45,48,50)           119.1547         estimate D2E/DX2                !
 ! A168  A(47,48,50)           120.356          estimate D2E/DX2                !
 ! A169  A(10,49,47)           110.5537         estimate D2E/DX2                !
 ! A170  A(10,49,51)           101.3631         estimate D2E/DX2                !
 ! A171  A(10,49,90)           113.4167         estimate D2E/DX2                !
 ! A172  A(47,49,51)           109.2285         estimate D2E/DX2                !
 ! A173  A(47,49,90)           108.8921         estimate D2E/DX2                !
 ! A174  A(51,49,90)           113.1815         estimate D2E/DX2                !
 ! A175  A(11,50,48)           109.195          estimate D2E/DX2                !
 ! A176  A(11,50,52)           100.4949         estimate D2E/DX2                !
 ! A177  A(11,50,89)           113.4261         estimate D2E/DX2                !
 ! A178  A(48,50,52)           111.0297         estimate D2E/DX2                !
 ! A179  A(48,50,89)           108.873          estimate D2E/DX2                !
 ! A180  A(52,50,89)           113.5886         estimate D2E/DX2                !
 ! A181  A(49,51,52)           122.2301         estimate D2E/DX2                !
 ! A182  A(49,51,55)           110.8882         estimate D2E/DX2                !
 ! A183  A(52,51,55)           122.1214         estimate D2E/DX2                !
 ! A184  A(50,52,51)           121.2594         estimate D2E/DX2                !
 ! A185  A(50,52,56)           112.9896         estimate D2E/DX2                !
 ! A186  A(51,52,56)           120.8163         estimate D2E/DX2                !
 ! A187  A(10,53,19)           121.2056         estimate D2E/DX2                !
 ! A188  A(10,53,55)           109.4726         estimate D2E/DX2                !
 ! A189  A(19,53,55)           120.4733         estimate D2E/DX2                !
 ! A190  A(11,54,20)           121.6452         estimate D2E/DX2                !
 ! A191  A(11,54,56)           109.9586         estimate D2E/DX2                !
 ! A192  A(20,54,56)           124.6307         estimate D2E/DX2                !
 ! A193  A(51,55,53)           107.7984         estimate D2E/DX2                !
 ! A194  A(51,55,83)           119.9229         estimate D2E/DX2                !
 ! A195  A(53,55,83)           120.2317         estimate D2E/DX2                !
 ! A196  A(52,56,54)           101.5219         estimate D2E/DX2                !
 ! A197  A(52,56,84)           112.4081         estimate D2E/DX2                !
 ! A198  A(52,56,103)          111.6487         estimate D2E/DX2                !
 ! A199  A(54,56,84)           110.142          estimate D2E/DX2                !
 ! A200  A(54,56,103)          111.4802         estimate D2E/DX2                !
 ! A201  A(84,56,103)          109.4609         estimate D2E/DX2                !
 ! A202  A(21,57,59)           118.5994         estimate D2E/DX2                !
 ! A203  A(21,57,83)           120.4322         estimate D2E/DX2                !
 ! A204  A(59,57,83)           119.9033         estimate D2E/DX2                !
 ! A205  A(22,58,60)           111.1237         estimate D2E/DX2                !
 ! A206  A(22,58,84)           125.217          estimate D2E/DX2                !
 ! A207  A(60,58,84)           121.0363         estimate D2E/DX2                !
 ! A208  A(57,59,60)           119.2796         estimate D2E/DX2                !
 ! A209  A(57,59,61)           122.7105         estimate D2E/DX2                !
 ! A210  A(60,59,61)           116.4853         estimate D2E/DX2                !
 ! A211  A(58,60,59)           121.0541         estimate D2E/DX2                !
 ! A212  A(58,60,62)           111.204          estimate D2E/DX2                !
 ! A213  A(59,60,62)           125.0215         estimate D2E/DX2                !
 ! A214  A(25,61,59)           111.5117         estimate D2E/DX2                !
 ! A215  A(25,61,63)           100.3578         estimate D2E/DX2                !
 ! A216  A(25,61,96)           112.9417         estimate D2E/DX2                !
 ! A217  A(59,61,63)           108.5747         estimate D2E/DX2                !
 ! A218  A(59,61,96)           110.6569         estimate D2E/DX2                !
 ! A219  A(63,61,96)           112.348          estimate D2E/DX2                !
 ! A220  A(24,62,60)           100.786          estimate D2E/DX2                !
 ! A221  A(24,62,64)           111.6182         estimate D2E/DX2                !
 ! A222  A(24,62,94)           112.6942         estimate D2E/DX2                !
 ! A223  A(60,62,64)           108.6966         estimate D2E/DX2                !
 ! A224  A(60,62,94)           112.3209         estimate D2E/DX2                !
 ! A225  A(64,62,94)           110.3532         estimate D2E/DX2                !
 ! A226  A(61,63,64)           125.1054         estimate D2E/DX2                !
 ! A227  A(61,63,65)           111.5736         estimate D2E/DX2                !
 ! A228  A(64,63,65)           120.8778         estimate D2E/DX2                !
 ! A229  A(62,64,63)           116.6285         estimate D2E/DX2                !
 ! A230  A(62,64,66)           123.1526         estimate D2E/DX2                !
 ! A231  A(63,64,66)           118.8713         estimate D2E/DX2                !
 ! A232  A(27,65,63)           111.1374         estimate D2E/DX2                !
 ! A233  A(27,65,67)           125.0824         estimate D2E/DX2                !
 ! A234  A(63,65,67)           121.168          estimate D2E/DX2                !
 ! A235  A(28,66,64)           118.0472         estimate D2E/DX2                !
 ! A236  A(28,66,68)           120.9629         estimate D2E/DX2                !
 ! A237  A(64,66,68)           120.2347         estimate D2E/DX2                !
 ! A238  A(65,67,68)           118.5681         estimate D2E/DX2                !
 ! A239  A(65,67,69)           116.1767         estimate D2E/DX2                !
 ! A240  A(68,67,69)           123.9378         estimate D2E/DX2                !
 ! A241  A(66,68,67)           120.2446         estimate D2E/DX2                !
 ! A242  A(66,68,70)           120.5622         estimate D2E/DX2                !
 ! A243  A(67,68,70)           118.5357         estimate D2E/DX2                !
 ! A244  A(31,69,67)           106.9802         estimate D2E/DX2                !
 ! A245  A(31,69,71)           100.7132         estimate D2E/DX2                !
 ! A246  A(31,69,92)           113.2595         estimate D2E/DX2                !
 ! A247  A(67,69,71)           111.8671         estimate D2E/DX2                !
 ! A248  A(67,69,92)           110.3509         estimate D2E/DX2                !
 ! A249  A(71,69,92)           113.2062         estimate D2E/DX2                !
 ! A250  A(32,70,68)           108.9683         estimate D2E/DX2                !
 ! A251  A(32,70,72)           101.1503         estimate D2E/DX2                !
 ! A252  A(32,70,86)           113.8794         estimate D2E/DX2                !
 ! A253  A(68,70,72)           110.7134         estimate D2E/DX2                !
 ! A254  A(68,70,86)           109.135          estimate D2E/DX2                !
 ! A255  A(72,70,86)           112.7638         estimate D2E/DX2                !
 ! A256  A(69,71,72)           121.2053         estimate D2E/DX2                !
 ! A257  A(69,71,73)           110.6108         estimate D2E/DX2                !
 ! A258  A(72,71,73)           121.7821         estimate D2E/DX2                !
 ! A259  A(70,72,71)           124.1718         estimate D2E/DX2                !
 ! A260  A(70,72,74)           109.4146         estimate D2E/DX2                !
 ! A261  A(71,72,74)           120.5921         estimate D2E/DX2                !
 ! A262  A(33,73,71)           100.7058         estimate D2E/DX2                !
 ! A263  A(33,73,75)           109.5063         estimate D2E/DX2                !
 ! A264  A(33,73,104)          109.8651         estimate D2E/DX2                !
 ! A265  A(71,73,75)           113.6093         estimate D2E/DX2                !
 ! A266  A(71,73,104)          111.5674         estimate D2E/DX2                !
 ! A267  A(75,73,104)          111.0836         estimate D2E/DX2                !
 ! A268  A(34,74,72)           108.6375         estimate D2E/DX2                !
 ! A269  A(34,74,76)           119.1159         estimate D2E/DX2                !
 ! A270  A(72,74,76)           119.8586         estimate D2E/DX2                !
 ! A271  A(73,75,76)           122.0373         estimate D2E/DX2                !
 ! A272  A(73,75,77)           122.7662         estimate D2E/DX2                !
 ! A273  A(76,75,77)           111.6957         estimate D2E/DX2                !
 ! A274  A(74,76,75)           121.1388         estimate D2E/DX2                !
 ! A275  A(74,76,78)           121.3213         estimate D2E/DX2                !
 ! A276  A(75,76,78)           112.8555         estimate D2E/DX2                !
 ! A277  A(37,77,75)           113.1893         estimate D2E/DX2                !
 ! A278  A(37,77,81)           110.5608         estimate D2E/DX2                !
 ! A279  A(37,77,101)          108.0485         estimate D2E/DX2                !
 ! A280  A(75,77,81)           101.3304         estimate D2E/DX2                !
 ! A281  A(75,77,101)          111.9569         estimate D2E/DX2                !
 ! A282  A(81,77,101)          111.718          estimate D2E/DX2                !
 ! A283  A(38,78,76)           112.6338         estimate D2E/DX2                !
 ! A284  A(38,78,81)           111.7918         estimate D2E/DX2                !
 ! A285  A(38,78,102)          108.5173         estimate D2E/DX2                !
 ! A286  A(76,78,81)           100.4409         estimate D2E/DX2                !
 ! A287  A(76,78,102)          111.5172         estimate D2E/DX2                !
 ! A288  A(81,78,102)          111.8424         estimate D2E/DX2                !
 ! A289  A(39,79,40)           107.7747         estimate D2E/DX2                !
 ! A290  A(39,79,82)           111.653          estimate D2E/DX2                !
 ! A291  A(39,79,100)          111.3137         estimate D2E/DX2                !
 ! A292  A(40,79,82)           100.3586         estimate D2E/DX2                !
 ! A293  A(40,79,100)          112.66           estimate D2E/DX2                !
 ! A294  A(82,79,100)          112.5368         estimate D2E/DX2                !
 ! A295  A(41,80,42)           109.1145         estimate D2E/DX2                !
 ! A296  A(41,80,82)           100.091          estimate D2E/DX2                !
 ! A297  A(41,80,87)           111.8456         estimate D2E/DX2                !
 ! A298  A(42,80,82)           112.2406         estimate D2E/DX2                !
 ! A299  A(42,80,87)           110.4664         estimate D2E/DX2                !
 ! A300  A(82,80,87)           112.6631         estimate D2E/DX2                !
 ! A301  A(77,81,78)           111.8713         estimate D2E/DX2                !
 ! A302  A(77,81,82)           122.7654         estimate D2E/DX2                !
 ! A303  A(78,81,82)           122.5966         estimate D2E/DX2                !
 ! A304  A(79,82,80)           111.8358         estimate D2E/DX2                !
 ! A305  A(79,82,81)           122.0826         estimate D2E/DX2                !
 ! A306  A(80,82,81)           122.1989         estimate D2E/DX2                !
 ! A307  A(55,83,57)           119.5512         estimate D2E/DX2                !
 ! A308  A(55,83,84)           117.42           estimate D2E/DX2                !
 ! A309  A(57,83,84)           119.8158         estimate D2E/DX2                !
 ! A310  A(56,84,58)           117.4366         estimate D2E/DX2                !
 ! A311  A(56,84,83)           122.0244         estimate D2E/DX2                !
 ! A312  A(58,84,83)           118.8425         estimate D2E/DX2                !
 ! D1    D(17,1,5,9)            22.0044         estimate D2E/DX2                !
 ! D2    D(17,1,5,29)         -145.1329         estimate D2E/DX2                !
 ! D3    D(23,1,5,9)           134.0939         estimate D2E/DX2                !
 ! D4    D(23,1,5,29)          -33.0434         estimate D2E/DX2                !
 ! D5    D(95,1,5,9)          -102.6128         estimate D2E/DX2                !
 ! D6    D(95,1,5,29)           90.2499         estimate D2E/DX2                !
 ! D7    D(5,1,17,15)          -24.2862         estimate D2E/DX2                !
 ! D8    D(5,1,17,19)          126.8478         estimate D2E/DX2                !
 ! D9    D(23,1,17,15)        -142.3465         estimate D2E/DX2                !
 ! D10   D(23,1,17,19)           8.7874         estimate D2E/DX2                !
 ! D11   D(95,1,17,15)          98.3326         estimate D2E/DX2                !
 ! D12   D(95,1,17,19)        -110.5335         estimate D2E/DX2                !
 ! D13   D(5,1,23,21)         -132.5888         estimate D2E/DX2                !
 ! D14   D(5,1,23,25)           29.1406         estimate D2E/DX2                !
 ! D15   D(17,1,23,21)         -13.2954         estimate D2E/DX2                !
 ! D16   D(17,1,23,25)         148.434          estimate D2E/DX2                !
 ! D17   D(95,1,23,21)         106.1287         estimate D2E/DX2                !
 ! D18   D(95,1,23,25)         -92.1419         estimate D2E/DX2                !
 ! D19   D(43,2,6,10)         -137.3643         estimate D2E/DX2                !
 ! D20   D(43,2,6,15)           10.7484         estimate D2E/DX2                !
 ! D21   D(44,2,6,10)          -23.3704         estimate D2E/DX2                !
 ! D22   D(44,2,6,15)          124.7423         estimate D2E/DX2                !
 ! D23   D(91,2,6,10)          100.7869         estimate D2E/DX2                !
 ! D24   D(91,2,6,15)         -111.1004         estimate D2E/DX2                !
 ! D25   D(6,2,43,13)           -7.6519         estimate D2E/DX2                !
 ! D26   D(6,2,43,39)          149.5038         estimate D2E/DX2                !
 ! D27   D(44,2,43,13)        -123.478          estimate D2E/DX2                !
 ! D28   D(44,2,43,39)          33.6777         estimate D2E/DX2                !
 ! D29   D(91,2,43,13)         114.1774         estimate D2E/DX2                !
 ! D30   D(91,2,43,39)         -88.6668         estimate D2E/DX2                !
 ! D31   D(6,2,44,40)         -147.5616         estimate D2E/DX2                !
 ! D32   D(6,2,44,47)           20.1478         estimate D2E/DX2                !
 ! D33   D(43,2,44,40)         -37.6081         estimate D2E/DX2                !
 ! D34   D(43,2,44,47)         130.1013         estimate D2E/DX2                !
 ! D35   D(91,2,44,40)          86.5758         estimate D2E/DX2                !
 ! D36   D(91,2,44,47)        -105.7147         estimate D2E/DX2                !
 ! D37   D(18,3,7,12)          -18.7559         estimate D2E/DX2                !
 ! D38   D(18,3,7,30)          136.5012         estimate D2E/DX2                !
 ! D39   D(26,3,7,12)         -138.0341         estimate D2E/DX2                !
 ! D40   D(26,3,7,30)           17.223          estimate D2E/DX2                !
 ! D41   D(99,3,7,12)          103.6606         estimate D2E/DX2                !
 ! D42   D(99,3,7,30)         -101.0823         estimate D2E/DX2                !
 ! D43   D(7,3,18,16)           27.9545         estimate D2E/DX2                !
 ! D44   D(7,3,18,20)         -134.7354         estimate D2E/DX2                !
 ! D45   D(26,3,18,16)         140.6856         estimate D2E/DX2                !
 ! D46   D(26,3,18,20)         -22.0043         estimate D2E/DX2                !
 ! D47   D(99,3,18,16)         -95.3451         estimate D2E/DX2                !
 ! D48   D(99,3,18,20)         101.965          estimate D2E/DX2                !
 ! D49   D(7,3,26,24)          140.2021         estimate D2E/DX2                !
 ! D50   D(7,3,26,28)          -20.8972         estimate D2E/DX2                !
 ! D51   D(18,3,26,24)          20.4439         estimate D2E/DX2                !
 ! D52   D(18,3,26,28)        -140.6554         estimate D2E/DX2                !
 ! D53   D(99,3,26,24)        -102.1356         estimate D2E/DX2                !
 ! D54   D(99,3,26,28)          96.7651         estimate D2E/DX2                !
 ! D55   D(45,4,8,11)           25.2241         estimate D2E/DX2                !
 ! D56   D(45,4,8,16)         -125.2084         estimate D2E/DX2                !
 ! D57   D(46,4,8,11)          140.7309         estimate D2E/DX2                !
 ! D58   D(46,4,8,16)           -9.7015         estimate D2E/DX2                !
 ! D59   D(88,4,8,11)          -98.4983         estimate D2E/DX2                !
 ! D60   D(88,4,8,16)          111.0693         estimate D2E/DX2                !
 ! D61   D(8,4,45,41)          143.7783         estimate D2E/DX2                !
 ! D62   D(8,4,45,48)          -24.1973         estimate D2E/DX2                !
 ! D63   D(46,4,45,41)          33.9283         estimate D2E/DX2                !
 ! D64   D(46,4,45,48)        -134.0473         estimate D2E/DX2                !
 ! D65   D(88,4,45,41)         -90.4748         estimate D2E/DX2                !
 ! D66   D(88,4,45,48)         101.5495         estimate D2E/DX2                !
 ! D67   D(8,4,46,14)           11.4317         estimate D2E/DX2                !
 ! D68   D(8,4,46,42)         -144.9171         estimate D2E/DX2                !
 ! D69   D(45,4,46,14)         126.6664         estimate D2E/DX2                !
 ! D70   D(45,4,46,42)         -29.6824         estimate D2E/DX2                !
 ! D71   D(88,4,46,14)        -110.2264         estimate D2E/DX2                !
 ! D72   D(88,4,46,42)          93.4248         estimate D2E/DX2                !
 ! D73   D(1,5,9,13)            -9.5707         estimate D2E/DX2                !
 ! D74   D(1,5,9,35)          -169.0491         estimate D2E/DX2                !
 ! D75   D(29,5,9,13)          157.4389         estimate D2E/DX2                !
 ! D76   D(29,5,9,35)           -2.0395         estimate D2E/DX2                !
 ! D77   D(1,5,29,27)            9.92           estimate D2E/DX2                !
 ! D78   D(1,5,29,31)          174.8928         estimate D2E/DX2                !
 ! D79   D(9,5,29,27)         -157.371          estimate D2E/DX2                !
 ! D80   D(9,5,29,31)            7.6018         estimate D2E/DX2                !
 ! D81   D(2,6,10,49)            0.1227         estimate D2E/DX2                !
 ! D82   D(2,6,10,53)          145.6473         estimate D2E/DX2                !
 ! D83   D(15,6,10,49)        -145.1051         estimate D2E/DX2                !
 ! D84   D(15,6,10,53)           0.4195         estimate D2E/DX2                !
 ! D85   D(2,6,15,13)          -10.2404         estimate D2E/DX2                !
 ! D86   D(2,6,15,17)         -154.5579         estimate D2E/DX2                !
 ! D87   D(10,6,15,13)         139.088          estimate D2E/DX2                !
 ! D88   D(10,6,15,17)          -5.2295         estimate D2E/DX2                !
 ! D89   D(3,7,12,14)            0.9257         estimate D2E/DX2                !
 ! D90   D(3,7,12,36)          155.9341         estimate D2E/DX2                !
 ! D91   D(30,7,12,14)        -151.9488         estimate D2E/DX2                !
 ! D92   D(30,7,12,36)           3.0597         estimate D2E/DX2                !
 ! D93   D(3,7,30,28)           -8.0312         estimate D2E/DX2                !
 ! D94   D(3,7,30,32)         -163.1673         estimate D2E/DX2                !
 ! D95   D(12,7,30,28)         148.3809         estimate D2E/DX2                !
 ! D96   D(12,7,30,32)          -6.7553         estimate D2E/DX2                !
 ! D97   D(4,8,11,50)            3.0952         estimate D2E/DX2                !
 ! D98   D(4,8,11,54)         -149.1577         estimate D2E/DX2                !
 ! D99   D(16,8,11,50)         151.2415         estimate D2E/DX2                !
 ! D100  D(16,8,11,54)          -1.0114         estimate D2E/DX2                !
 ! D101  D(4,8,16,14)            4.786          estimate D2E/DX2                !
 ! D102  D(4,8,16,18)          154.1104         estimate D2E/DX2                !
 ! D103  D(11,8,16,14)        -146.7585         estimate D2E/DX2                !
 ! D104  D(11,8,16,18)           2.5658         estimate D2E/DX2                !
 ! D105  D(5,9,13,15)           -2.9634         estimate D2E/DX2                !
 ! D106  D(5,9,13,43)         -148.3813         estimate D2E/DX2                !
 ! D107  D(35,9,13,15)         157.4172         estimate D2E/DX2                !
 ! D108  D(35,9,13,43)          11.9993         estimate D2E/DX2                !
 ! D109  D(5,9,35,33)           -8.1068         estimate D2E/DX2                !
 ! D110  D(5,9,35,37)          153.1893         estimate D2E/DX2                !
 ! D111  D(13,9,35,33)        -168.1501         estimate D2E/DX2                !
 ! D112  D(13,9,35,37)          -6.8541         estimate D2E/DX2                !
 ! D113  D(6,10,49,47)          26.1961         estimate D2E/DX2                !
 ! D114  D(6,10,49,51)         141.9248         estimate D2E/DX2                !
 ! D115  D(6,10,49,90)         -96.4347         estimate D2E/DX2                !
 ! D116  D(53,10,49,47)       -121.9762         estimate D2E/DX2                !
 ! D117  D(53,10,49,51)         -6.2474         estimate D2E/DX2                !
 ! D118  D(53,10,49,90)        115.3931         estimate D2E/DX2                !
 ! D119  D(6,10,53,19)           4.5717         estimate D2E/DX2                !
 ! D120  D(6,10,53,55)        -142.8952         estimate D2E/DX2                !
 ! D121  D(49,10,53,19)        154.184          estimate D2E/DX2                !
 ! D122  D(49,10,53,55)          6.7171         estimate D2E/DX2                !
 ! D123  D(8,11,50,48)         -31.9654         estimate D2E/DX2                !
 ! D124  D(8,11,50,52)        -148.7689         estimate D2E/DX2                !
 ! D125  D(8,11,50,89)          89.6437         estimate D2E/DX2                !
 ! D126  D(54,11,50,48)        121.9412         estimate D2E/DX2                !
 ! D127  D(54,11,50,52)          5.1377         estimate D2E/DX2                !
 ! D128  D(54,11,50,89)       -116.4497         estimate D2E/DX2                !
 ! D129  D(8,11,54,20)           0.0073         estimate D2E/DX2                !
 ! D130  D(8,11,54,56)         159.0748         estimate D2E/DX2                !
 ! D131  D(50,11,54,20)       -154.7568         estimate D2E/DX2                !
 ! D132  D(50,11,54,56)          4.3107         estimate D2E/DX2                !
 ! D133  D(7,12,14,16)           8.2818         estimate D2E/DX2                !
 ! D134  D(7,12,14,46)         152.9327         estimate D2E/DX2                !
 ! D135  D(36,12,14,16)       -147.4622         estimate D2E/DX2                !
 ! D136  D(36,12,14,46)         -2.8113         estimate D2E/DX2                !
 ! D137  D(7,12,36,34)           4.4611         estimate D2E/DX2                !
 ! D138  D(7,12,36,38)        -151.9507         estimate D2E/DX2                !
 ! D139  D(14,12,36,34)        159.2176         estimate D2E/DX2                !
 ! D140  D(14,12,36,38)          2.8058         estimate D2E/DX2                !
 ! D141  D(9,13,15,6)         -144.0385         estimate D2E/DX2                !
 ! D142  D(9,13,15,17)           1.0672         estimate D2E/DX2                !
 ! D143  D(43,13,15,6)           5.1            estimate D2E/DX2                !
 ! D144  D(43,13,15,17)        150.2057         estimate D2E/DX2                !
 ! D145  D(9,13,43,2)          151.1545         estimate D2E/DX2                !
 ! D146  D(9,13,43,39)          -6.9626         estimate D2E/DX2                !
 ! D147  D(15,13,43,2)           1.9756         estimate D2E/DX2                !
 ! D148  D(15,13,43,39)       -156.1415         estimate D2E/DX2                !
 ! D149  D(12,14,16,8)         151.4971         estimate D2E/DX2                !
 ! D150  D(12,14,16,18)          2.3447         estimate D2E/DX2                !
 ! D151  D(46,14,16,8)           2.9125         estimate D2E/DX2                !
 ! D152  D(46,14,16,18)       -146.2398         estimate D2E/DX2                !
 ! D153  D(12,14,46,4)        -157.6089         estimate D2E/DX2                !
 ! D154  D(12,14,46,42)         -0.0934         estimate D2E/DX2                !
 ! D155  D(16,14,46,4)          -9.3609         estimate D2E/DX2                !
 ! D156  D(16,14,46,42)        148.1546         estimate D2E/DX2                !
 ! D157  D(6,15,17,1)          154.1213         estimate D2E/DX2                !
 ! D158  D(6,15,17,19)           4.9975         estimate D2E/DX2                !
 ! D159  D(13,15,17,1)          13.7249         estimate D2E/DX2                !
 ! D160  D(13,15,17,19)       -135.3989         estimate D2E/DX2                !
 ! D161  D(8,16,18,3)         -166.3731         estimate D2E/DX2                !
 ! D162  D(8,16,18,20)          -3.0015         estimate D2E/DX2                !
 ! D163  D(14,16,18,3)         -21.5853         estimate D2E/DX2                !
 ! D164  D(14,16,18,20)        141.7863         estimate D2E/DX2                !
 ! D165  D(1,17,19,21)          -1.4077         estimate D2E/DX2                !
 ! D166  D(1,17,19,53)        -151.9075         estimate D2E/DX2                !
 ! D167  D(15,17,19,21)        150.5351         estimate D2E/DX2                !
 ! D168  D(15,17,19,53)          0.0352         estimate D2E/DX2                !
 ! D169  D(3,18,20,22)           2.6216         estimate D2E/DX2                !
 ! D170  D(3,18,20,54)         164.4098         estimate D2E/DX2                !
 ! D171  D(16,18,20,22)       -159.8718         estimate D2E/DX2                !
 ! D172  D(16,18,20,54)          1.9164         estimate D2E/DX2                !
 ! D173  D(17,19,21,23)         -6.6817         estimate D2E/DX2                !
 ! D174  D(17,19,21,57)       -125.061          estimate D2E/DX2                !
 ! D175  D(17,19,21,97)        112.4476         estimate D2E/DX2                !
 ! D176  D(53,19,21,23)        143.0019         estimate D2E/DX2                !
 ! D177  D(53,19,21,57)         24.6226         estimate D2E/DX2                !
 ! D178  D(53,19,21,97)        -97.8688         estimate D2E/DX2                !
 ! D179  D(17,19,53,10)         -4.819          estimate D2E/DX2                !
 ! D180  D(17,19,53,55)        139.1453         estimate D2E/DX2                !
 ! D181  D(21,19,53,10)       -152.2742         estimate D2E/DX2                !
 ! D182  D(21,19,53,55)         -8.3099         estimate D2E/DX2                !
 ! D183  D(18,20,22,24)         18.5547         estimate D2E/DX2                !
 ! D184  D(18,20,22,58)        129.148          estimate D2E/DX2                !
 ! D185  D(18,20,22,98)       -107.2006         estimate D2E/DX2                !
 ! D186  D(54,20,22,24)       -143.5278         estimate D2E/DX2                !
 ! D187  D(54,20,22,58)        -32.9345         estimate D2E/DX2                !
 ! D188  D(54,20,22,98)         90.7168         estimate D2E/DX2                !
 ! D189  D(18,20,54,11)         -0.4704         estimate D2E/DX2                !
 ! D190  D(18,20,54,56)       -156.384          estimate D2E/DX2                !
 ! D191  D(22,20,54,11)        161.9004         estimate D2E/DX2                !
 ! D192  D(22,20,54,56)          5.9868         estimate D2E/DX2                !
 ! D193  D(19,21,23,1)          12.6034         estimate D2E/DX2                !
 ! D194  D(19,21,23,25)       -149.0695         estimate D2E/DX2                !
 ! D195  D(57,21,23,1)         131.5408         estimate D2E/DX2                !
 ! D196  D(57,21,23,25)        -30.1321         estimate D2E/DX2                !
 ! D197  D(97,21,23,1)        -107.2094         estimate D2E/DX2                !
 ! D198  D(97,21,23,25)         91.1177         estimate D2E/DX2                !
 ! D199  D(19,21,57,59)        142.6416         estimate D2E/DX2                !
 ! D200  D(19,21,57,83)        -25.5472         estimate D2E/DX2                !
 ! D201  D(23,21,57,59)         30.2418         estimate D2E/DX2                !
 ! D202  D(23,21,57,83)       -137.947          estimate D2E/DX2                !
 ! D203  D(97,21,57,59)        -92.6933         estimate D2E/DX2                !
 ! D204  D(97,21,57,83)         99.1178         estimate D2E/DX2                !
 ! D205  D(20,22,24,26)        -20.8562         estimate D2E/DX2                !
 ! D206  D(20,22,24,62)        138.5147         estimate D2E/DX2                !
 ! D207  D(58,22,24,26)       -136.857          estimate D2E/DX2                !
 ! D208  D(58,22,24,62)         22.5139         estimate D2E/DX2                !
 ! D209  D(98,22,24,26)        104.1421         estimate D2E/DX2                !
 ! D210  D(98,22,24,62)        -96.487          estimate D2E/DX2                !
 ! D211  D(20,22,58,60)       -132.1884         estimate D2E/DX2                !
 ! D212  D(20,22,58,84)         29.4802         estimate D2E/DX2                !
 ! D213  D(24,22,58,60)        -14.1143         estimate D2E/DX2                !
 ! D214  D(24,22,58,84)        147.5543         estimate D2E/DX2                !
 ! D215  D(98,22,58,60)        104.937          estimate D2E/DX2                !
 ! D216  D(98,22,58,84)        -93.3944         estimate D2E/DX2                !
 ! D217  D(1,23,25,27)          -0.5114         estimate D2E/DX2                !
 ! D218  D(1,23,25,61)        -156.2971         estimate D2E/DX2                !
 ! D219  D(21,23,25,27)        159.3386         estimate D2E/DX2                !
 ! D220  D(21,23,25,61)          3.5529         estimate D2E/DX2                !
 ! D221  D(22,24,26,3)           0.9563         estimate D2E/DX2                !
 ! D222  D(22,24,26,28)        159.886          estimate D2E/DX2                !
 ! D223  D(62,24,26,3)        -156.3298         estimate D2E/DX2                !
 ! D224  D(62,24,26,28)          2.5999         estimate D2E/DX2                !
 ! D225  D(22,24,62,60)        -21.9077         estimate D2E/DX2                !
 ! D226  D(22,24,62,64)       -137.154          estimate D2E/DX2                !
 ! D227  D(22,24,62,94)         98.0088         estimate D2E/DX2                !
 ! D228  D(26,24,62,60)        137.9298         estimate D2E/DX2                !
 ! D229  D(26,24,62,64)         22.6836         estimate D2E/DX2                !
 ! D230  D(26,24,62,94)       -102.1536         estimate D2E/DX2                !
 ! D231  D(23,25,27,29)        -23.8206         estimate D2E/DX2                !
 ! D232  D(23,25,27,65)       -137.5899         estimate D2E/DX2                !
 ! D233  D(23,25,27,93)        101.72           estimate D2E/DX2                !
 ! D234  D(61,25,27,29)        134.2033         estimate D2E/DX2                !
 ! D235  D(61,25,27,65)         20.434          estimate D2E/DX2                !
 ! D236  D(61,25,27,93)       -100.256          estimate D2E/DX2                !
 ! D237  D(23,25,61,59)         22.1794         estimate D2E/DX2                !
 ! D238  D(23,25,61,63)        137.0205         estimate D2E/DX2                !
 ! D239  D(23,25,61,96)       -103.1716         estimate D2E/DX2                !
 ! D240  D(27,25,61,59)       -135.8671         estimate D2E/DX2                !
[...]
 Alpha virt. eigenvalues --    1.63752   1.63979   1.64313   1.64509   1.64694
 Alpha virt. eigenvalues --    1.65024   1.65153   1.65753   1.65770   1.66167
 Alpha virt. eigenvalues --    1.66277   1.66543   1.66675   1.66834   1.67071
 Alpha virt. eigenvalues --    1.67246   1.67340   1.67591   1.67948   1.68107
 Alpha virt. eigenvalues --    1.68328   1.68414   1.68571   1.68780   1.69182
 Alpha virt. eigenvalues --    1.69451   1.69581   1.69812   1.70058   1.70151
 Alpha virt. eigenvalues --    1.70672   1.70735   1.71049   1.71481   1.71717
 Alpha virt. eigenvalues --    1.71861   1.72137   1.72317   1.72612   1.73010
 Alpha virt. eigenvalues --    1.73190   1.73274   1.73393   1.73761   1.74060
 Alpha virt. eigenvalues --    1.74102   1.74230   1.74414   1.74843   1.74983
 Alpha virt. eigenvalues --    1.75197   1.75376   1.75690   1.75702   1.75937
 Alpha virt. eigenvalues --    1.76185   1.76441   1.76629   1.76947   1.77036
 Alpha virt. eigenvalues --    1.77430   1.77621   1.77753   1.78008   1.78194
 Alpha virt. eigenvalues --    1.78421   1.78689   1.78936   1.79403   1.79597
 Alpha virt. eigenvalues --    1.79780   1.80078   1.80431   1.80521   1.80577
 Alpha virt. eigenvalues --    1.80876   1.81089   1.81144   1.81366   1.81644
 Alpha virt. eigenvalues --    1.81906   1.82026   1.82189   1.82399   1.82732
 Alpha virt. eigenvalues --    1.82881   1.83276   1.83380   1.83608   1.83867
 Alpha virt. eigenvalues --    1.84059   1.84326   1.84765   1.84984   1.85080
 Alpha virt. eigenvalues --    1.85335   1.85911   1.86127   1.86363   1.86663
 Alpha virt. eigenvalues --    1.86924   1.87523   1.87879   1.88028   1.88446
 Alpha virt. eigenvalues --    1.88672   1.88797   1.89128   1.89260   1.89871
 Alpha virt. eigenvalues --    1.90125   1.90449   1.90963   1.91371   1.91550
 Alpha virt. eigenvalues --    1.91970   1.92171   1.92493   1.93130   1.93158
 Alpha virt. eigenvalues --    1.93767   1.93996   1.94203   1.95018   1.95242
 Alpha virt. eigenvalues --    1.95439   1.96008   1.96218   1.96321   1.96959
 Alpha virt. eigenvalues --    1.97226   1.97377   1.97951   1.98176   1.98383
 Alpha virt. eigenvalues --    1.98742   1.99223   1.99628   1.99721   2.00288
 Alpha virt. eigenvalues --    2.00601   2.00794   2.01494   2.01613   2.01817
 Alpha virt. eigenvalues --    2.02130   2.02367   2.02514   2.03173   2.03428
 Alpha virt. eigenvalues --    2.03812   2.04412   2.04909   2.05126   2.05692
 Alpha virt. eigenvalues --    2.06378   2.06589   2.06834   2.07158   2.07357
 Alpha virt. eigenvalues --    2.07660   2.08242   2.08683   2.08909   2.09214
 Alpha virt. eigenvalues --    2.09528   2.10141   2.10255   2.10620   2.10977
 Alpha virt. eigenvalues --    2.11542   2.11676   2.12405   2.12563   2.13140
 Alpha virt. eigenvalues --    2.13571   2.13703   2.13954   2.14544   2.14754
 Alpha virt. eigenvalues --    2.15159   2.15667   2.15886   2.16190   2.16529
 Alpha virt. eigenvalues --    2.17325   2.17660   2.17930   2.18404   2.18594
 Alpha virt. eigenvalues --    2.18829   2.19193   2.19771   2.20028   2.20493
 Alpha virt. eigenvalues --    2.20735   2.20876   2.21197   2.21492   2.22059
 Alpha virt. eigenvalues --    2.22500   2.22991   2.23197   2.23740   2.24171
 Alpha virt. eigenvalues --    2.24344   2.25208   2.25265   2.25765   2.26214
 Alpha virt. eigenvalues --    2.26611   2.27289   2.27695   2.27981   2.28644
 Alpha virt. eigenvalues --    2.28771   2.29113   2.29524   2.30011   2.30385
 Alpha virt. eigenvalues --    2.30947   2.31593   2.31901   2.32202   2.32360
 Alpha virt. eigenvalues --    2.33139   2.33755   2.34192   2.34742   2.35016
 Alpha virt. eigenvalues --    2.35632   2.36478   2.36698   2.37639   2.37908
 Alpha virt. eigenvalues --    2.38085   2.38462   2.38768   2.39737   2.39796
 Alpha virt. eigenvalues --    2.40168   2.41168   2.41585   2.41713   2.41952
 Alpha virt. eigenvalues --    2.42785   2.43035   2.43259   2.43846   2.44374
 Alpha virt. eigenvalues --    2.45001   2.45593   2.45834   2.46119   2.46505
 Alpha virt. eigenvalues --    2.47293   2.47820   2.47994   2.48284   2.48738
 Alpha virt. eigenvalues --    2.49238   2.49783   2.50245   2.50552   2.50704
 Alpha virt. eigenvalues --    2.51265   2.51614   2.51944   2.52489   2.52790
 Alpha virt. eigenvalues --    2.53053   2.53790   2.54027   2.54255   2.54580
 Alpha virt. eigenvalues --    2.54893   2.55701   2.56274   2.56615   2.57022
 Alpha virt. eigenvalues --    2.57280   2.57564   2.57865   2.58114   2.58626
 Alpha virt. eigenvalues --    2.58745   2.59381   2.59814   2.60243   2.60461
 Alpha virt. eigenvalues --    2.60702   2.60830   2.61168   2.61856   2.61941
 Alpha virt. eigenvalues --    2.62098   2.62734   2.63175   2.63293   2.64122
 Alpha virt. eigenvalues --    2.64434   2.64672   2.64731   2.65446   2.65623
 Alpha virt. eigenvalues --    2.66051   2.66490   2.66707   2.67157   2.67498
 Alpha virt. eigenvalues --    2.68059   2.68180   2.68328   2.68764   2.68919
 Alpha virt. eigenvalues --    2.69148   2.70061   2.70123   2.70259   2.70534
 Alpha virt. eigenvalues --    2.70800   2.71334   2.71569   2.71974   2.72413
 Alpha virt. eigenvalues --    2.72530   2.72937   2.73251   2.73735   2.74126
 Alpha virt. eigenvalues --    2.74273   2.74890   2.75106   2.75662   2.75823
 Alpha virt. eigenvalues --    2.76624   2.77082   2.77179   2.77528   2.77973
 Alpha virt. eigenvalues --    2.78384   2.78827   2.79376   2.79662   2.80407
 Alpha virt. eigenvalues --    2.80878   2.81323   2.81585   2.82284   2.82555
 Alpha virt. eigenvalues --    2.82985   2.83339   2.83799   2.84014   2.84615
 Alpha virt. eigenvalues --    2.85000   2.86010   2.86231   2.86552   2.87181
 Alpha virt. eigenvalues --    2.87578   2.88481   2.88883   2.89506   2.89797
 Alpha virt. eigenvalues --    2.90859   2.91440   2.92272   2.92782   2.93521
 Alpha virt. eigenvalues --    2.94208   2.94654   2.94939   2.95965   2.97766
 Alpha virt. eigenvalues --    2.98455   2.98992   3.00243   3.00862   3.02562
 Alpha virt. eigenvalues --    3.04658   3.05042   3.06869   3.07216   3.07520
 Alpha virt. eigenvalues --    3.09396   3.09825   3.11049   3.12245   3.13728
 Alpha virt. eigenvalues --    3.14532   3.15741   3.16445   3.17812   3.18203
 Alpha virt. eigenvalues --    3.18691   3.19965   3.20358   3.22109   3.23575
 Alpha virt. eigenvalues --    3.26229   3.26646   3.27883   3.30166   3.34081
 Alpha virt. eigenvalues --    3.35487   3.37411   3.39220   3.40626   3.41360
 Alpha virt. eigenvalues --    3.42478   3.45976   3.46912   3.49468   4.01180
 Alpha virt. eigenvalues --    4.02507   4.02693   4.03039   4.03642   4.05291
 Alpha virt. eigenvalues --    4.06498   4.06682   4.07300   4.07755   4.08173
 Alpha virt. eigenvalues --    4.08714   4.09389   4.09515   4.11450   4.12758
 Alpha virt. eigenvalues --    4.13209   4.13917   4.14273   4.14564   4.15257
 Alpha virt. eigenvalues --    4.15920   4.16585   4.17552   4.17794   4.18965
 Alpha virt. eigenvalues --    4.19367   4.20010   4.20350   4.21087   4.21349
 Alpha virt. eigenvalues --    4.22627   4.23188   4.24017   4.24576   4.24983
 Alpha virt. eigenvalues --    4.25408   4.25852   4.26056   4.26780   4.27157
 Alpha virt. eigenvalues --    4.27326   4.27977   4.28277   4.28921   4.29003
 Alpha virt. eigenvalues --    4.29273   4.29978   4.30060   4.30242   4.31768
 Alpha virt. eigenvalues --    4.32555   4.33739   4.34569   4.35003   4.36465
 Alpha virt. eigenvalues --    4.37186   4.37554   4.38340   4.38761   4.39683
 Alpha virt. eigenvalues --    4.40732   4.41183   4.41723   4.41870   4.42503
 Alpha virt. eigenvalues --    4.43545   4.43851   4.44518   4.46260   4.47554
 Alpha virt. eigenvalues --    4.48690   4.49302   4.49890   4.51203   4.52790
 Alpha virt. eigenvalues --    4.54113   4.55046   4.55608   4.57725   4.59189
 Alpha virt. eigenvalues --    4.61904   4.62253   4.63873   4.64110   4.66557
 Alpha virt. eigenvalues --    4.68082   4.68613   4.73183   4.76192   4.79271
 Alpha virt. eigenvalues --    4.79707   4.81653   4.82438   4.84774   4.86740
 Alpha virt. eigenvalues --    4.92767   4.94461   4.95312   4.97993   5.00032
 Alpha virt. eigenvalues --    5.04109   5.07562   5.14769
          Condensed to atoms (all electrons):
 Mulliken charges:
               1
     1  C   -0.360067
     2  C   -0.389653
     3  C   -0.357233
     4  C   -0.394105
     5  C    0.094927
     6  C    0.093088
     7  C    0.082002
     8  C    0.083540
     9  C    0.064215
    10  C    0.099460
    11  C    0.129047
    12  C    0.059493
    13  C   -0.013715
    14  C   -0.015134
    15  C    0.036469
    16  C    0.045940
    17  C    0.105559
    18  C    0.117077
    19  C    0.106326
    20  C    0.149195
    21  C   -0.359222
    22  C   -0.382226
    23  C    0.180061
    24  C    0.178872
    25  C    0.189343
    26  C    0.179940
    27  C   -0.380906
    28  C   -0.374712
    29  C    0.149679
    30  C    0.134802
    31  C    0.124609
    32  C    0.092349
    33  C    0.058561
    34  C   -0.003125
    35  C    0.084057
    36  C    0.073333
    37  C    0.080552
    38  C    0.086020
    39  C    0.155408
    40  C    0.115625
    41  C    0.113711
    42  C    0.155053
    43  C    0.087320
    44  C    0.145088
    45  C    0.147942
    46  C    0.086399
    47  C    0.117748
    48  C    0.126673
    49  C   -0.385411
    50  C   -0.370610
    51  C    0.119324
    52  C    0.163326
    53  C    0.040078
    54  C    0.109806
    55  C   -0.024620
    56  C   -0.364297
    57  C    0.095004
    58  C    0.117916
    59  C    0.147889
    60  C    0.119871
    61  C   -0.384353
    62  C   -0.380373
    63  C    0.115494
    64  C    0.144467
    65  C    0.117571
    66  C    0.125126
    67  C    0.140243
    68  C    0.122970
    69  C   -0.371841
    70  C   -0.386582
    71  C    0.163890
    72  C    0.112090
    73  C   -0.339436
    74  C    0.014908
    75  C    0.185149
    76  C    0.126710
    77  C   -0.337108
    78  C   -0.359008
    79  C   -0.376306
    80  C   -0.378218
    81  C    0.184772
    82  C    0.182566
    83  C    0.091984
    84  C    0.113803
    85  Cl   0.034332
    86  Cl   0.030884
    87  Cl   0.030908
    88  Cl   0.036972
    89  Cl   0.027291
    90  Cl   0.036714
    91  Cl   0.036439
    92  Cl   0.033699
    93  Cl   0.040015
    94  Cl   0.032376
    95  Cl   0.018471
    96  Cl   0.038529
    97  Cl   0.011469
    98  Cl   0.029769
    99  Cl  -0.002183
   100  Cl   0.037163
   101  Cl  -0.000590
   102  Cl   0.017079
   103  Cl   0.008489
   104  Cl   0.005996
 Sum of Mulliken charges =  -0.00000
 Mulliken charges with hydrogens summed into heavy atoms:
               1
     1  C   -0.360067
     2  C   -0.389653
     3  C   -0.357233
     4  C   -0.394105
     5  C    0.094927
     6  C    0.093088
     7  C    0.082002
     8  C    0.083540
     9  C    0.064215
    10  C    0.099460
    11  C    0.129047
    12  C    0.059493
    13  C   -0.013715
    14  C   -0.015134
    15  C    0.036469
    16  C    0.045940
    17  C    0.105559
    18  C    0.117077
    19  C    0.106326
    20  C    0.149195
    21  C   -0.359222
    22  C   -0.382226
    23  C    0.180061
    24  C    0.178872
    25  C    0.189343
    26  C    0.179940
    27  C   -0.380906
    28  C   -0.374712
    29  C    0.149679
    30  C    0.134802
    31  C    0.124609
    32  C    0.092349
    33  C    0.058561
    34  C   -0.003125
    35  C    0.084057
    36  C    0.073333
    37  C    0.080552
    38  C    0.086020
    39  C    0.155408
    40  C    0.115625
    41  C    0.113711
    42  C    0.155053
    43  C    0.087320
    44  C    0.145088
    45  C    0.147942
    46  C    0.086399
    47  C    0.117748
    48  C    0.126673
    49  C   -0.385411
    50  C   -0.370610
    51  C    0.119324
    52  C    0.163326
    53  C    0.040078
    54  C    0.109806
    55  C   -0.024620
    56  C   -0.364297
    57  C    0.095004
    58  C    0.117916
    59  C    0.147889
    60  C    0.119871
    61  C   -0.384353
    62  C   -0.380373
    63  C    0.115494
    64  C    0.144467
    65  C    0.117571
    66  C    0.125126
    67  C    0.140243
    68  C    0.122970
    69  C   -0.371841
    70  C   -0.386582
    71  C    0.163890
    72  C    0.112090
    73  C   -0.339436
    74  C    0.014908
    75  C    0.185149
    76  C    0.126710
    77  C   -0.337108
    78  C   -0.359008
    79  C   -0.376306
    80  C   -0.378218
    81  C    0.184772
    82  C    0.182566
    83  C    0.091984
    84  C    0.113803
    85  Cl   0.034332
    86  Cl   0.030884
    87  Cl   0.030908
    88  Cl   0.036972
    89  Cl   0.027291
    90  Cl   0.036714
    91  Cl   0.036439
    92  Cl   0.033699
    93  Cl   0.040015
    94  Cl   0.032376
    95  Cl   0.018471
    96  Cl   0.038529
    97  Cl   0.011469
    98  Cl   0.029769
    99  Cl  -0.002183
   100  Cl   0.037163
   101  Cl  -0.000590
   102  Cl   0.017079
   103  Cl   0.008489
   104  Cl   0.005996
 Electronic spatial extent (au):  <R**2>=          82168.4581
 Charge=              0.0000 electrons
 Dipole moment (field-independent basis, Debye):
    X=             -0.9947    Y=             -0.6381    Z=              0.5459  Tot=              1.3018
 Quadrupole moment (field-independent basis, Debye-Ang):
   XX=           -766.0585   YY=           -761.6174   ZZ=           -733.7621
   XY=              5.6137   XZ=             -2.0806   YZ=             -6.7630
 Traceless Quadrupole moment (field-independent basis, Debye-Ang):
   XX=            -12.2458   YY=             -7.8047   ZZ=             20.0505
   XY=              5.6137   XZ=             -2.0806   YZ=             -6.7630
 Octapole moment (field-independent basis, Debye-Ang**2):
  XXX=             37.7323  YYY=            -31.6465  ZZZ=             -6.6505  XYY=             27.3075
  XXY=            -16.1501  XXZ=             13.3677  XZZ=            -58.8194  YZZ=             22.2310
  YYZ=             19.6816  XYZ=            -21.2479
 Hexadecapole moment (field-independent basis, Debye-Ang**3):
 XXXX=         -41197.1629 YYYY=         -40088.1032 ZZZZ=         -33235.3856 XXXY=            163.1471
 XXXZ=             -2.2749 YYYX=             63.2787 YYYZ=              5.1018 ZZZX=            -10.5547
 ZZZY=             -8.8942 XXYY=         -13584.0093 XXZZ=         -12549.0925 YYZZ=         -12001.4602
 XXYZ=             38.0128 YYXZ=             20.7618 ZZXY=             52.9541
 N-N= 3.222743646277D+04 E-N=-9.371306920112D+04  KE= 1.234697211713D+04
 Leave Link  601 at Thu Jun 30 04:27:07 2022, MaxMem=  1342177280 cpu:              19.7 elap:               1.1
 (Enter /home/mkliu/g16/l9999.exe)
 1\1\GINC-NODE03\FOpt\RB3LYP\6-31G(d,p)\C84Cl20\MKLIU\30-Jun-2022\0\\#P
  opt b3lyp/6-31G(d, p) empiricaldispersion=GD3\\force\\0,1\C,8.4140253
 407,18.6449219797,10.8137157747\C,12.5890329468,19.9778058391,8.883029
 4799\C,8.2266487415,27.1260702993,10.6005263523\C,12.4906156172,25.753
 9174999,8.9211506027\C,8.0114301892,19.1790928271,9.440748129\C,12.068
 3514407,19.4899138167,10.216169487\C,7.9594755076,26.8126667545,9.1462
 679182\C,11.8678961366,26.1642372836,10.2344469489\C,8.9868831284,19.2
 934294661,8.382197852\C,12.335247186,20.1363970182,11.3922835833\C,12.
 1169318889,25.4962813646,11.4098023642\C,8.9720703199,26.6135747741,8.
 1605602908\C,10.3638442723,19.1007562376,8.6839249612\C,10.3084629725,
 26.6764874015,8.603778948\C,10.8109025557,18.858018991,10.036230062\C,
 10.6191527617,26.7644916275,10.0357712956\C,9.8871713919,18.7844768822
 ,11.0725248183\C,9.6262335617,26.7512535361,11.0216953354\C,10.1496866
 109,19.4339160674,12.2740208539\C,9.8819491838,26.0576746319,12.223434
 4738\C,8.8882401124,19.848522752,12.9738726508\C,8.7432398627,25.60966
 97865,13.1134781629\C,7.8438489374,19.5000663285,11.9310616481\C,7.420
 1925833,25.5798410615,12.3824169038\C,6.7261437339,20.1974819465,11.78
 24791385\C,7.1792603868,26.2677098488,11.2695155545\C,5.9275825948,20.
 1755293498,10.5036659086\C,6.0570808384,25.913939318,10.3113574162\C,6
 .7788114804,19.8016529572,9.3049550011\C,6.7016608819,26.2416099449,8.
 9924779394\C,6.4449225229,20.4011081052,8.0724137924\C,6.3731792713,25
 .5736737636,7.8313532954\C,7.3395731133,20.4370039352,7.0214040876\C,7
 .3271624819,25.4148180142,6.8049225155\C,8.6832448792,20.0116978158,7.
 1786349757\C,8.6891589831,25.8538205662,6.9765545545\C,9.7387020087,20
 .6329266968,6.4078262451\C,9.7471794747,25.1426626612,6.3190241095\C,1
 1.0532970998,20.5822496898,6.8767908053\C,12.7112632471,22.1816083731,
 7.7593863896\C,12.6886234753,23.5713281532,7.7672038241\C,11.049716703
 1,25.1858856412,6.8306875307\C,11.3607899787,19.7775299134,7.983360932
 3\C,12.9131379998,21.4608593672,8.9350889949\C,12.8588443564,24.283915
 7915,8.9534886332\C,11.3242519797,25.9865927622,7.9547289477\C,13.1282
 742336,22.1630313579,10.1402385243\C,13.0978528278,23.5788903661,10.15
 26369739\C,13.1730717419,21.3969483312,11.4648854157\C,13.0810935917,2
 4.3398295011,11.4891192321\C,12.4382120941,22.1810843895,12.5428263158
 \C,12.4423434066,23.5245304391,12.5796387403\C,11.3436301232,20.148701
 9408,12.4235999356\C,11.1253667067,25.4451090289,12.4015288567\C,11.35
 25272115,21.4079094093,13.0756464729\C,11.3814631372,24.2804266203,13.
 3336499594\C,8.8832359931,21.339576849,13.2979894573\C,8.9029525333,24
 .1401997695,13.4624446586\C,7.6834892562,22.0505162531,13.178245576\C,
 7.7051987936,23.4459882004,13.2724258204\C,6.4247989177,21.4203443904,
 12.6095625842\C,6.613709304,24.3623500488,12.7555126517\C,5.8392275359
 ,22.3348709108,11.5492754469\C,5.9461698728,23.7248060183,11.552016008
 1\C,5.5436403664,21.6397175352,10.3809295702\C,5.7153523297,24.4240670
 038,10.3565372937\C,5.3316877357,22.3089275472,9.174688511\C,5.4007211
 758,23.7161766463,9.1648736982\C,5.3562623566,21.4605658493,7.90719588
 34\C,5.367179603,24.4433798031,7.8213087822\C,5.8798410547,22.22209028
 42,6.7196709943\C,5.9208969511,23.5674838115,6.707397569\C,6.877431878
 4,21.3887768674,5.9501959776\C,7.0017978221,24.259679109,6.0509848006\
 C,8.0249484248,22.1658618633,5.4285503024\C,8.0284125571,23.5314055759
 ,5.4314927137\C,9.3998813318,21.5992839956,5.2876644174\C,9.4064157012
 ,24.1086314673,5.250323647\C,12.0877555632,21.6255325004,6.4893730893\
 C,12.0782895863,24.1237331612,6.4881600498\C,10.2480154373,22.85847892
 99,5.3755767055\C,11.4575415808,22.8712599366,5.9194162094\C,10.120687
 2471,22.0475499592,13.4605384502\C,10.1163961333,23.4697690842,13.5342
 130562\Cl,4.5453276646,26.9131260264,10.6353116275\Cl,3.6573997578,25.
 0084089244,7.4510230282\Cl,13.3694962574,24.8177976125,5.3674054536\Cl
 ,13.9546805295,26.7802691832,8.5020443592\Cl,14.7949527612,24.88877676
 21,11.9041615754\Cl,14.9128416611,21.035909282,11.9217175199\Cl,14.049
 3217095,19.0036724382,8.3471064954\Cl,3.6899367459,20.7479578506,7.578
 5848064\Cl,4.4705614496,19.0628934863,10.658963114\Cl,5.3580218779,24.
 7514140749,14.0527154216\Cl,7.8864456369,16.8751013574,10.9566234635\C
 l,5.219412543,21.0523344176,13.9512985639\Cl,8.6416226704,18.888281887
 2,14.5476774622\Cl,8.6536594955,26.660839979,14.6279702278\Cl,7.947110
 2365,28.9419940297,10.9465350757\Cl,13.3429542715,20.9235578658,5.3420
 990522\Cl,9.6443458829,20.7396448836,3.6418916864\Cl,9.5716882345,24.8
 941052229,3.5810372782\Cl,12.0265008546,24.85733668,14.9877146339\Cl,6
 .0465032677,20.4333602557,4.5624459685\\Version=ES64L-G16RevA.03\State
 =1-A\HF=-12404.9730788\RMSD=3.898e-09\RMSF=2.991e-05\Dipole=0.4872675,
 -0.1463825,0.058922\Quadrupole=-3.3806033,10.3819039,-7.0013006,-4.865
 8027,5.3653869,-8.8264313\PG=C01 [X(C84Cl20)]\\@


 A MAN IS EXACTLY AS GREAT AS THE TIDE SURGING
 BENEATH HIM.      - BISMARCK
 Job cpu time:       2 days  4 hours 52 minutes  9.3 seconds.
 Elapsed time:       0 days  2 hours 12 minutes 21.0 seconds.
 File lengths (MBytes):  RWF=   1649 Int=      0 D2E=      0 Chk=    205 Scr=      1
 Normal termination of Gaussian 16 at Thu Jun 30 04:27:09 2022.
