 Entering Gaussian System, Link 0=g16
 Input=2_addons_C84_11_Cl22_rank_7.gjf
 Output=2_addons_C84_11_Cl22_rank_7.log
 Initial command:
 /home/mkliu/g16/l1.exe "/data/scratch/Gau-42095.inp" -scrdir="/data/scratch/"
 Entering Link 1 = /home/mkliu/g16/l1.exe PID=     42096.
  
 Copyright (c) 1988,1990,1992,1993,1995,1998,2003,2009,2016,
            Gaussian, Inc.  All Rights Reserved.
  
 This is part of the Gaussian(R) 16 program.  It is based on
 the Gaussian(R) 09 system (copyright 2009, Gaussian, Inc.),
 the Gaussian(R) 03 system (copyright 2003, Gaussian, Inc.),
 the Gaussian(R) 98 system (copyright 1998, Gaussian, Inc.),
 the Gaussian(R) 94 system (copyright 1995, Gaussian, Inc.),
 the Gaussian 92(TM) system (copyright 1992, Gaussian, Inc.),
 the Gaussian 90(TM) system (copyright 1990, Gaussian, Inc.),
 the Gaussian 88(TM) system (copyright 1988, Gaussian, Inc.),
 the Gaussian 86(TM) system (copyright 1986, Carnegie Mellon
 University), and the Gaussian 82(TM) system (copyright 1983,
 Carnegie Mellon University). Gaussian is a federally registered
 trademark of Gaussian, Inc.
  
 This software contains proprietary and confidential information,
 including trade secrets, belonging to Gaussian, Inc.
  
 This software is provided under written license and may be
 used, copied, transmitted, or stored only in accord with that
 written license.
  
 The following legend is applicable only to US Government
 contracts under FAR:
  
                    RESTRICTED RIGHTS LEGEND
  
 Use, reproduction and disclosure by the US Government is
 subject to restrictions as set forth in subparagraphs (a)
 and (c) of the Commercial Computer Software - Restricted
 Rights clause in FAR 52.227-19.
  
 Gaussian, Inc.
 340 Quinnipiac St., Bldg. 40, Wallingford CT 06492
  
  
 ---------------------------------------------------------------
 Warning -- This program may not be used in any manner that
 competes with the business of Gaussian, Inc. or will provide
 assistance to any competitor of Gaussian, Inc.  The licensee
 of this program is prohibited from giving any competitor of
 Gaussian, Inc. access to this program.  By using this program,
 the user acknowledges that Gaussian, Inc. is engaged in the
 business of creating and licensing software in the field of
 computational chemistry and represents and warrants to the
 licensee that it is not a competitor of Gaussian, Inc. and that
 it will not use this program in any manner prohibited above.
 ---------------------------------------------------------------
  

 Cite this work as:
 Gaussian 16, Revision A.03,
 M. J. Frisch, G. W. Trucks, H. B. Schlegel, G. E. Scuseria, 
 M. A. Robb, J. R. Cheeseman, G. Scalmani, V. Barone, 
 G. A. Petersson, H. Nakatsuji, X. Li, M. Caricato, A. V. Marenich, 
 J. Bloino, B. G. Janesko, R. Gomperts, B. Mennucci, H. P. Hratchian, 
 J. V. Ortiz, A. F. Izmaylov, J. L. Sonnenberg, D. Williams-Young, 
 F. Ding, F. Lipparini, F. Egidi, J. Goings, B. Peng, A. Petrone, 
 T. Henderson, D. Ranasinghe, V. G. Zakrzewski, J. Gao, N. Rega, 
 G. Zheng, W. Liang, M. Hada, M. Ehara, K. Toyota, R. Fukuda, 
 J. Hasegawa, M. Ishida, T. Nakajima, Y. Honda, O. Kitao, H. Nakai, 
 T. Vreven, K. Throssell, J. A. Montgomery, Jr., J. E. Peralta, 
 F. Ogliaro, M. J. Bearpark, J. J. Heyd, E. N. Brothers, K. N. Kudin, 
 V. N. Staroverov, T. A. Keith, R. Kobayashi, J. Normand, 
 K. Raghavachari, A. P. Rendell, J. C. Burant, S. S. Iyengar, 
 J. Tomasi, M. Cossi, J. M. Millam, M. Klene, C. Adamo, R. Cammi, 
 J. W. Ochterski, R. L. Martin, K. Morokuma, O. Farkas, 
 J. B. Foresman, and D. J. Fox, Gaussian, Inc., Wallingford CT, 2016.
 
 ******************************************
 Gaussian 16:  ES64L-G16RevA.03 25-Dec-2016
                28-Jun-2022 
 ******************************************
 %mem=10GB
 %chk=2_addons_C84_11_Cl22_rank_7.chk
 %nprocshared=24
 Will use up to   24 processors via shared memory.
 ------------------------------------------------
 #P opt b3lyp/6-31G(d, p) empiricaldispersion=GD3
 ------------------------------------------------
 1/18=20,19=15,26=3,38=1/1,3;
 2/9=110,12=2,17=6,18=5,40=1/2;
 3/5=1,6=6,7=101,11=2,25=1,30=1,71=1,74=-5,124=31/1,2,3;
 4//1;
 5/5=2,38=5/2;
 6/7=2,8=2,9=2,10=2,28=1/1;
 7//1,2,3,16;
 1/18=20,19=15,26=3/3(2);
 2/9=110/2;
 99//99;
 2/9=110/2;
 3/5=1,6=6,7=101,11=2,25=1,30=1,71=1,74=-5,124=31/1,2,3;
 4/5=5,16=3,69=1/1;
 5/5=2,38=5/2;
 7//1,2,3,16;
 1/18=20,19=15,26=3/3(-5);
 2/9=110/2;
 6/7=2,8=2,9=2,10=2,19=2,28=1/1;
 99/9=1/99;
 Leave Link    1 at Tue Jun 28 09:36:10 2022, MaxMem=  1342177280 cpu:               0.7 elap:               0.1
 (Enter /home/mkliu/g16/l101.exe)
 -----
 force
 -----
 Symbolic Z-matrix:
 Charge =  0 Multiplicity = 1
 C                     8.50324   18.87301   10.74724 
 C                     12.36372   20.14706   8.93994 
 C                     8.2578    26.86943   10.53039 
 C                     12.46574   25.74894   8.9196 
 C                     8.02665   19.09467   9.4396 
 C                     12.0425   19.512    10.17526 
 C                     7.95304   26.84006   9.14571 
 C                     11.86116   26.17116   10.22248 
 C                     8.98804   19.18774   8.35762 
 C                     12.31865   20.17472   11.35955 
 C                     12.12184   25.52053   11.38145 
 C                     8.94116   26.64872   8.15553 
 C                     10.3445   19.02316   8.66982 
 C                     10.27199   26.67839   8.62773 
 C                     10.80381   18.80644   10.00416 
 C                     10.58563   26.77546   10.01099 
 C                     9.88765   18.75163   11.03832 
 C                     9.58235   26.76801   11.00443 
 C                     10.16435   19.44548   12.27438 
 C                     9.84436   26.04931   12.22466 
 C                     8.94914   20.0108   12.7629 
 C                     8.76996   25.41978   12.89292 
 C                     7.90927   19.54059   11.88295 
 C                     7.43231   25.50009   12.36452 
 C                     6.76027   20.26328   11.73056 
 C                     7.17744   26.21113   11.22437 
 C                     6.137     20.34859   10.44924 
 C                     6.22594   25.71803   10.26251 
 C                     6.75803   19.77526   9.31599 
 C                     6.66311   26.22129   9.00495 
 C                     6.42873   20.37113   8.09517 
 C                     6.35545   25.55057   7.85058 
 C                     7.35021   20.36528   6.98857 
 C                     7.31101   25.46772   6.7783 
 C                     8.66942   19.9158   7.1402 
 C                     8.64272   25.90236   6.95515 
 C                     9.70537   20.59347   6.38634 
 C                     9.69836   25.15857   6.30689 
 C                     11.06215   20.57954   6.88326 
 C                     12.74071   22.16452   7.74794 
 C                     12.71888   23.60016   7.7582 
 C                     11.04132   25.18814   6.86488 
 C                     11.36451   19.77942   7.98894 
 C                     12.94948   21.43557   8.92374 
 C                     12.89007   24.29998   8.97222 
 C                     11.31169   25.98392   7.96345 
 C                     13.18013   22.15579   10.15575 
 C                     13.13136   23.60821   10.14317 
 C                     12.93119   21.46426   11.34856 
 C                     13.05755   24.34914   11.46549 
 C                     12.40162   22.17556   12.50117 
 C                     12.38064   23.53086   12.52275 
 C                     11.34714   20.14164   12.42695 
 C                     11.09983   25.43016   12.38224 
 C                     11.32876   21.41141   13.07375 
 C                     11.24178   24.19098   13.06047 
 C                     8.89377   21.29238   13.34268 
 C                     8.89925   24.14777   13.49223 
 C                     7.65159   22.03025   13.20635 
 C                     7.66131   23.42911   13.31104 
 C                     6.5966    21.50743   12.42397 
 C                     6.76301   24.25242   12.58077 
 C                     5.77509   22.32656   11.60663 
 C                     5.87704   23.72555   11.60895 
 C                     5.48587   21.60932   10.38977 
 C                     5.62623   24.45192   10.38 
 C                     5.27307   22.28158   9.17807 
 C                     5.30885   23.73135   9.16011 
 C                     5.6261    21.54617   8.01866 
 C                     5.59419   24.34182   7.92479 
 C                     5.95313   22.20963   6.79535 
 C                     5.9368    23.58541   6.75031 
 C                     7.00682   21.46982   6.15173 
 C                     6.98511   24.28895   6.05048 
 C                     7.99997   22.13707   5.46446 
 C                     7.99699   23.58359   5.42506 
 C                     9.34289   21.68415   5.56902 
 C                     9.33846   24.04269   5.5258 
 C                     11.89746   21.70599   6.70514 
 C                     11.89497   24.04847   6.70772 
 C                     10.17106   22.86139   5.47726 
 C                     11.41636   22.87556   6.03811 
 C                     10.13587   22.01989   13.50925 
 C                     10.12651   23.46227   13.54487 
 Cl                    13.90038   26.76114   8.45225 
 Cl                    14.74112   24.8357   11.95486 
 
 ITRead=  0  0  0  0  0  0  0  0  0  0  0  0  0  0  0  0  0  0  0  0
 ITRead=  0  0  0  0  0  0  0  0  0  0  0  0  0  0  0  0  0  0  0  0
 ITRead=  0  0  0  0  0  0  0  0  0  0  0  0  0  0  0  0  0  0  0  0
 ITRead=  0  0  0  0  0  0  0  0  0  0  0  0  0  0  0  0  0  0  0  0
 ITRead=  0  0  0  0  0  0
 MicOpt= -1 -1 -1 -1 -1 -1 -1 -1 -1 -1 -1 -1 -1 -1 -1 -1 -1 -1 -1 -1
 MicOpt= -1 -1 -1 -1 -1 -1 -1 -1 -1 -1 -1 -1 -1 -1 -1 -1 -1 -1 -1 -1
 MicOpt= -1 -1 -1 -1 -1 -1 -1 -1 -1 -1 -1 -1 -1 -1 -1 -1 -1 -1 -1 -1
 MicOpt= -1 -1 -1 -1 -1 -1 -1 -1 -1 -1 -1 -1 -1 -1 -1 -1 -1 -1 -1 -1
 MicOpt= -1 -1 -1 -1 -1 -1
 NAtoms=     86 NQM=       86 NQMF=       0 NMMI=      0 NMMIF=      0
                NMic=       0 NMicF=      0.
                    Isotopes and Nuclear Properties:
 (Nuclear quadrupole moments (NQMom) in fm**2, nuclear magnetic moments (NMagM)
  in nuclear magnetons)

  Atom         1           2           3           4           5           6           7           8           9          10
 IAtWgt=          12          12          12          12          12          12          12          12          12          12
 AtmWgt=  12.0000000  12.0000000  12.0000000  12.0000000  12.0000000  12.0000000  12.0000000  12.0000000  12.0000000  12.0000000
 NucSpn=           0           0           0           0           0           0           0           0           0           0
 AtZEff=  -0.0000000  -0.0000000  -0.0000000  -0.0000000  -0.0000000  -0.0000000  -0.0000000  -0.0000000  -0.0000000  -0.0000000
 NQMom=    0.0000000   0.0000000   0.0000000   0.0000000   0.0000000   0.0000000   0.0000000   0.0000000   0.0000000   0.0000000
 NMagM=    0.0000000   0.0000000   0.0000000   0.0000000   0.0000000   0.0000000   0.0000000   0.0000000   0.0000000   0.0000000
 AtZNuc=   6.0000000   6.0000000   6.0000000   6.0000000   6.0000000   6.0000000   6.0000000   6.0000000   6.0000000   6.0000000

  Atom        11          12          13          14          15          16          17          18          19          20
 IAtWgt=          12          12          12          12          12          12          12          12          12          12
 AtmWgt=  12.0000000  12.0000000  12.0000000  12.0000000  12.0000000  12.0000000  12.0000000  12.0000000  12.0000000  12.0000000
 NucSpn=           0           0           0           0           0           0           0           0           0           0
 AtZEff=  -0.0000000  -0.0000000  -0.0000000  -0.0000000  -0.0000000  -0.0000000  -0.0000000  -0.0000000  -0.0000000  -0.0000000
 NQMom=    0.0000000   0.0000000   0.0000000   0.0000000   0.0000000   0.0000000   0.0000000   0.0000000   0.0000000   0.0000000
 NMagM=    0.0000000   0.0000000   0.0000000   0.0000000   0.0000000   0.0000000   0.0000000   0.0000000   0.0000000   0.0000000
 AtZNuc=   6.0000000   6.0000000   6.0000000   6.0000000   6.0000000   6.0000000   6.0000000   6.0000000   6.0000000   6.0000000

  Atom        21          22          23          24          25          26          27          28          29          30
 IAtWgt=          12          12          12          12          12          12          12          12          12          12
 AtmWgt=  12.0000000  12.0000000  12.0000000  12.0000000  12.0000000  12.0000000  12.0000000  12.0000000  12.0000000  12.0000000
 NucSpn=           0           0           0           0           0           0           0           0           0           0
 AtZEff=  -0.0000000  -0.0000000  -0.0000000  -0.0000000  -0.0000000  -0.0000000  -0.0000000  -0.0000000  -0.0000000  -0.0000000
 NQMom=    0.0000000   0.0000000   0.0000000   0.0000000   0.0000000   0.0000000   0.0000000   0.0000000   0.0000000   0.0000000
 NMagM=    0.0000000   0.0000000   0.0000000   0.0000000   0.0000000   0.0000000   0.0000000   0.0000000   0.0000000   0.0000000
 AtZNuc=   6.0000000   6.0000000   6.0000000   6.0000000   6.0000000   6.0000000   6.0000000   6.0000000   6.0000000   6.0000000

  Atom        31          32          33          34          35          36          37          38          39          40
 IAtWgt=          12          12          12          12          12          12          12          12          12          12
 AtmWgt=  12.0000000  12.0000000  12.0000000  12.0000000  12.0000000  12.0000000  12.0000000  12.0000000  12.0000000  12.0000000
 NucSpn=           0           0           0           0           0           0           0           0           0           0
 AtZEff=  -0.0000000  -0.0000000  -0.0000000  -0.0000000  -0.0000000  -0.0000000  -0.0000000  -0.0000000  -0.0000000  -0.0000000
 NQMom=    0.0000000   0.0000000   0.0000000   0.0000000   0.0000000   0.0000000   0.0000000   0.0000000   0.0000000   0.0000000
 NMagM=    0.0000000   0.0000000   0.0000000   0.0000000   0.0000000   0.0000000   0.0000000   0.0000000   0.0000000   0.0000000
 AtZNuc=   6.0000000   6.0000000   6.0000000   6.0000000   6.0000000   6.0000000   6.0000000   6.0000000   6.0000000   6.0000000

  Atom        41          42          43          44          45          46          47          48          49          50
 IAtWgt=          12          12          12          12          12          12          12          12          12          12
 AtmWgt=  12.0000000  12.0000000  12.0000000  12.0000000  12.0000000  12.0000000  12.0000000  12.0000000  12.0000000  12.0000000
 NucSpn=           0           0           0           0           0           0           0           0           0           0
 AtZEff=  -0.0000000  -0.0000000  -0.0000000  -0.0000000  -0.0000000  -0.0000000  -0.0000000  -0.0000000  -0.0000000  -0.0000000
 NQMom=    0.0000000   0.0000000   0.0000000   0.0000000   0.0000000   0.0000000   0.0000000   0.0000000   0.0000000   0.0000000
 NMagM=    0.0000000   0.0000000   0.0000000   0.0000000   0.0000000   0.0000000   0.0000000   0.0000000   0.0000000   0.0000000
 AtZNuc=   6.0000000   6.0000000   6.0000000   6.0000000   6.0000000   6.0000000   6.0000000   6.0000000   6.0000000   6.0000000

  Atom        51          52          53          54          55          56          57          58          59          60
 IAtWgt=          12          12          12          12          12          12          12          12          12          12
 AtmWgt=  12.0000000  12.0000000  12.0000000  12.0000000  12.0000000  12.0000000  12.0000000  12.0000000  12.0000000  12.0000000
 NucSpn=           0           0           0           0           0           0           0           0           0           0
 AtZEff=  -0.0000000  -0.0000000  -0.0000000  -0.0000000  -0.0000000  -0.0000000  -0.0000000  -0.0000000  -0.0000000  -0.0000000
 NQMom=    0.0000000   0.0000000   0.0000000   0.0000000   0.0000000   0.0000000   0.0000000   0.0000000   0.0000000   0.0000000
 NMagM=    0.0000000   0.0000000   0.0000000   0.0000000   0.0000000   0.0000000   0.0000000   0.0000000   0.0000000   0.0000000
 AtZNuc=   6.0000000   6.0000000   6.0000000   6.0000000   6.0000000   6.0000000   6.0000000   6.0000000   6.0000000   6.0000000

  Atom        61          62          63          64          65          66          67          68          69          70
 IAtWgt=          12          12          12          12          12          12          12          12          12          12
 AtmWgt=  12.0000000  12.0000000  12.0000000  12.0000000  12.0000000  12.0000000  12.0000000  12.0000000  12.0000000  12.0000000
 NucSpn=           0           0           0           0           0           0           0           0           0           0
 AtZEff=  -0.0000000  -0.0000000  -0.0000000  -0.0000000  -0.0000000  -0.0000000  -0.0000000  -0.0000000  -0.0000000  -0.0000000
 NQMom=    0.0000000   0.0000000   0.0000000   0.0000000   0.0000000   0.0000000   0.0000000   0.0000000   0.0000000   0.0000000
 NMagM=    0.0000000   0.0000000   0.0000000   0.0000000   0.0000000   0.0000000   0.0000000   0.0000000   0.0000000   0.0000000
 AtZNuc=   6.0000000   6.0000000   6.0000000   6.0000000   6.0000000   6.0000000   6.0000000   6.0000000   6.0000000   6.0000000

  Atom        71          72          73          74          75          76          77          78          79          80
 IAtWgt=          12          12          12          12          12          12          12          12          12          12
 AtmWgt=  12.0000000  12.0000000  12.0000000  12.0000000  12.0000000  12.0000000  12.0000000  12.0000000  12.0000000  12.0000000
 NucSpn=           0           0           0           0           0           0           0           0           0           0
 AtZEff=  -0.0000000  -0.0000000  -0.0000000  -0.0000000  -0.0000000  -0.0000000  -0.0000000  -0.0000000  -0.0000000  -0.0000000
 NQMom=    0.0000000   0.0000000   0.0000000   0.0000000   0.0000000   0.0000000   0.0000000   0.0000000   0.0000000   0.0000000
 NMagM=    0.0000000   0.0000000   0.0000000   0.0000000   0.0000000   0.0000000   0.0000000   0.0000000   0.0000000   0.0000000
 AtZNuc=   6.0000000   6.0000000   6.0000000   6.0000000   6.0000000   6.0000000   6.0000000   6.0000000   6.0000000   6.0000000

  Atom        81          82          83          84          85          86
 IAtWgt=          12          12          12          12          35          35
 AtmWgt=  12.0000000  12.0000000  12.0000000  12.0000000  34.9688527  34.9688527
 NucSpn=           0           0           0           0           3           3
 AtZEff=  -0.0000000  -0.0000000  -0.0000000  -0.0000000  -0.0000000  -0.0000000
 NQMom=    0.0000000   0.0000000   0.0000000   0.0000000  -8.1650000  -8.1650000
 NMagM=    0.0000000   0.0000000   0.0000000   0.0000000   0.8218740   0.8218740
 AtZNuc=   6.0000000   6.0000000   6.0000000   6.0000000  17.0000000  17.0000000
 Leave Link  101 at Tue Jun 28 09:36:11 2022, MaxMem=  1342177280 cpu:               6.5 elap:               0.3
 (Enter /home/mkliu/g16/l103.exe)

 GradGradGradGradGradGradGradGradGradGradGradGradGradGradGradGradGradGrad
 Berny optimization.
 Initialization pass.
                           ----------------------------
                           !    Initial Parameters    !
                           ! (Angstroms and Degrees)  !
 --------------------------                            --------------------------
 ! Name  Definition              Value          Derivative Info.                !
 --------------------------------------------------------------------------------
 ! R1    R(1,5)                  1.4093         estimate D2E/DX2                !
 ! R2    R(1,17)                 1.4199         estimate D2E/DX2                !
 ! R3    R(1,23)                 1.4451         estimate D2E/DX2                !
 ! R4    R(2,6)                  1.4257         estimate D2E/DX2                !
 ! R5    R(2,43)                 1.4276         estimate D2E/DX2                !
 ! R6    R(2,44)                 1.4155         estimate D2E/DX2                !
 ! R7    R(3,7)                  1.4181         estimate D2E/DX2                !
 ! R8    R(3,18)                 1.4105         estimate D2E/DX2                !
 ! R9    R(3,26)                 1.443          estimate D2E/DX2                !
 ! R10   R(4,8)                  1.4971         estimate D2E/DX2                !
 ! R11   R(4,45)                 1.5107         estimate D2E/DX2                !
 ! R12   R(4,46)                 1.517          estimate D2E/DX2                !
 ! R13   R(4,85)                 1.8169         estimate D2E/DX2                !
 ! R14   R(5,9)                  1.4504         estimate D2E/DX2                !
 ! R15   R(5,29)                 1.4449         estimate D2E/DX2                !
 ! R16   R(6,10)                 1.3849         estimate D2E/DX2                !
 ! R17   R(6,15)                 1.4358         estimate D2E/DX2                !
 ! R18   R(7,12)                 1.4119         estimate D2E/DX2                !
 ! R19   R(7,30)                 1.4376         estimate D2E/DX2                !
 ! R20   R(8,11)                 1.3544         estimate D2E/DX2                !
 ! R21   R(8,16)                 1.4272         estimate D2E/DX2                !
 ! R22   R(9,13)                 1.4016         estimate D2E/DX2                !
 ! R23   R(9,35)                 1.4539         estimate D2E/DX2                !
 ! R24   R(10,49)                1.4277         estimate D2E/DX2                !
 ! R25   R(10,53)                1.4437         estimate D2E/DX2                !
 ! R26   R(11,50)                1.5016         estimate D2E/DX2                !
 ! R27   R(11,54)                1.4333         estimate D2E/DX2                !
 ! R28   R(12,14)                1.4124         estimate D2E/DX2                !
 ! R29   R(12,36)                1.4447         estimate D2E/DX2                !
 ! R30   R(13,15)                1.4277         estimate D2E/DX2                !
 ! R31   R(13,43)                1.4408         estimate D2E/DX2                !
 ! R32   R(14,16)                1.4217         estimate D2E/DX2                !
 ! R33   R(14,46)                1.4158         estimate D2E/DX2                !
 ! R34   R(15,17)                1.3827         estimate D2E/DX2                !
 ! R35   R(16,18)                1.4119         estimate D2E/DX2                !
 ! R36   R(17,19)                1.4442         estimate D2E/DX2                !
 ! R37   R(18,20)                1.4402         estimate D2E/DX2                !
 ! R38   R(19,21)                1.4265         estimate D2E/DX2                !
 ! R39   R(19,53)                1.3809         estimate D2E/DX2                !
 ! R40   R(20,22)                1.4132         estimate D2E/DX2                !
 ! R41   R(20,54)                1.4087         estimate D2E/DX2                !
 ! R42   R(21,23)                1.4411         estimate D2E/DX2                !
 ! R43   R(21,57)                1.4077         estimate D2E/DX2                !
 ! R44   R(22,24)                1.4405         estimate D2E/DX2                !
 ! R45   R(22,58)                1.4121         estimate D2E/DX2                !
 ! R46   R(23,25)                1.3659         estimate D2E/DX2                !
 ! R47   R(24,26)                1.3677         estimate D2E/DX2                !
 ! R48   R(24,62)                1.4323         estimate D2E/DX2                !
 ! R49   R(25,27)                1.4274         estimate D2E/DX2                !
 ! R50   R(25,61)                1.4337         estimate D2E/DX2                !
 ! R51   R(26,28)                1.44           estimate D2E/DX2                !
 ! R52   R(27,29)                1.4137         estimate D2E/DX2                !
 ! R53   R(27,65)                1.4202         estimate D2E/DX2                !
 ! R54   R(28,30)                1.4233         estimate D2E/DX2                !
 ! R55   R(28,66)                1.4059         estimate D2E/DX2                !
 ! R56   R(29,31)                1.3978         estimate D2E/DX2                !
 ! R57   R(30,32)                1.3701         estimate D2E/DX2                !
 ! R58   R(31,33)                1.44           estimate D2E/DX2                !
 ! R59   R(31,69)                1.4251         estimate D2E/DX2                !
 ! R60   R(32,34)                1.4387         estimate D2E/DX2                !
 ! R61   R(32,70)                1.4304         estimate D2E/DX2                !
 ! R62   R(33,35)                1.4019         estimate D2E/DX2                !
 ! R63   R(33,73)                1.4277         estimate D2E/DX2                !
 ! R64   R(34,36)                1.412          estimate D2E/DX2                !
 ! R65   R(34,74)                1.4232         estimate D2E/DX2                !
 ! R66   R(35,37)                1.4494         estimate D2E/DX2                !
 ! R67   R(36,38)                1.4449         estimate D2E/DX2                !
 ! R68   R(37,39)                1.445          estimate D2E/DX2                !
 ! R69   R(37,77)                1.4103         estimate D2E/DX2                !
 ! R70   R(38,42)                1.4546         estimate D2E/DX2                !
 ! R71   R(38,78)                1.4088         estimate D2E/DX2                !
 ! R72   R(39,43)                1.3979         estimate D2E/DX2                !
 ! R73   R(39,79)                1.4136         estimate D2E/DX2                !
 ! R74   R(40,41)                1.4358         estimate D2E/DX2                !
 ! R75   R(40,44)                1.3991         estimate D2E/DX2                !
 ! R76   R(40,79)                1.4173         estimate D2E/DX2                !
 ! R77   R(41,45)                1.4117         estimate D2E/DX2                !
 ! R78   R(41,80)                1.4083         estimate D2E/DX2                !
 ! R79   R(42,46)                1.3832         estimate D2E/DX2                !
 ! R80   R(42,80)                1.4326         estimate D2E/DX2                !
 ! R81   R(44,47)                1.4456         estimate D2E/DX2                !
 ! R82   R(45,48)                1.3813         estimate D2E/DX2                !
 ! R83   R(47,48)                1.4533         estimate D2E/DX2                !
 ! R84   R(47,49)                1.4011         estimate D2E/DX2                !
 ! R85   R(48,50)                1.5175         estimate D2E/DX2                !
 ! R86   R(49,51)                1.4543         estimate D2E/DX2                !
 ! R87   R(50,52)                1.4985         estimate D2E/DX2                !
 ! R88   R(50,86)                1.8195         estimate D2E/DX2                !
 ! R89   R(51,52)                1.3556         estimate D2E/DX2                !
 ! R90   R(51,55)                1.4362         estimate D2E/DX2                !
 ! R91   R(52,56)                1.4219         estimate D2E/DX2                !
 ! R92   R(53,55)                1.4251         estimate D2E/DX2                !
 ! R93   R(54,56)                1.4198         estimate D2E/DX2                !
 ! R94   R(55,83)                1.4082         estimate D2E/DX2                !
 ! R95   R(56,84)                1.4176         estimate D2E/DX2                !
 ! R96   R(57,59)                1.4512         estimate D2E/DX2                !
 ! R97   R(57,83)                1.4491         estimate D2E/DX2                !
 ! R98   R(58,60)                1.4428         estimate D2E/DX2                !
 ! R99   R(58,84)                1.4067         estimate D2E/DX2                !
 ! R100  R(59,60)                1.4028         estimate D2E/DX2                !
 ! R101  R(59,61)                1.4137         estimate D2E/DX2                !
 ! R102  R(60,62)                1.4206         estimate D2E/DX2                !
 ! R103  R(61,63)                1.4191         estimate D2E/DX2                !
 ! R104  R(62,64)                1.4167         estimate D2E/DX2                !
 ! R105  R(63,64)                1.4027         estimate D2E/DX2                !
 ! R106  R(63,65)                1.4418         estimate D2E/DX2                !
 ! R107  R(64,66)                1.4494         estimate D2E/DX2                !
 ! R108  R(65,67)                1.4019         estimate D2E/DX2                !
 ! R109  R(66,68)                1.4519         estimate D2E/DX2                !
 ! R110  R(67,68)                1.4503         estimate D2E/DX2                !
 ! R111  R(67,69)                1.4176         estimate D2E/DX2                !
 ! R112  R(68,70)                1.4072         estimate D2E/DX2                !
 ! R113  R(69,71)                1.4295         estimate D2E/DX2                !
 ! R114  R(70,72)                1.4384         estimate D2E/DX2                !
 ! R115  R(71,72)                1.3766         estimate D2E/DX2                !
 ! R116  R(71,73)                1.4394         estimate D2E/DX2                !
 ! R117  R(72,74)                1.4435         estimate D2E/DX2                !
 ! R118  R(73,75)                1.3798         estimate D2E/DX2                !
 ! R119  R(74,76)                1.383          estimate D2E/DX2                !
 ! R120  R(75,76)                1.4471         estimate D2E/DX2                !
 ! R121  R(75,77)                1.4211         estimate D2E/DX2                !
 ! R122  R(76,78)                1.4214         estimate D2E/DX2                !
 ! R123  R(77,81)                1.4423         estimate D2E/DX2                !
 ! R124  R(78,81)                1.446          estimate D2E/DX2                !
 ! R125  R(79,82)                1.4298         estimate D2E/DX2                !
 ! R126  R(80,82)                1.4329         estimate D2E/DX2                !
 ! R127  R(81,82)                1.3658         estimate D2E/DX2                !
 ! R128  R(83,84)                1.4429         estimate D2E/DX2                !
 ! A1    A(5,1,17)             122.234          estimate D2E/DX2                !
 ! A2    A(5,1,23)             121.1682         estimate D2E/DX2                !
 ! A3    A(17,1,23)            106.2084         estimate D2E/DX2                !
 ! A4    A(6,2,43)             107.7464         estimate D2E/DX2                !
 ! A5    A(6,2,44)             120.5731         estimate D2E/DX2                !
 ! A6    A(43,2,44)            121.0943         estimate D2E/DX2                !
 ! A7    A(7,3,18)             121.9026         estimate D2E/DX2                !
 ! A8    A(7,3,26)             107.413          estimate D2E/DX2                !
 ! A9    A(18,3,26)            120.5747         estimate D2E/DX2                !
 ! A10   A(8,4,45)             110.7085         estimate D2E/DX2                !
 ! A11   A(8,4,46)             101.398          estimate D2E/DX2                !
 ! A12   A(8,4,85)             112.6813         estimate D2E/DX2                !
 ! A13   A(45,4,46)            112.5938         estimate D2E/DX2                !
 ! A14   A(45,4,85)            108.754          estimate D2E/DX2                !
 ! A15   A(46,4,85)            110.6259         estimate D2E/DX2                !
 ! A16   A(1,5,9)              118.5621         estimate D2E/DX2                !
 ! A17   A(1,5,29)             116.7666         estimate D2E/DX2                !
 ! A18   A(9,5,29)             119.204          estimate D2E/DX2                !
 ! A19   A(2,6,10)             118.8741         estimate D2E/DX2                !
 ! A20   A(2,6,15)             108.0613         estimate D2E/DX2                !
 ! A21   A(10,6,15)            120.6027         estimate D2E/DX2                !
 ! A22   A(3,7,12)             122.4919         estimate D2E/DX2                !
 ! A23   A(3,7,30)             107.2981         estimate D2E/DX2                !
 ! A24   A(12,7,30)            120.0647         estimate D2E/DX2                !
 ! A25   A(4,8,11)             122.1054         estimate D2E/DX2                !
 ! A26   A(4,8,16)             110.5715         estimate D2E/DX2                !
 ! A27   A(11,8,16)            120.146          estimate D2E/DX2                !
 ! A28   A(5,9,13)             117.8909         estimate D2E/DX2                !
 ! A29   A(5,9,35)             120.7667         estimate D2E/DX2                !
 ! A30   A(13,9,35)            117.2205         estimate D2E/DX2                !
 ! A31   A(6,10,49)            120.7432         estimate D2E/DX2                !
 ! A32   A(6,10,53)            119.1499         estimate D2E/DX2                !
 ! A33   A(49,10,53)           108.3675         estimate D2E/DX2                !
 ! A34   A(8,11,50)            122.8578         estimate D2E/DX2                !
 ! A35   A(8,11,54)            119.3762         estimate D2E/DX2                !
 ! A36   A(50,11,54)           110.8599         estimate D2E/DX2                !
 ! A37   A(7,12,14)            114.9683         estimate D2E/DX2                !
 ! A38   A(7,12,36)            120.5422         estimate D2E/DX2                !
 ! A39   A(14,12,36)           118.8997         estimate D2E/DX2                !
 ! A40   A(9,13,15)            122.5032         estimate D2E/DX2                !
 ! A41   A(9,13,43)            121.2139         estimate D2E/DX2                !
 ! A42   A(15,13,43)           107.0723         estimate D2E/DX2                !
 ! A43   A(12,14,16)           122.315          estimate D2E/DX2                !
 ! A44   A(12,14,46)           121.6527         estimate D2E/DX2                !
 ! A45   A(16,14,46)           109.1464         estimate D2E/DX2                !
 ! A46   A(6,15,13)            108.32           estimate D2E/DX2                !
 ! A47   A(6,15,17)            120.132          estimate D2E/DX2                !
 ! A48   A(13,15,17)           119.4628         estimate D2E/DX2                !
 ! A49   A(8,16,14)            108.2062         estimate D2E/DX2                !
 ! A50   A(8,16,18)            121.9085         estimate D2E/DX2                !
 ! A51   A(14,16,18)           121.8346         estimate D2E/DX2                !
 ! A52   A(1,17,15)            119.2964         estimate D2E/DX2                !
 ! A53   A(1,17,19)            108.7347         estimate D2E/DX2                !
 ! A54   A(15,17,19)           119.6122         estimate D2E/DX2                !
 ! A55   A(3,18,16)            115.4953         estimate D2E/DX2                !
 ! A56   A(3,18,20)            119.4379         estimate D2E/DX2                !
 ! A57   A(16,18,20)           118.0024         estimate D2E/DX2                !
 ! A58   A(17,19,21)           108.6791         estimate D2E/DX2                !
 ! A59   A(17,19,53)           120.0568         estimate D2E/DX2                !
 ! A60   A(21,19,53)           119.4747         estimate D2E/DX2                !
 ! A61   A(18,20,22)           118.9884         estimate D2E/DX2                !
 ! A62   A(18,20,54)           118.4412         estimate D2E/DX2                !
 ! A63   A(22,20,54)           115.3958         estimate D2E/DX2                !
 ! A64   A(19,21,23)           106.0388         estimate D2E/DX2                !
 ! A65   A(19,21,57)           122.3666         estimate D2E/DX2                !
 ! A66   A(23,21,57)           121.3424         estimate D2E/DX2                !
 ! A67   A(20,22,24)           120.5095         estimate D2E/DX2                !
 ! A68   A(20,22,58)           122.165          estimate D2E/DX2                !
 ! A69   A(24,22,58)           106.9144         estimate D2E/DX2                !
 ! A70   A(1,23,21)            109.5136         estimate D2E/DX2                !
 ! A71   A(1,23,25)            120.1648         estimate D2E/DX2                !
 ! A72   A(21,23,25)           120.165          estimate D2E/DX2                !
 ! A73   A(22,24,26)           120.5201         estimate D2E/DX2                !
 ! A74   A(22,24,62)           109.2683         estimate D2E/DX2                !
 ! A75   A(26,24,62)           119.4509         estimate D2E/DX2                !
 ! A76   A(23,25,27)           119.9386         estimate D2E/DX2                !
 ! A77   A(23,25,61)           120.08           estimate D2E/DX2                !
 ! A78   A(27,25,61)           109.4167         estimate D2E/DX2                !
 ! A79   A(3,26,24)            119.9074         estimate D2E/DX2                !
 ! A80   A(3,26,28)            109.2495         estimate D2E/DX2                !
 ! A81   A(24,26,28)           120.1286         estimate D2E/DX2                !
 ! A82   A(25,27,29)           120.2321         estimate D2E/DX2                !
 ! A83   A(25,27,65)           106.9076         estimate D2E/DX2                !
 ! A84   A(29,27,65)           121.8601         estimate D2E/DX2                !
 ! A85   A(26,28,30)           105.4348         estimate D2E/DX2                !
 ! A86   A(26,28,66)           122.3041         estimate D2E/DX2                !
 ! A87   A(30,28,66)           121.5531         estimate D2E/DX2                !
 ! A88   A(5,29,27)            120.5389         estimate D2E/DX2                !
 ! A89   A(5,29,31)            118.838          estimate D2E/DX2                !
 ! A90   A(27,29,31)           115.0703         estimate D2E/DX2                !
 ! A91   A(7,30,28)            109.955          estimate D2E/DX2                !
 ! A92   A(7,30,32)            119.6506         estimate D2E/DX2                !
 ! A93   A(28,30,32)           120.1572         estimate D2E/DX2                !
 ! A94   A(29,31,33)           121.2427         estimate D2E/DX2                !
 ! A95   A(29,31,69)           122.078          estimate D2E/DX2                !
 ! A96   A(33,31,69)           108.814          estimate D2E/DX2                !
 ! A97   A(30,32,34)           120.4662         estimate D2E/DX2                !
 ! A98   A(30,32,70)           119.3067         estimate D2E/DX2                !
 ! A99   A(34,32,70)           110.0891         estimate D2E/DX2                !
 ! A100  A(31,33,35)           121.3551         estimate D2E/DX2                !
 ! A101  A(31,33,73)           107.0606         estimate D2E/DX2                !
 ! A102  A(35,33,73)           122.5333         estimate D2E/DX2                !
 ! A103  A(32,34,36)           121.0221         estimate D2E/DX2                !
 ! A104  A(32,34,74)           106.067          estimate D2E/DX2                !
 ! A105  A(36,34,74)           122.3438         estimate D2E/DX2                !
 ! A106  A(9,35,33)            117.2165         estimate D2E/DX2                !
 ! A107  A(9,35,37)            120.8661         estimate D2E/DX2                !
 ! A108  A(33,35,37)           117.8028         estimate D2E/DX2                !
 ! A109  A(12,36,34)           117.2543         estimate D2E/DX2                !
 ! A110  A(12,36,38)           119.1962         estimate D2E/DX2                !
 ! A111  A(34,36,38)           118.3209         estimate D2E/DX2                !
 ! A112  A(35,37,39)           119.1929         estimate D2E/DX2                !
 ! A113  A(35,37,77)           118.6401         estimate D2E/DX2                !
 ! A114  A(39,37,77)           116.6206         estimate D2E/DX2                !
 ! A115  A(36,38,42)           119.4692         estimate D2E/DX2                !
 ! A116  A(36,38,78)           118.0225         estimate D2E/DX2                !
 ! A117  A(42,38,78)           117.6872         estimate D2E/DX2                !
 ! A118  A(37,39,43)           118.7253         estimate D2E/DX2                !
 ! A119  A(37,39,79)           120.2529         estimate D2E/DX2                !
 ! A120  A(43,39,79)           115.3372         estimate D2E/DX2                !
 ! A121  A(41,40,44)           121.1453         estimate D2E/DX2                !
 ! A122  A(41,40,79)           108.6438         estimate D2E/DX2                !
 ! A123  A(44,40,79)           122.5853         estimate D2E/DX2                !
 ! A124  A(40,41,45)           119.9969         estimate D2E/DX2                !
 ! A125  A(40,41,80)           108.7756         estimate D2E/DX2                !
 ! A126  A(45,41,80)           123.6834         estimate D2E/DX2                !
 ! A127  A(38,42,46)           119.7915         estimate D2E/DX2                !
 ! A128  A(38,42,80)           119.4662         estimate D2E/DX2                !
 ! A129  A(46,42,80)           115.3621         estimate D2E/DX2                !
 ! A130  A(2,43,13)            108.4139         estimate D2E/DX2                !
 ! A131  A(2,43,39)            122.0659         estimate D2E/DX2                !
 ! A132  A(13,43,39)           121.4048         estimate D2E/DX2                !
 ! A133  A(2,44,40)            114.9698         estimate D2E/DX2                !
 ! A134  A(2,44,47)            120.6503         estimate D2E/DX2                !
 ! A135  A(40,44,47)           118.7152         estimate D2E/DX2                !
 ! A136  A(4,45,41)            114.2955         estimate D2E/DX2                !
 ! A137  A(4,45,48)            123.9826         estimate D2E/DX2                !
 ! A138  A(41,45,48)           120.1285         estimate D2E/DX2                !
 ! A139  A(4,46,14)            109.8108         estimate D2E/DX2                !
 ! A140  A(4,46,42)            124.0686         estimate D2E/DX2                !
 ! A141  A(14,46,42)           120.7498         estimate D2E/DX2                !
 ! A142  A(44,47,48)           119.0247         estimate D2E/DX2                !
 ! A143  A(44,47,49)           116.8277         estimate D2E/DX2                !
 ! A144  A(48,47,49)           119.6495         estimate D2E/DX2                !
 ! A145  A(45,48,47)           120.9123         estimate D2E/DX2                !
 ! A146  A(45,48,50)           119.0555         estimate D2E/DX2                !
 ! A147  A(47,48,50)           118.8185         estimate D2E/DX2                !
 ! A148  A(10,49,47)           121.9117         estimate D2E/DX2                !
 ! A149  A(10,49,51)           106.2274         estimate D2E/DX2                !
 ! A150  A(47,49,51)           119.8708         estimate D2E/DX2                !
 ! A151  A(11,50,48)           111.2492         estimate D2E/DX2                !
 ! A152  A(11,50,52)           100.6011         estimate D2E/DX2                !
 ! A153  A(11,50,86)           112.5216         estimate D2E/DX2                !
 ! A154  A(48,50,52)           111.7237         estimate D2E/DX2                !
 ! A155  A(48,50,86)           108.6579         estimate D2E/DX2                !
 ! A156  A(52,50,86)           111.9767         estimate D2E/DX2                !
 ! A157  A(49,51,52)           120.4804         estimate D2E/DX2                !
 ! A158  A(49,51,55)           109.1324         estimate D2E/DX2                !
 ! A159  A(52,51,55)           120.9314         estimate D2E/DX2                !
 ! A160  A(50,52,51)           121.8499         estimate D2E/DX2                !
 ! A161  A(50,52,56)           112.0304         estimate D2E/DX2                !
 ! A162  A(51,52,56)           118.8515         estimate D2E/DX2                !
 ! A163  A(10,53,19)           120.4148         estimate D2E/DX2                !
 ! A164  A(10,53,55)           108.894          estimate D2E/DX2                !
 ! A165  A(19,53,55)           119.2268         estimate D2E/DX2                !
 ! A166  A(11,54,20)           121.9841         estimate D2E/DX2                !
 ! A167  A(11,54,56)           108.4997         estimate D2E/DX2                !
 ! A168  A(20,54,56)           121.7471         estimate D2E/DX2                !
 ! A169  A(51,55,53)           106.4679         estimate D2E/DX2                !
 ! A170  A(51,55,83)           121.7481         estimate D2E/DX2                !
 ! A171  A(53,55,83)           122.4313         estimate D2E/DX2                !
 ! A172  A(52,56,54)           107.7354         estimate D2E/DX2                !
 ! A173  A(52,56,84)           121.3797         estimate D2E/DX2                !
 ! A174  A(54,56,84)           122.2253         estimate D2E/DX2                !
 ! A175  A(21,57,59)           117.2497         estimate D2E/DX2                !
 ! A176  A(21,57,83)           118.0789         estimate D2E/DX2                !
 ! A177  A(59,57,83)           119.2897         estimate D2E/DX2                !
 ! A178  A(22,58,60)           108.471          estimate D2E/DX2                !
 ! A179  A(22,58,84)           122.3265         estimate D2E/DX2                !
 ! A180  A(60,58,84)           120.6979         estimate D2E/DX2                !
 ! A181  A(57,59,60)           119.609          estimate D2E/DX2                !
 ! A182  A(57,59,61)           120.1808         estimate D2E/DX2                !
 ! A183  A(60,59,61)           114.5357         estimate D2E/DX2                !
 ! A184  A(58,60,59)           120.7971         estimate D2E/DX2                !
 ! A185  A(58,60,62)           108.568          estimate D2E/DX2                !
 ! A186  A(59,60,62)           122.3562         estimate D2E/DX2                !
 ! A187  A(25,61,59)           120.2257         estimate D2E/DX2                !
 ! A188  A(25,61,63)           106.7638         estimate D2E/DX2                !
 ! A189  A(59,61,63)           122.4995         estimate D2E/DX2                !
 ! A190  A(24,62,60)           106.6771         estimate D2E/DX2                !
 ! A191  A(24,62,64)           120.84           estimate D2E/DX2                !
 ! A192  A(60,62,64)           122.1783         estimate D2E/DX2                !
 ! A193  A(61,63,64)           122.1852         estimate D2E/DX2                !
 ! A194  A(61,63,65)           108.3647         estimate D2E/DX2                !
 ! A195  A(64,63,65)           120.805          estimate D2E/DX2                !
 ! A196  A(62,64,63)           114.6777         estimate D2E/DX2                !
 ! A197  A(62,64,66)           120.2302         estimate D2E/DX2                !
 ! A198  A(63,64,66)           119.0675         estimate D2E/DX2                !
 ! A199  A(27,65,63)           108.3185         estimate D2E/DX2                !
 ! A200  A(27,65,67)           122.1044         estimate D2E/DX2                !
 ! A201  A(63,65,67)           121.4232         estimate D2E/DX2                !
 ! A202  A(28,66,64)           116.6392         estimate D2E/DX2                !
 ! A203  A(28,66,68)           118.0327         estimate D2E/DX2                !
 ! A204  A(64,66,68)           120.0993         estimate D2E/DX2                !
 ! A205  A(65,67,68)           119.0974         estimate D2E/DX2                !
 ! A206  A(65,67,69)           114.8542         estimate D2E/DX2                !
 ! A207  A(68,67,69)           120.1516         estimate D2E/DX2                !
 ! A208  A(66,68,67)           119.4121         estimate D2E/DX2                !
 ! A209  A(66,68,70)           118.5519         estimate D2E/DX2                !
 ! A210  A(67,68,70)           116.7138         estimate D2E/DX2                !
 ! A211  A(31,69,67)           121.6073         estimate D2E/DX2                !
 ! A212  A(31,69,71)           107.4443         estimate D2E/DX2                !
 ! A213  A(67,69,71)           121.0692         estimate D2E/DX2                !
 ! A214  A(32,70,68)           121.3362         estimate D2E/DX2                !
 ! A215  A(32,70,72)           105.9778         estimate D2E/DX2                !
 ! A216  A(68,70,72)           122.478          estimate D2E/DX2                !
 ! A217  A(69,71,72)           119.282          estimate D2E/DX2                !
 ! A218  A(69,71,73)           108.1536         estimate D2E/DX2                !
 ! A219  A(72,71,73)           120.5119         estimate D2E/DX2                !
 ! A220  A(70,72,71)           120.1101         estimate D2E/DX2                !
 ! A221  A(70,72,74)           108.2124         estimate D2E/DX2                !
 ! A222  A(71,72,74)           119.6261         estimate D2E/DX2                !
 ! A223  A(33,73,71)           108.1568         estimate D2E/DX2                !
 ! A224  A(33,73,75)           119.5357         estimate D2E/DX2                !
 ! A225  A(71,73,75)           120.0706         estimate D2E/DX2                !
 ! A226  A(34,74,72)           108.7873         estimate D2E/DX2                !
 ! A227  A(34,74,76)           119.0885         estimate D2E/DX2                !
 ! A228  A(72,74,76)           120.1348         estimate D2E/DX2                !
 ! A229  A(73,75,76)           119.7016         estimate D2E/DX2                !
 ! A230  A(73,75,77)           119.3015         estimate D2E/DX2                !
 ! A231  A(76,75,77)           108.8165         estimate D2E/DX2                !
 ! A232  A(74,76,75)           119.9359         estimate D2E/DX2                !
 ! A233  A(74,76,78)           119.5866         estimate D2E/DX2                !
 ! A234  A(75,76,78)           108.602          estimate D2E/DX2                !
 ! A235  A(37,77,75)           122.1405         estimate D2E/DX2                !
 ! A236  A(37,77,81)           121.3679         estimate D2E/DX2                !
 ! A237  A(75,77,81)           106.1287         estimate D2E/DX2                !
 ! A238  A(38,78,76)           122.4257         estimate D2E/DX2                !
 ! A239  A(38,78,81)           121.2366         estimate D2E/DX2                !
 ! A240  A(76,78,81)           106.0904         estimate D2E/DX2                !
 ! A241  A(39,79,40)           121.1083         estimate D2E/DX2                !
 ! A242  A(39,79,82)           120.7825         estimate D2E/DX2                !
 ! A243  A(40,79,82)           106.1889         estimate D2E/DX2                !
 ! A244  A(41,80,42)           121.3348         estimate D2E/DX2                !
 ! A245  A(41,80,82)           106.4643         estimate D2E/DX2                !
 ! A246  A(42,80,82)           120.2268         estimate D2E/DX2                !
 ! A247  A(77,81,78)           109.5148         estimate D2E/DX2                !
 ! A248  A(77,81,82)           120.3896         estimate D2E/DX2                !
 ! A249  A(78,81,82)           120.1785         estimate D2E/DX2                !
 ! A250  A(79,82,80)           109.8268         estimate D2E/DX2                !
 ! A251  A(79,82,81)           119.3317         estimate D2E/DX2                !
 ! A252  A(80,82,81)           120.3268         estimate D2E/DX2                !
 ! A253  A(55,83,57)           118.2711         estimate D2E/DX2                !
 ! A254  A(55,83,84)           116.4297         estimate D2E/DX2                !
 ! A255  A(57,83,84)           119.9448         estimate D2E/DX2                !
 ! A256  A(56,84,58)           115.0302         estimate D2E/DX2                !
 ! A257  A(56,84,83)           120.023          estimate D2E/DX2                !
 ! A258  A(58,84,83)           119.4643         estimate D2E/DX2                !
 ! D1    D(17,1,5,9)             0.6192         estimate D2E/DX2                !
 ! D2    D(17,1,5,29)         -153.1183         estimate D2E/DX2                !
 ! D3    D(23,1,5,9)           140.7103         estimate D2E/DX2                !
 ! D4    D(23,1,5,29)          -13.0272         estimate D2E/DX2                !
 ! D5    D(5,1,17,15)           -2.2353         estimate D2E/DX2                !
 ! D6    D(5,1,17,19)          139.8188         estimate D2E/DX2                !
 ! D7    D(23,1,17,15)        -147.3677         estimate D2E/DX2                !
 ! D8    D(23,1,17,19)          -5.3136         estimate D2E/DX2                !
 ! D9    D(5,1,23,21)         -136.6407         estimate D2E/DX2                !
 ! D10   D(5,1,23,25)            8.703          estimate D2E/DX2                !
 ! D11   D(17,1,23,21)           8.9465         estimate D2E/DX2                !
 ! D12   D(17,1,23,25)         154.2902         estimate D2E/DX2                !
 ! D13   D(43,2,6,10)         -145.2506         estimate D2E/DX2                !
 ! D14   D(43,2,6,15)           -2.9424         estimate D2E/DX2                !
 ! D15   D(44,2,6,10)           -0.2787         estimate D2E/DX2                !
 ! D16   D(44,2,6,15)          142.0295         estimate D2E/DX2                !
 ! D17   D(6,2,43,13)            5.77           estimate D2E/DX2                !
 ! D18   D(6,2,43,39)          154.7113         estimate D2E/DX2                !
 ! D19   D(44,2,43,13)        -138.983          estimate D2E/DX2                !
 ! D20   D(44,2,43,39)           9.9583         estimate D2E/DX2                !
 ! D21   D(6,2,44,40)         -155.8065         estimate D2E/DX2                !
 ! D22   D(6,2,44,47)           -2.6799         estimate D2E/DX2                !
 ! D23   D(43,2,44,40)         -15.4784         estimate D2E/DX2                !
 ! D24   D(43,2,44,47)         137.6482         estimate D2E/DX2                !
 ! D25   D(18,3,7,12)            2.8819         estimate D2E/DX2                !
 ! D26   D(18,3,7,30)          148.0094         estimate D2E/DX2                !
 ! D27   D(26,3,7,12)         -142.5226         estimate D2E/DX2                !
 ! D28   D(26,3,7,30)            2.6048         estimate D2E/DX2                !
 ! D29   D(7,3,18,16)            6.2814         estimate D2E/DX2                !
 ! D30   D(7,3,18,20)         -143.761          estimate D2E/DX2                !
 ! D31   D(26,3,18,16)         147.287          estimate D2E/DX2                !
 ! D32   D(26,3,18,20)          -2.7554         estimate D2E/DX2                !
 ! D33   D(7,3,26,24)          147.0501         estimate D2E/DX2                !
 ! D34   D(7,3,26,28)            2.5411         estimate D2E/DX2                !
 ! D35   D(18,3,26,24)           1.0957         estimate D2E/DX2                !
 ! D36   D(18,3,26,28)        -143.4133         estimate D2E/DX2                !
 ! D37   D(45,4,8,11)           22.4049         estimate D2E/DX2                !
 ! D38   D(45,4,8,16)         -127.9066         estimate D2E/DX2                !
 ! D39   D(46,4,8,11)          142.0883         estimate D2E/DX2                !
 ! D40   D(46,4,8,16)           -8.2231         estimate D2E/DX2                !
 ! D41   D(85,4,8,11)          -99.6353         estimate D2E/DX2                !
 ! D42   D(85,4,8,16)          110.0532         estimate D2E/DX2                !
 ! D43   D(8,4,45,41)          144.4635         estimate D2E/DX2                !
 ! D44   D(8,4,45,48)          -21.1028         estimate D2E/DX2                !
 ! D45   D(46,4,45,41)          31.7483         estimate D2E/DX2                !
 ! D46   D(46,4,45,48)        -133.8179         estimate D2E/DX2                !
 ! D47   D(85,4,45,41)         -91.2238         estimate D2E/DX2                !
 ! D48   D(85,4,45,48)         103.2099         estimate D2E/DX2                !
 ! D49   D(8,4,46,14)            9.2816         estimate D2E/DX2                !
 ! D50   D(8,4,46,42)         -144.8323         estimate D2E/DX2                !
 ! D51   D(45,4,46,14)         127.6153         estimate D2E/DX2                !
 ! D52   D(45,4,46,42)         -26.4985         estimate D2E/DX2                !
 ! D53   D(85,4,46,14)        -110.4662         estimate D2E/DX2                !
 ! D54   D(85,4,46,42)          95.4199         estimate D2E/DX2                !
 ! D55   D(1,5,9,13)             1.3177         estimate D2E/DX2                !
 ! D56   D(1,5,9,35)          -155.2304         estimate D2E/DX2                !
 ! D57   D(29,5,9,13)          154.407          estimate D2E/DX2                !
 ! D58   D(29,5,9,35)           -2.1412         estimate D2E/DX2                !
 ! D59   D(1,5,29,27)            8.6437         estimate D2E/DX2                !
 ! D60   D(1,5,29,31)          161.0761         estimate D2E/DX2                !
 ! D61   D(9,5,29,27)         -144.9184         estimate D2E/DX2                !
 ! D62   D(9,5,29,31)            7.5139         estimate D2E/DX2                !
 ! D63   D(2,6,10,49)           -0.8444         estimate D2E/DX2                !
 ! D64   D(2,6,10,53)          137.8788         estimate D2E/DX2                !
 ! D65   D(15,6,10,49)        -138.363          estimate D2E/DX2                !
 ! D66   D(15,6,10,53)           0.3603         estimate D2E/DX2                !
 ! D67   D(2,6,15,13)           -1.0116         estimate D2E/DX2                !
 ! D68   D(2,6,15,17)         -143.3144         estimate D2E/DX2                !
 ! D69   D(10,6,15,13)         140.5229         estimate D2E/DX2                !
 ! D70   D(10,6,15,17)          -1.78           estimate D2E/DX2                !
 ! D71   D(3,7,12,14)           -8.5699         estimate D2E/DX2                !
 ! D72   D(3,7,12,36)          144.7751         estimate D2E/DX2                !
 ! D73   D(30,7,12,14)        -149.4641         estimate D2E/DX2                !
 ! D74   D(30,7,12,36)           3.8809         estimate D2E/DX2                !
 ! D75   D(3,7,30,28)           -6.9483         estimate D2E/DX2                !
 ! D76   D(3,7,30,32)         -152.201          estimate D2E/DX2                !
 ! D77   D(12,7,30,28)         139.1877         estimate D2E/DX2                !
 ! D78   D(12,7,30,32)          -6.0649         estimate D2E/DX2                !
 ! D79   D(4,8,11,50)            1.4887         estimate D2E/DX2                !
 ! D80   D(4,8,11,54)         -146.7265         estimate D2E/DX2                !
 ! D81   D(16,8,11,50)         149.0614         estimate D2E/DX2                !
 ! D82   D(16,8,11,54)           0.8463         estimate D2E/DX2                !
 ! D83   D(4,8,16,14)            4.4379         estimate D2E/DX2                !
 ! D84   D(4,8,16,18)          153.6311         estimate D2E/DX2                !
 ! D85   D(11,8,16,14)        -146.5391         estimate D2E/DX2                !
 ! D86   D(11,8,16,18)           2.654          estimate D2E/DX2                !
 ! D87   D(5,9,13,15)           -1.7189         estimate D2E/DX2                !
 ! D88   D(5,9,13,43)         -144.1959         estimate D2E/DX2                !
 ! D89   D(35,9,13,15)         155.665          estimate D2E/DX2                !
 ! D90   D(35,9,13,43)          13.188          estimate D2E/DX2                !
 ! D91   D(5,9,35,33)           -8.1274         estimate D2E/DX2                !
 ! D92   D(5,9,35,37)          148.5702         estimate D2E/DX2                !
 ! D93   D(13,9,35,33)        -164.8267         estimate D2E/DX2                !
 ! D94   D(13,9,35,37)          -8.1292         estimate D2E/DX2                !
 ! D95   D(6,10,49,47)           5.1441         estimate D2E/DX2                !
 ! D96   D(6,10,49,51)         147.5458         estimate D2E/DX2                !
 ! D97   D(53,10,49,47)       -137.4777         estimate D2E/DX2                !
 ! D98   D(53,10,49,51)          4.9239         estimate D2E/DX2                !
 ! D99   D(6,10,53,19)           0.725          estimate D2E/DX2                !
 ! D100  D(6,10,53,55)        -142.3431         estimate D2E/DX2                !
 ! D101  D(49,10,53,19)        144.0394         estimate D2E/DX2                !
 ! D102  D(49,10,53,55)          0.9713         estimate D2E/DX2                !
 ! D103  D(8,11,50,48)         -26.8769         estimate D2E/DX2                !
 ! D104  D(8,11,50,52)        -145.3541         estimate D2E/DX2                !
 ! D105  D(8,11,50,86)          95.3204         estimate D2E/DX2                !
 ! D106  D(54,11,50,48)        123.7037         estimate D2E/DX2                !
 ! D107  D(54,11,50,52)          5.2265         estimate D2E/DX2                !
 ! D108  D(54,11,50,86)       -114.099          estimate D2E/DX2                !
 ! D109  D(8,11,54,20)          -2.847          estimate D2E/DX2                !
 ! D110  D(8,11,54,56)         146.8184         estimate D2E/DX2                !
 ! D111  D(50,11,54,20)       -154.5852         estimate D2E/DX2                !
 ! D112  D(50,11,54,56)         -4.9199         estimate D2E/DX2                !
 ! D113  D(7,12,14,16)           5.2959         estimate D2E/DX2                !
 ! D114  D(7,12,14,46)         153.0591         estimate D2E/DX2                !
 ! D115  D(36,12,14,16)       -148.515          estimate D2E/DX2                !
 ! D116  D(36,12,14,46)         -0.7518         estimate D2E/DX2                !
 ! D117  D(7,12,36,34)           4.5483         estimate D2E/DX2                !
 ! D118  D(7,12,36,38)        -149.5009         estimate D2E/DX2                !
 ! D119  D(14,12,36,34)        156.8678         estimate D2E/DX2                !
 ! D120  D(14,12,36,38)          2.8186         estimate D2E/DX2                !
 ! D121  D(9,13,15,6)         -142.4648         estimate D2E/DX2                !
 ! D122  D(9,13,15,17)           0.1326         estimate D2E/DX2                !
 ! D123  D(43,13,15,6)           4.516          estimate D2E/DX2                !
 ! D124  D(43,13,15,17)        147.1134         estimate D2E/DX2                !
 ! D125  D(9,13,43,2)          141.1364         estimate D2E/DX2                !
 ! D126  D(9,13,43,39)          -8.0499         estimate D2E/DX2                !
 ! D127  D(15,13,43,2)          -6.36           estimate D2E/DX2                !
 ! D128  D(15,13,43,39)       -155.5463         estimate D2E/DX2                !
 ! D129  D(12,14,16,8)         153.0653         estimate D2E/DX2                !
 ! D130  D(12,14,16,18)          3.8447         estimate D2E/DX2                !
 ! D131  D(46,14,16,8)           1.7938         estimate D2E/DX2                !
 ! D132  D(46,14,16,18)       -147.4268         estimate D2E/DX2                !
 ! D133  D(12,14,46,4)        -158.7487         estimate D2E/DX2                !
 ! D134  D(12,14,46,42)         -3.6348         estimate D2E/DX2                !
 ! D135  D(16,14,46,4)          -7.2515         estimate D2E/DX2                !
 ! D136  D(16,14,46,42)        147.8624         estimate D2E/DX2                !
 ! D137  D(6,15,17,1)          140.0199         estimate D2E/DX2                !
 ! D138  D(6,15,17,19)           2.0731         estimate D2E/DX2                !
 ! D139  D(13,15,17,1)           1.8342         estimate D2E/DX2                !
 ! D140  D(13,15,17,19)       -136.1126         estimate D2E/DX2                !
 ! D141  D(8,16,18,3)         -154.5765         estimate D2E/DX2                !
 ! D142  D(8,16,18,20)          -4.0848         estimate D2E/DX2                !
 ! D143  D(14,16,18,3)          -9.5115         estimate D2E/DX2                !
 ! D144  D(14,16,18,20)        140.9802         estimate D2E/DX2                !
 ! D145  D(1,17,19,21)          -0.1836         estimate D2E/DX2                !
 ! D146  D(1,17,19,53)        -142.9075         estimate D2E/DX2                !
 ! D147  D(15,17,19,21)        141.7311         estimate D2E/DX2                !
 ! D148  D(15,17,19,53)         -0.9928         estimate D2E/DX2                !
 ! D149  D(3,18,20,22)           2.3018         estimate D2E/DX2                !
 ! D150  D(3,18,20,54)         151.3586         estimate D2E/DX2                !
 ! D151  D(16,18,20,22)       -147.0013         estimate D2E/DX2                !
 ! D152  D(16,18,20,54)          2.0555         estimate D2E/DX2                !
 ! D153  D(17,19,21,23)          5.6128         estimate D2E/DX2                !
 ! D154  D(17,19,21,57)       -139.7705         estimate D2E/DX2                !
 ! D155  D(53,19,21,23)        148.589          estimate D2E/DX2                !
 ! D156  D(53,19,21,57)          3.2057         estimate D2E/DX2                !
 ! D157  D(17,19,53,10)         -0.4207         estimate D2E/DX2                !
 ! D158  D(17,19,53,55)        138.9306         estimate D2E/DX2                !
 ! D159  D(21,19,53,10)       -139.1929         estimate D2E/DX2                !
 ! D160  D(21,19,53,55)          0.1583         estimate D2E/DX2                !
 ! D161  D(18,20,22,24)         -0.2407         estimate D2E/DX2                !
 ! D162  D(18,20,22,58)        140.0689         estimate D2E/DX2                !
 ! D163  D(54,20,22,24)       -150.2081         estimate D2E/DX2                !
 ! D164  D(54,20,22,58)         -9.8985         estimate D2E/DX2                !
 ! D165  D(18,20,54,11)          1.3326         estimate D2E/DX2                !
 ! D166  D(18,20,54,56)       -144.3885         estimate D2E/DX2                !
 ! D167  D(22,20,54,11)        151.4727         estimate D2E/DX2                !
 ! D168  D(22,20,54,56)          5.7515         estimate D2E/DX2                !
 ! D169  D(19,21,23,1)          -9.0351         estimate D2E/DX2                !
 ! D170  D(19,21,23,25)       -154.3787         estimate D2E/DX2                !
 ! D171  D(57,21,23,1)         136.7839         estimate D2E/DX2                !
 ! D172  D(57,21,23,25)         -8.5597         estimate D2E/DX2                !
 ! D173  D(19,21,57,59)        150.4714         estimate D2E/DX2                !
 ! D174  D(19,21,57,83)         -3.4855         estimate D2E/DX2                !
 ! D175  D(23,21,57,59)         10.2077         estimate D2E/DX2                !
 ! D176  D(23,21,57,83)       -143.7493         estimate D2E/DX2                !
 ! D177  D(20,22,24,26)         -1.439          estimate D2E/DX2                !
 ! D178  D(20,22,24,62)        142.7259         estimate D2E/DX2                !
 ! D179  D(58,22,24,26)       -147.0323         estimate D2E/DX2                !
 ! D180  D(58,22,24,62)         -2.8674         estimate D2E/DX2                !
 ! D181  D(20,22,58,60)       -143.582          estimate D2E/DX2                !
 ! D182  D(20,22,58,84)          4.4496         estimate D2E/DX2                !
 ! D183  D(24,22,58,60)          1.3117         estimate D2E/DX2                !
 ! D184  D(24,22,58,84)        149.3433         estimate D2E/DX2                !
 ! D185  D(1,23,25,27)           0.6268         estimate D2E/DX2                !
 ! D186  D(1,23,25,61)        -140.3522         estimate D2E/DX2                !
 ! D187  D(21,23,25,27)        142.3149         estimate D2E/DX2                !
 ! D188  D(21,23,25,61)          1.3359         estimate D2E/DX2                !
 ! D189  D(22,24,26,3)           1.013          estimate D2E/DX2                !
 ! D190  D(22,24,26,28)        141.687          estimate D2E/DX2                !
 ! D191  D(62,24,26,3)        -139.5912         estimate D2E/DX2                !
 ! D192  D(62,24,26,28)          1.0828         estimate D2E/DX2                !
 ! D193  D(22,24,62,60)          3.2894         estimate D2E/DX2                !
 ! D194  D(22,24,62,64)       -142.4374         estimate D2E/DX2                !
 ! D195  D(26,24,62,60)        147.8962         estimate D2E/DX2                !
 ! D196  D(26,24,62,64)          2.1694         estimate D2E/DX2                !
 ! D197  D(23,25,27,29)         -4.9133         estimate D2E/DX2                !
 ! D198  D(23,25,27,65)       -149.5682         estimate D2E/DX2                !
 ! D199  D(61,25,27,29)        139.8            estimate D2E/DX2                !
 ! D200  D(61,25,27,65)         -4.8549         estimate D2E/DX2                !
 ! D201  D(23,25,61,59)          3.6671         estimate D2E/DX2                !
 ! D202  D(23,25,61,63)        149.2485         estimate D2E/DX2                !
 ! D203  D(27,25,61,59)       -140.9883         estimate D2E/DX2                !
 ! D204  D(27,25,61,63)          4.5931         estimate D2E/DX2                !
 ! D205  D(3,26,28,30)          -6.6376         estimate D2E/DX2                !
 ! D206  D(3,26,28,66)         138.1329         estimate D2E/DX2                !
 ! D207  D(24,26,28,30)       -151.0553         estimate D2E/DX2                !
 ! D208  D(24,26,28,66)         -6.2849         estimate D2E/DX2                !
 ! D209  D(25,27,29,5)           0.1405         estimate D2E/DX2                !
 ! D210  D(25,27,29,31)       -153.2717         estimate D2E/DX2                !
 ! D211  D(65,27,29,5)         139.4725         estimate D2E/DX2                !
 ! D212  D(65,27,29,31)        -13.9397         estimate D2E/DX2                !
 ! D213  D(25,27,65,63)          3.2164         estimate D2E/DX2                !
 ! D214  D(25,27,65,67)        152.0921         estimate D2E/DX2                !
 ! D215  D(29,27,65,63)       -140.7344         estimate D2E/DX2                !
 ! D216  D(29,27,65,67)          8.1414         estimate D2E/DX2                !
 ! D217  D(26,28,30,7)           8.3273         estimate D2E/DX2                !
 ! D218  D(26,28,30,32)        153.3771         estimate D2E/DX2                !
 ! D219  D(66,28,30,7)        -136.7717         estimate D2E/DX2                !
 ! D220  D(66,28,30,32)          8.2781         estimate D2E/DX2                !
 ! D221  D(26,28,66,64)          7.6972         estimate D2E/DX2                !
 ! D222  D(26,28,66,68)       -146.8198         estimate D2E/DX2                !
 ! D223  D(30,28,66,64)        146.9653         estimate D2E/DX2                !
 ! D224  D(30,28,66,68)         -7.5517         estimate D2E/DX2                !
 ! D225  D(5,29,31,33)          -2.6426         estimate D2E/DX2                !
 ! D226  D(5,29,31,69)        -148.2702         estimate D2E/DX2                !
 ! D227  D(27,29,31,33)        151.2499         estimate D2E/DX2                !
 ! D228  D(27,29,31,69)          5.6223         estimate D2E/DX2                !
 ! D229  D(7,30,32,34)          -0.3092         estimate D2E/DX2                !
 ! D230  D(7,30,32,70)         141.6147         estimate D2E/DX2                !
 ! D231  D(28,30,32,34)       -142.0222         estimate D2E/DX2                !
 ! D232  D(28,30,32,70)         -0.0982         estimate D2E/DX2                !
 ! D233  D(29,31,33,35)         -8.1707         estimate D2E/DX2                !
 ! D234  D(29,31,33,73)       -155.9223         estimate D2E/DX2                !
 ! D235  D(69,31,33,35)        141.473          estimate D2E/DX2                !
 ! D236  D(69,31,33,73)         -6.2787         estimate D2E/DX2                !
 ! D237  D(29,31,69,67)          8.9666         estimate D2E/DX2                !
 ! D238  D(29,31,69,71)        154.916          estimate D2E/DX2                !
 ! D239  D(33,31,69,67)       -140.3736         estimate D2E/DX2                !
 ! D240  D(33,31,69,71)          5.5759         estimate D2E/DX2                !
 ! D241  D(30,32,34,36)          9.1085         estimate D2E/DX2                !
 ! D242  D(30,32,34,74)        154.4821         estimate D2E/DX2                !
 ! D243  D(70,32,34,36)       -135.9588         estimate D2E/DX2                !
 ! D244  D(70,32,34,74)          9.4148         estimate D2E/DX2                !
 ! D245  D(30,32,70,68)         -8.6628         estimate D2E/DX2                !
 ! D246  D(30,32,70,72)       -154.5855         estimate D2E/DX2                !
 ! D247  D(34,32,70,68)        136.866          estimate D2E/DX2                !
 ! D248  D(34,32,70,72)         -9.0567         estimate D2E/DX2                !
 ! D249  D(31,33,35,9)          13.2528         estimate D2E/DX2                !
 ! D250  D(31,33,35,37)       -144.1734         estimate D2E/DX2                !
 ! D251  D(73,33,35,9)         156.02           estimate D2E/DX2                !
 ! D252  D(73,33,35,37)         -1.4062         estimate D2E/DX2                !
 ! D253  D(31,33,73,71)          4.5308         estimate D2E/DX2                !
 ! D254  D(31,33,73,75)        146.8942         estimate D2E/DX2                !
 ! D255  D(35,33,73,71)       -142.7532         estimate D2E/DX2                !
 ! D256  D(35,33,73,75)         -0.3898         estimate D2E/DX2                !
 ! D257  D(32,34,36,12)        -10.9903         estimate D2E/DX2                !
 ! D258  D(32,34,36,38)        143.2915         estimate D2E/DX2                !
 ! D259  D(74,34,36,12)       -150.7271         estimate D2E/DX2                !
 ! D260  D(74,34,36,38)          3.5547         estimate D2E/DX2                !
 ! D261  D(32,34,74,72)         -5.9882         estimate D2E/DX2                !
 ! D262  D(32,34,74,76)       -148.7457         estimate D2E/DX2                !
 ! D263  D(36,34,74,72)        138.816          estimate D2E/DX2                !
 ! D264  D(36,34,74,76)         -3.9415         estimate D2E/DX2                !
 ! D265  D(9,35,37,39)          -2.173          estimate D2E/DX2                !
 ! D266  D(9,35,37,77)        -155.0415         estimate D2E/DX2                !
 ! D267  D(33,35,37,39)        154.3926         estimate D2E/DX2                !
 ! D268  D(33,35,37,77)          1.5241         estimate D2E/DX2                !
 ! D269  D(12,36,38,42)         -0.7194         estimate D2E/DX2                !
 ! D270  D(12,36,38,78)        154.1451         estimate D2E/DX2                !
 ! D271  D(34,36,38,42)       -154.4933         estimate D2E/DX2                !
 ! D272  D(34,36,38,78)          0.3711         estimate D2E/DX2                !
 ! D273  D(35,37,39,43)          7.5981         estimate D2E/DX2                !
 ! D274  D(35,37,39,79)       -144.6036         estimate D2E/DX2                !
 ! D275  D(77,37,39,43)        161.0021         estimate D2E/DX2                !
 ! D276  D(77,37,39,79)          8.8004         estimate D2E/DX2                !
 ! D277  D(35,37,77,75)          0.0814         estimate D2E/DX2                !
 ! D278  D(35,37,77,81)        140.1894         estimate D2E/DX2                !
 ! D279  D(39,37,77,75)       -153.475          estimate D2E/DX2                !
 ! D280  D(39,37,77,81)        -13.3669         estimate D2E/DX2                !
 ! D281  D(36,38,42,46)         -3.574          estimate D2E/DX2                !
 ! D282  D(36,38,42,80)        149.3447         estimate D2E/DX2                !
 ! D283  D(78,38,42,46)       -158.5214         estimate D2E/DX2                !
 ! D284  D(78,38,42,80)         -5.6027         estimate D2E/DX2                !
 ! D285  D(36,38,78,76)         -3.9622         estimate D2E/DX2                !
 ! D286  D(36,38,78,81)       -144.2526         estimate D2E/DX2                !
 ! D287  D(42,38,78,76)        151.3531         estimate D2E/DX2                !
 ! D288  D(42,38,78,81)         11.0627         estimate D2E/DX2                !
 ! D289  D(37,39,43,2)        -147.7735         estimate D2E/DX2                !
 ! D290  D(37,39,43,13)         -2.7694         estimate D2E/DX2                !
 ! D291  D(79,39,43,2)           5.7569         estimate D2E/DX2                !
 ! D292  D(79,39,43,13)        150.761          estimate D2E/DX2                !
 ! D293  D(37,39,79,40)        137.8422         estimate D2E/DX2                !
 ! D294  D(37,39,79,82)          0.238          estimate D2E/DX2                !
 ! D295  D(43,39,79,40)        -15.254          estimate D2E/DX2                !
 ! D296  D(43,39,79,82)       -152.8582         estimate D2E/DX2                !
 ! D297  D(44,40,41,45)         -0.9492         estimate D2E/DX2                !
 ! D298  D(44,40,41,80)       -151.7138         estimate D2E/DX2                !
 ! D299  D(79,40,41,45)        149.2773         estimate D2E/DX2                !
 ! D300  D(79,40,41,80)         -1.4874         estimate D2E/DX2                !
 ! D301  D(41,40,44,2)         152.0635         estimate D2E/DX2                !
 ! D302  D(41,40,44,47)         -1.6154         estimate D2E/DX2                !
 ! D303  D(79,40,44,2)           6.0098         estimate D2E/DX2                !
 ! D304  D(79,40,44,47)       -147.6691         estimate D2E/DX2                !
 ! D305  D(41,40,79,39)       -140.024          estimate D2E/DX2                !
 ! D306  D(41,40,79,82)          2.8784         estimate D2E/DX2                !
 ! D307  D(44,40,79,39)          9.6849         estimate D2E/DX2                !
 ! D308  D(44,40,79,82)        152.5874         estimate D2E/DX2                !
 ! D309  D(40,41,45,4)        -163.616          estimate D2E/DX2                !
 ! D310  D(40,41,45,48)          2.5581         estimate D2E/DX2                !
 ! D311  D(80,41,45,4)         -17.3751         estimate D2E/DX2                !
 ! D312  D(80,41,45,48)        148.7989         estimate D2E/DX2                !
 ! D313  D(40,41,80,42)        142.0731         estimate D2E/DX2                !
 ! D314  D(40,41,80,82)         -0.5373         estimate D2E/DX2                !
 ! D315  D(45,41,80,42)         -7.3751         estimate D2E/DX2                !
 ! D316  D(45,41,80,82)       -149.9855         estimate D2E/DX2                !
 ! D317  D(38,42,46,4)         157.1941         estimate D2E/DX2                !
 ! D318  D(38,42,46,14)          5.7451         estimate D2E/DX2                !
 ! D319  D(80,42,46,4)           3.2114         estimate D2E/DX2                !
 ! D320  D(80,42,46,14)       -148.2376         estimate D2E/DX2                !
 ! D321  D(38,42,80,41)       -139.3254         estimate D2E/DX2                !
 ! D322  D(38,42,80,82)         -1.6992         estimate D2E/DX2                !
 ! D323  D(46,42,80,41)         14.7474         estimate D2E/DX2                !
 ! D324  D(46,42,80,82)        152.3736         estimate D2E/DX2                !
 ! D325  D(2,44,47,48)        -149.5671         estimate D2E/DX2                !
 ! D326  D(2,44,47,49)           6.5823         estimate D2E/DX2                !
 ! D327  D(40,44,47,48)          2.5782         estimate D2E/DX2                !
 ! D328  D(40,44,47,49)        158.7276         estimate D2E/DX2                !
 ! D329  D(4,45,48,47)         163.2172         estimate D2E/DX2                !
 ! D330  D(4,45,48,50)          -4.0474         estimate D2E/DX2                !
 ! D331  D(41,45,48,47)         -1.5542         estimate D2E/DX2                !
 ! D332  D(41,45,48,50)       -168.8188         estimate D2E/DX2                !
 ! D333  D(44,47,48,45)         -1.0257         estimate D2E/DX2                !
 ! D334  D(44,47,48,50)        166.2685         estimate D2E/DX2                !
 ! D335  D(49,47,48,45)       -156.4942         estimate D2E/DX2                !
 ! D336  D(49,47,48,50)         10.8            estimate D2E/DX2                !
 ! D337  D(44,47,49,10)         -7.8093         estimate D2E/DX2                !
 ! D338  D(44,47,49,51)       -145.3113         estimate D2E/DX2                !
 ! D339  D(48,47,49,10)        148.1843         estimate D2E/DX2                !
 ! D340  D(48,47,49,51)         10.6823         estimate D2E/DX2                !
 ! D341  D(45,48,50,11)         27.448          estimate D2E/DX2                !
 ! D342  D(45,48,50,52)        139.0042         estimate D2E/DX2                !
 ! D343  D(45,48,50,86)        -96.9594         estimate D2E/DX2                !
 ! D344  D(47,48,50,11)       -140.0854         estimate D2E/DX2                !
 ! D345  D(47,48,50,52)        -28.5291         estimate D2E/DX2                !
 ! D346  D(47,48,50,86)         95.5072         estimate D2E/DX2                !
 ! D347  D(10,49,51,52)       -155.7599         estimate D2E/DX2                !
 ! D348  D(10,49,51,55)         -9.0925         estimate D2E/DX2                !
[...]
 Alpha virt. eigenvalues --    1.15421   1.15875   1.16293   1.16569   1.16737
 Alpha virt. eigenvalues --    1.16810   1.17176   1.17476   1.17819   1.17969
 Alpha virt. eigenvalues --    1.18459   1.18590   1.18829   1.19058   1.19418
 Alpha virt. eigenvalues --    1.19474   1.19649   1.20257   1.20460   1.20627
 Alpha virt. eigenvalues --    1.20812   1.21521   1.21702   1.22166   1.22477
 Alpha virt. eigenvalues --    1.22619   1.22936   1.23383   1.23672   1.23942
 Alpha virt. eigenvalues --    1.24636   1.24743   1.25235   1.25363   1.25633
 Alpha virt. eigenvalues --    1.26080   1.26210   1.26482   1.26856   1.26972
 Alpha virt. eigenvalues --    1.27370   1.27673   1.27904   1.28177   1.28425
 Alpha virt. eigenvalues --    1.28629   1.28920   1.29269   1.29408   1.29905
 Alpha virt. eigenvalues --    1.30296   1.30753   1.30891   1.31251   1.31733
 Alpha virt. eigenvalues --    1.31997   1.32327   1.32441   1.32917   1.33329
 Alpha virt. eigenvalues --    1.33479   1.34089   1.34521   1.34920   1.35188
 Alpha virt. eigenvalues --    1.35337   1.36232   1.36710   1.36738   1.37115
 Alpha virt. eigenvalues --    1.38003   1.38661   1.38770   1.39552   1.39921
 Alpha virt. eigenvalues --    1.40128   1.40537   1.41571   1.41816   1.42047
 Alpha virt. eigenvalues --    1.43151   1.43698   1.44833   1.44961   1.45178
 Alpha virt. eigenvalues --    1.45621   1.46271   1.47086   1.47263   1.47858
 Alpha virt. eigenvalues --    1.48230   1.48646   1.48858   1.49517   1.50124
 Alpha virt. eigenvalues --    1.50469   1.51519   1.52361   1.52551   1.52840
 Alpha virt. eigenvalues --    1.53040   1.53766   1.54182   1.54913   1.55291
 Alpha virt. eigenvalues --    1.55897   1.55983   1.56211   1.56515   1.57082
 Alpha virt. eigenvalues --    1.57206   1.58105   1.58438   1.58881   1.59203
 Alpha virt. eigenvalues --    1.59991   1.60192   1.60949   1.61459   1.62229
 Alpha virt. eigenvalues --    1.62494   1.62822   1.63904   1.64250   1.64574
 Alpha virt. eigenvalues --    1.64973   1.65395   1.65521   1.65568   1.65728
 Alpha virt. eigenvalues --    1.65945   1.66254   1.66515   1.66711   1.66933
 Alpha virt. eigenvalues --    1.67825   1.67940   1.68103   1.68399   1.68567
 Alpha virt. eigenvalues --    1.68982   1.69403   1.69676   1.69868   1.70037
 Alpha virt. eigenvalues --    1.70322   1.70519   1.70819   1.71160   1.71207
 Alpha virt. eigenvalues --    1.71338   1.71556   1.71714   1.72074   1.72573
 Alpha virt. eigenvalues --    1.72652   1.72885   1.73030   1.73292   1.73568
 Alpha virt. eigenvalues --    1.73620   1.73765   1.74301   1.74563   1.74632
 Alpha virt. eigenvalues --    1.74784   1.74992   1.75620   1.75884   1.76049
 Alpha virt. eigenvalues --    1.76207   1.76598   1.76754   1.77046   1.77485
 Alpha virt. eigenvalues --    1.77690   1.77711   1.77784   1.78278   1.78432
 Alpha virt. eigenvalues --    1.78747   1.78783   1.79190   1.79449   1.79577
 Alpha virt. eigenvalues --    1.79941   1.80104   1.81022   1.81381   1.82007
 Alpha virt. eigenvalues --    1.82620   1.83126   1.83885   1.84017   1.84570
 Alpha virt. eigenvalues --    1.84884   1.85709   1.85881   1.86118   1.86284
 Alpha virt. eigenvalues --    1.87021   1.87452   1.88205   1.88717   1.90031
 Alpha virt. eigenvalues --    1.90486   1.90911   1.91116   1.91683   1.92088
 Alpha virt. eigenvalues --    1.92503   1.92991   1.93391   1.93631   1.93940
 Alpha virt. eigenvalues --    1.94230   1.94444   1.94782   1.95438   1.95601
 Alpha virt. eigenvalues --    1.95830   1.95992   1.96378   1.96512   1.96608
 Alpha virt. eigenvalues --    1.97279   1.97830   1.98142   1.98172   1.98437
 Alpha virt. eigenvalues --    1.98544   1.98763   1.99017   1.99258   1.99305
 Alpha virt. eigenvalues --    1.99834   1.99993   2.00083   2.00264   2.00688
 Alpha virt. eigenvalues --    2.00831   2.00966   2.01102   2.01128   2.01429
 Alpha virt. eigenvalues --    2.01503   2.01861   2.02024   2.02153   2.02498
 Alpha virt. eigenvalues --    2.02895   2.02937   2.03133   2.03304   2.03751
 Alpha virt. eigenvalues --    2.03962   2.04128   2.04324   2.04920   2.05082
 Alpha virt. eigenvalues --    2.05187   2.05521   2.05760   2.06356   2.06732
 Alpha virt. eigenvalues --    2.06874   2.07835   2.08023   2.08602   2.08716
 Alpha virt. eigenvalues --    2.09157   2.09912   2.10456   2.10820   2.11139
 Alpha virt. eigenvalues --    2.11536   2.12167   2.12641   2.13129   2.13329
 Alpha virt. eigenvalues --    2.14000   2.14417   2.14887   2.14976   2.15539
 Alpha virt. eigenvalues --    2.15810   2.16041   2.16980   2.17923   2.18624
 Alpha virt. eigenvalues --    2.18862   2.19514   2.20067   2.20623   2.20937
 Alpha virt. eigenvalues --    2.21374   2.21644   2.21878   2.22081   2.22641
 Alpha virt. eigenvalues --    2.22757   2.22999   2.23372   2.23886   2.24450
 Alpha virt. eigenvalues --    2.24741   2.24846   2.25357   2.25583   2.26107
 Alpha virt. eigenvalues --    2.26742   2.26968   2.27598   2.28106   2.28186
 Alpha virt. eigenvalues --    2.28539   2.28701   2.29083   2.29708   2.29946
 Alpha virt. eigenvalues --    2.30177   2.30749   2.31240   2.31700   2.32080
 Alpha virt. eigenvalues --    2.32527   2.32912   2.33106   2.33698   2.34175
 Alpha virt. eigenvalues --    2.34702   2.35348   2.35898   2.36404   2.38011
 Alpha virt. eigenvalues --    2.38608   2.38897   2.39067   2.39846   2.40409
 Alpha virt. eigenvalues --    2.40783   2.41071   2.41947   2.42189   2.43090
 Alpha virt. eigenvalues --    2.44243   2.44272   2.44483   2.45068   2.45117
 Alpha virt. eigenvalues --    2.45759   2.45901   2.45948   2.47222   2.47787
 Alpha virt. eigenvalues --    2.48663   2.48874   2.49416   2.50393   2.50713
 Alpha virt. eigenvalues --    2.51308   2.51981   2.52178   2.52525   2.52851
 Alpha virt. eigenvalues --    2.53568   2.53841   2.54024   2.54682   2.55355
 Alpha virt. eigenvalues --    2.55575   2.55893   2.56337   2.56497   2.56846
 Alpha virt. eigenvalues --    2.57146   2.57545   2.57606   2.57997   2.58108
 Alpha virt. eigenvalues --    2.58402   2.58734   2.58901   2.58931   2.59166
 Alpha virt. eigenvalues --    2.59429   2.59620   2.60058   2.60533   2.60626
 Alpha virt. eigenvalues --    2.61006   2.61483   2.61870   2.62743   2.63033
 Alpha virt. eigenvalues --    2.63310   2.63633   2.63953   2.64224   2.64793
 Alpha virt. eigenvalues --    2.64969   2.65260   2.65634   2.65805   2.66282
 Alpha virt. eigenvalues --    2.66474   2.66743   2.66951   2.67197   2.67566
 Alpha virt. eigenvalues --    2.68259   2.68366   2.68694   2.69020   2.69147
 Alpha virt. eigenvalues --    2.69626   2.70388   2.70436   2.70901   2.71746
 Alpha virt. eigenvalues --    2.71977   2.72450   2.72930   2.73169   2.73523
 Alpha virt. eigenvalues --    2.74024   2.75019   2.75341   2.75959   2.76329
 Alpha virt. eigenvalues --    2.77185   2.77899   2.78046   2.78513   2.79323
 Alpha virt. eigenvalues --    2.79657   2.80198   2.80663   2.80721   2.81066
 Alpha virt. eigenvalues --    2.81426   2.82034   2.82306   2.82767   2.82917
 Alpha virt. eigenvalues --    2.83348   2.83854   2.84152   2.84380   2.85302
 Alpha virt. eigenvalues --    2.85597   2.85900   2.86303   2.87271   2.87780
 Alpha virt. eigenvalues --    2.88463   2.88926   2.89306   2.89386   2.89978
 Alpha virt. eigenvalues --    2.90198   2.90426   2.90787   2.91517   2.91647
 Alpha virt. eigenvalues --    2.91680   2.92552   2.92810   2.93162   2.93578
 Alpha virt. eigenvalues --    2.94210   2.94311   2.94711   2.95309   2.95926
 Alpha virt. eigenvalues --    2.96485   2.96977   2.98199   2.98545   2.99091
 Alpha virt. eigenvalues --    2.99912   3.00210   3.00701   3.02793   3.03748
 Alpha virt. eigenvalues --    3.04136   3.05108   3.06927   3.07828   3.10418
 Alpha virt. eigenvalues --    3.11692   3.12350   3.13393   3.15882   3.16483
 Alpha virt. eigenvalues --    3.17455   3.18430   3.20051   3.22213   3.23331
 Alpha virt. eigenvalues --    3.25609   3.27075   3.27940   3.30014   3.30612
 Alpha virt. eigenvalues --    3.33749   3.33865   3.34668   3.35862   3.38177
 Alpha virt. eigenvalues --    3.38516   3.39772   3.42771   3.44336   3.45202
 Alpha virt. eigenvalues --    3.47311   3.47929   3.50174   3.52658   3.53674
 Alpha virt. eigenvalues --    3.57521   3.58046   3.61554   4.01253   4.01609
 Alpha virt. eigenvalues --    4.01989   4.02037   4.03540   4.03671   4.04225
 Alpha virt. eigenvalues --    4.04852   4.05394   4.06391   4.06636   4.06863
 Alpha virt. eigenvalues --    4.07249   4.07376   4.08080   4.09018   4.09723
 Alpha virt. eigenvalues --    4.10348   4.10800   4.11537   4.12027   4.13252
 Alpha virt. eigenvalues --    4.13928   4.15105   4.15713   4.17490   4.17534
 Alpha virt. eigenvalues --    4.19177   4.20487   4.20845   4.21378   4.21963
 Alpha virt. eigenvalues --    4.22209   4.22636   4.23319   4.24303   4.27086
 Alpha virt. eigenvalues --    4.28150   4.28860   4.29192   4.29650   4.30418
 Alpha virt. eigenvalues --    4.31132   4.32065   4.33497   4.35289   4.37671
 Alpha virt. eigenvalues --    4.39938   4.41018   4.41460   4.42349   4.44508
 Alpha virt. eigenvalues --    4.45133   4.48766   4.49079   4.49715   4.51795
 Alpha virt. eigenvalues --    4.52783   4.56122   4.56783   4.57171   4.58565
 Alpha virt. eigenvalues --    4.60435   4.63621   4.65125   4.67672   4.68120
 Alpha virt. eigenvalues --    4.68553   4.69349   4.73419   4.78159   4.82595
 Alpha virt. eigenvalues --    4.84159   4.86373   4.87037   4.89298   4.92644
 Alpha virt. eigenvalues --    4.94756   4.96922   5.05628   5.11859   5.13386
 Alpha virt. eigenvalues --    5.14137   5.19263   5.22333   5.26287
          Condensed to atoms (all electrons):
 Mulliken charges:
               1
     1  C   -0.027936
     2  C   -0.023180
     3  C   -0.023622
     4  C   -0.357245
     5  C    0.046928
     6  C   -0.010397
     7  C   -0.015966
     8  C    0.087712
     9  C    0.039644
    10  C    0.007205
    11  C    0.091856
    12  C    0.043480
    13  C   -0.027273
    14  C    0.011118
    15  C   -0.009047
    16  C    0.003998
    17  C   -0.004032
    18  C    0.049492
    19  C   -0.005232
    20  C    0.049671
    21  C   -0.024817
    22  C   -0.022470
    23  C   -0.000501
    24  C   -0.015576
    25  C   -0.023262
    26  C   -0.001694
    27  C   -0.020036
    28  C   -0.023870
    29  C    0.050832
    30  C   -0.015255
    31  C   -0.033281
    32  C   -0.009296
    33  C   -0.025564
    34  C   -0.021252
    35  C    0.041621
    36  C    0.044835
    37  C    0.044784
    38  C    0.040613
    39  C    0.052768
    40  C   -0.034499
    41  C    0.008855
    42  C    0.070701
    43  C   -0.033962
    44  C    0.051982
    45  C    0.129599
    46  C    0.040085
    47  C    0.078891
    48  C    0.100164
    49  C   -0.047266
    50  C   -0.354057
    51  C    0.003724
    52  C    0.071810
    53  C   -0.005831
    54  C   -0.000913
    55  C   -0.019852
    56  C    0.010241
    57  C    0.043631
    58  C   -0.028189
    59  C    0.056929
    60  C   -0.032505
    61  C   -0.021160
    62  C   -0.021424
    63  C   -0.031529
    64  C    0.051677
    65  C   -0.029328
    66  C    0.048053
    67  C    0.050360
    68  C    0.046036
    69  C   -0.019872
    70  C   -0.024921
    71  C   -0.008616
    72  C    0.002547
    73  C   -0.009877
    74  C   -0.009426
    75  C   -0.000682
    76  C   -0.000207
    77  C   -0.024535
    78  C   -0.023852
    79  C   -0.025600
    80  C   -0.040143
    81  C    0.005797
    82  C   -0.021333
    83  C    0.042660
    84  C    0.044617
    85  Cl  -0.021931
    86  Cl  -0.032603
 Sum of Mulliken charges =  -0.00000
 Mulliken charges with hydrogens summed into heavy atoms:
               1
     1  C   -0.027936
     2  C   -0.023180
     3  C   -0.023622
     4  C   -0.357245
     5  C    0.046928
     6  C   -0.010397
     7  C   -0.015966
     8  C    0.087712
     9  C    0.039644
    10  C    0.007205
    11  C    0.091856
    12  C    0.043480
    13  C   -0.027273
    14  C    0.011118
    15  C   -0.009047
    16  C    0.003998
    17  C   -0.004032
    18  C    0.049492
    19  C   -0.005232
    20  C    0.049671
    21  C   -0.024817
    22  C   -0.022470
    23  C   -0.000501
    24  C   -0.015576
    25  C   -0.023262
    26  C   -0.001694
    27  C   -0.020036
    28  C   -0.023870
    29  C    0.050832
    30  C   -0.015255
    31  C   -0.033281
    32  C   -0.009296
    33  C   -0.025564
    34  C   -0.021252
    35  C    0.041621
    36  C    0.044835
    37  C    0.044784
    38  C    0.040613
    39  C    0.052768
    40  C   -0.034499
    41  C    0.008855
    42  C    0.070701
    43  C   -0.033962
    44  C    0.051982
    45  C    0.129599
    46  C    0.040085
    47  C    0.078891
    48  C    0.100164
    49  C   -0.047266
    50  C   -0.354057
    51  C    0.003724
    52  C    0.071810
    53  C   -0.005831
    54  C   -0.000913
    55  C   -0.019852
    56  C    0.010241
    57  C    0.043631
    58  C   -0.028189
    59  C    0.056929
    60  C   -0.032505
    61  C   -0.021160
    62  C   -0.021424
    63  C   -0.031529
    64  C    0.051677
    65  C   -0.029328
    66  C    0.048053
    67  C    0.050360
    68  C    0.046036
    69  C   -0.019872
    70  C   -0.024921
    71  C   -0.008616
    72  C    0.002547
    73  C   -0.009877
    74  C   -0.009426
    75  C   -0.000682
    76  C   -0.000207
    77  C   -0.024535
    78  C   -0.023852
    79  C   -0.025600
    80  C   -0.040143
    81  C    0.005797
    82  C   -0.021333
    83  C    0.042660
    84  C    0.044617
    85  Cl  -0.021931
    86  Cl  -0.032603
 Electronic spatial extent (au):  <R**2>=          37473.5465
 Charge=              0.0000 electrons
 Dipole moment (field-independent basis, Debye):
    X=              4.1962    Y=              0.0108    Z=              0.7314  Tot=              4.2595
 Quadrupole moment (field-independent basis, Debye-Ang):
   XX=           -502.4705   YY=           -476.1834   ZZ=           -476.6557
   XY=             -5.1305   XZ=             -3.9423   YZ=             -1.4347
 Traceless Quadrupole moment (field-independent basis, Debye-Ang):
   XX=            -17.3673   YY=              8.9198   ZZ=              8.4475
   XY=             -5.1305   XZ=             -3.9423   YZ=             -1.4347
 Octapole moment (field-independent basis, Debye-Ang**2):
  XXX=             76.3901  YYY=             -7.8236  ZZZ=              2.7851  XYY=             -4.3299
  XXY=              6.4763  XXZ=              5.3309  XZZ=            -23.4997  YZZ=            -10.4974
  YYZ=              2.0696  XYZ=              7.8468
 Hexadecapole moment (field-independent basis, Debye-Ang**3):
 XXXX=         -22161.2296 YYYY=         -17955.9581 ZZZZ=         -15987.3377 XXXY=            -13.4859
 XXXZ=             -4.5144 YYYX=             -2.6776 YYYZ=             16.2799 ZZZX=            -17.1564
 ZZZY=             13.7113 XXYY=          -6655.0054 XXZZ=          -6212.7993 YYZZ=          -5648.0128
 XXYZ=            -29.8586 YYXZ=            -15.8486 ZZXY=              3.6452
 N-N= 1.560002780405D+04 E-N=-4.079340065154D+04  KE= 4.088609094522D+03
 No NMR shielding tensors so no spin-rotation constants.
 Leave Link  601 at Tue Jun 28 10:38:40 2022, MaxMem=  1342177280 cpu:              22.6 elap:               1.1
 (Enter /home/mkliu/g16/l9999.exe)
 1\1\GINC-NODE03\FOpt\RB3LYP\6-31G(d,p)\C84Cl2\MKLIU\28-Jun-2022\0\\#P 
 opt b3lyp/6-31G(d, p) empiricaldispersion=GD3\\force\\0,1\C,8.49400299
 9,18.8436268003,10.7577836824\C,12.3857036582,20.1166160698,8.92807931
 48\C,8.2478656728,26.8985741735,10.5402393893\C,12.4836055062,25.76434
 0104,8.9185001318\C,8.0132372909,19.0661878906,9.4412052802\C,12.05460
 1607,19.4917279999,10.1730839286\C,7.937870425,26.8681159294,9.1500731
 158\C,11.8802003472,26.2004048683,10.2295646378\C,8.9865379467,19.1513
 684923,8.3470835716\C,12.3296323952,20.1597960702,11.3593526712\C,12.1
 391021638,25.5480741608,11.3895008091\C,8.9374515772,26.6796488977,8.1
 556539446\C,10.3509036665,18.9874154468,8.6612538078\C,10.2774151152,2
 6.7085551314,8.6227157677\C,10.8058517496,18.7789998769,10.0048303299\
 C,10.5963242334,26.8042598613,10.01282982\C,9.8844697729,18.7290213999
 ,11.042715585\C,9.5814490678,26.7950586866,11.0105055939\C,10.16384462
 24,19.4315330188,12.2897687401\C,9.8460435165,26.0681316667,12.2447920
 705\C,8.9420579544,19.9923112915,12.785686069\C,8.7620876286,25.440569
 0632,12.9211444257\C,7.8904656741,19.5236560856,11.8983655979\C,7.4152
 1751,25.517703794,12.3843930086\C,6.7391425485,20.2441512417,11.746531
 7638\C,7.1613170339,26.2285534885,11.2422252937\C,6.1086911721,20.3286
 406174,10.4592686483\C,6.2030872477,25.7371744438,10.2705988551\C,6.73
 15596208,19.7552875253,9.3118697683\C,6.6406885534,26.2397030832,9.004
 6204417\C,6.4014370156,20.3454043871,8.0825409282\C,6.3315504993,25.56
 78045248,7.8479000858\C,7.3353224575,20.3456029868,6.9669659667\C,7.29
 35680602,25.4825142789,6.7633991368\C,8.6607976975,19.8878747539,7.117
 5212591\C,8.6349689039,25.9235398495,6.9431331262\C,9.7118877355,20.57
 56093674,6.3622191424\C,9.702369525,25.1732902985,6.2899589902\C,11.08
 42954212,20.5550311691,6.8634917791\C,12.7803658377,22.148592732,7.717
 4194152\C,12.7611321634,23.598900346,7.7290886464\C,11.061698382,25.20
 56019049,6.853402012\C,11.3832306259,19.7444440707,7.9672278263\C,12.9
 796120299,21.4137433235,8.9011255447\C,12.9182165094,24.3041712177,8.9
 562290135\C,11.3209763267,26.0060134291,7.9508152739\C,13.2114771133,2
 2.1406158339,10.1475105392\C,13.1579148765,23.6139676986,10.1351967023
 \C,12.9490308397,21.4576452914,11.3485601342\C,13.0728518733,24.359129
 6042,11.467677236\C,12.4222177154,22.1784527633,12.5122512937\C,12.395
 5512196,23.5336741165,12.5363141908\C,11.3513250841,20.1304558033,12.4
 391311103\C,11.112568293,25.4523169234,12.4002969534\C,11.3419988371,2
 1.4055857457,13.0892247158\C,11.2553663561,24.2035198073,13.0772671827
 \C,8.8872247513,21.2836039681,13.3667944442\C,8.8932867587,24.16472189
 86,13.5272026964\C,7.6305403625,22.032350973,13.2310785859\C,7.6435819
 525,23.4378290683,13.3446991425\C,6.5708710996,21.4965306127,12.444285
 7357\C,6.7397588181,24.2652246409,12.610554191\C,5.7410031903,22.31966
 83711,11.6263427376\C,5.8511770426,23.7252152335,11.6323543635\C,5.451
 4093106,21.5941434254,10.3981717422\C,5.5995431511,24.4624377448,10.39
 05457429\C,5.2430677714,22.2664989485,9.1773477434\C,5.2791537681,23.7
 32925379,9.1573830059\C,5.6000174727,21.5321256456,8.0046302287\C,5.56
 88444622,24.3506338749,7.9152324733\C,5.9373709432,22.2058254744,6.780
 6267088\C,5.9217029141,23.5848040212,6.7364355447\C,6.999215072,21.459
 8468099,6.1297687954\C,6.9767873457,24.2996869868,6.0306415973\C,7.999
 9715699,22.1295505976,5.4455496147\C,7.997353358,23.591516405,5.407876
 7118\C,9.3465578592,21.6742654604,5.5403231341\C,9.3419310219,24.05114
 0862,5.5008272297\C,11.9275315195,21.6909357892,6.6738421469\C,11.9237
 996475,24.0488321784,6.6906238175\C,10.1868750365,22.8600469419,5.4628
 913991\C,11.4378492917,22.8694506715,6.0122312922\C,10.1429669138,22.0
 193338406,13.5323068726\C,10.1286383506,23.4776427079,13.5703248988\Cl
 ,13.9441040706,26.8170887066,8.4336017422\Cl,14.7922746918,24.85767800
 39,12.0050593861\\Version=ES64L-G16RevA.03\State=1-A\HF=-4121.4012551\
 RMSD=7.635e-09\RMSF=9.782e-05\Dipole=-1.5761913,-0.5300591,-0.2073769\
 Quadrupole=-9.6115201,3.0629061,6.548614,-8.7681201,-0.0646893,-0.3796
 187\PG=C01 [X(C84Cl2)]\\@


 WHAT THE SLIME CONTAINS, THE GLOWING REVEALS
 BY THE FLAME'S BRIGHT HUE WHEN YOU IGNITE IT.
   --  LEONARD THURNEYSSER, 1531-1596
 DESCRIBING HIS FLAME PHOTOLYSIS ANALYTIC METHOD
 Job cpu time:       1 days  0 hours 51 minutes 26.3 seconds.
 Elapsed time:       0 days  1 hours  2 minutes 14.1 seconds.
 File lengths (MBytes):  RWF=   1037 Int=      0 D2E=      0 Chk=    131 Scr=      1
 Normal termination of Gaussian 16 at Tue Jun 28 10:38:42 2022.
