 Entering Gaussian System, Link 0=g16
 Input=2_addons_C84_11_Cl22_rank_5.gjf
 Output=2_addons_C84_11_Cl22_rank_5.log
 Initial command:
 /home/mkliu/g16/l1.exe "/data/scratch/Gau-69799.inp" -scrdir="/data/scratch/"
 Entering Link 1 = /home/mkliu/g16/l1.exe PID=     69800.
  
 Copyright (c) 1988,1990,1992,1993,1995,1998,2003,2009,2016,
            Gaussian, Inc.  All Rights Reserved.
  
 This is part of the Gaussian(R) 16 program.  It is based on
 the Gaussian(R) 09 system (copyright 2009, Gaussian, Inc.),
 the Gaussian(R) 03 system (copyright 2003, Gaussian, Inc.),
 the Gaussian(R) 98 system (copyright 1998, Gaussian, Inc.),
 the Gaussian(R) 94 system (copyright 1995, Gaussian, Inc.),
 the Gaussian 92(TM) system (copyright 1992, Gaussian, Inc.),
 the Gaussian 90(TM) system (copyright 1990, Gaussian, Inc.),
 the Gaussian 88(TM) system (copyright 1988, Gaussian, Inc.),
 the Gaussian 86(TM) system (copyright 1986, Carnegie Mellon
 University), and the Gaussian 82(TM) system (copyright 1983,
 Carnegie Mellon University). Gaussian is a federally registered
 trademark of Gaussian, Inc.
  
 This software contains proprietary and confidential information,
 including trade secrets, belonging to Gaussian, Inc.
  
 This software is provided under written license and may be
 used, copied, transmitted, or stored only in accord with that
 written license.
  
 The following legend is applicable only to US Government
 contracts under FAR:
  
                    RESTRICTED RIGHTS LEGEND
  
 Use, reproduction and disclosure by the US Government is
 subject to restrictions as set forth in subparagraphs (a)
 and (c) of the Commercial Computer Software - Restricted
 Rights clause in FAR 52.227-19.
  
 Gaussian, Inc.
 340 Quinnipiac St., Bldg. 40, Wallingford CT 06492
  
  
 ---------------------------------------------------------------
 Warning -- This program may not be used in any manner that
 competes with the business of Gaussian, Inc. or will provide
 assistance to any competitor of Gaussian, Inc.  The licensee
 of this program is prohibited from giving any competitor of
 Gaussian, Inc. access to this program.  By using this program,
 the user acknowledges that Gaussian, Inc. is engaged in the
 business of creating and licensing software in the field of
 computational chemistry and represents and warrants to the
 licensee that it is not a competitor of Gaussian, Inc. and that
 it will not use this program in any manner prohibited above.
 ---------------------------------------------------------------
  

 Cite this work as:
 Gaussian 16, Revision A.03,
 M. J. Frisch, G. W. Trucks, H. B. Schlegel, G. E. Scuseria, 
 M. A. Robb, J. R. Cheeseman, G. Scalmani, V. Barone, 
 G. A. Petersson, H. Nakatsuji, X. Li, M. Caricato, A. V. Marenich, 
 J. Bloino, B. G. Janesko, R. Gomperts, B. Mennucci, H. P. Hratchian, 
 J. V. Ortiz, A. F. Izmaylov, J. L. Sonnenberg, D. Williams-Young, 
 F. Ding, F. Lipparini, F. Egidi, J. Goings, B. Peng, A. Petrone, 
 T. Henderson, D. Ranasinghe, V. G. Zakrzewski, J. Gao, N. Rega, 
 G. Zheng, W. Liang, M. Hada, M. Ehara, K. Toyota, R. Fukuda, 
 J. Hasegawa, M. Ishida, T. Nakajima, Y. Honda, O. Kitao, H. Nakai, 
 T. Vreven, K. Throssell, J. A. Montgomery, Jr., J. E. Peralta, 
 F. Ogliaro, M. J. Bearpark, J. J. Heyd, E. N. Brothers, K. N. Kudin, 
 V. N. Staroverov, T. A. Keith, R. Kobayashi, J. Normand, 
 K. Raghavachari, A. P. Rendell, J. C. Burant, S. S. Iyengar, 
 J. Tomasi, M. Cossi, J. M. Millam, M. Klene, C. Adamo, R. Cammi, 
 J. W. Ochterski, R. L. Martin, K. Morokuma, O. Farkas, 
 J. B. Foresman, and D. J. Fox, Gaussian, Inc., Wallingford CT, 2016.
 
 ******************************************
 Gaussian 16:  ES64L-G16RevA.03 25-Dec-2016
                29-Jun-2022 
 ******************************************
 %mem=10GB
 %chk=2_addons_C84_11_Cl22_rank_5.chk
 %nprocshared=24
 Will use up to   24 processors via shared memory.
 ------------------------------------------------
 #P opt b3lyp/6-31G(d, p) empiricaldispersion=GD3
 ------------------------------------------------
 1/18=20,19=15,26=3,38=1/1,3;
 2/9=110,12=2,17=6,18=5,40=1/2;
 3/5=1,6=6,7=101,11=2,25=1,30=1,71=1,74=-5,124=31/1,2,3;
 4//1;
 5/5=2,38=5/2;
 6/7=2,8=2,9=2,10=2,28=1/1;
 7//1,2,3,16;
 1/18=20,19=15,26=3/3(2);
 2/9=110/2;
 99//99;
 2/9=110/2;
 3/5=1,6=6,7=101,11=2,25=1,30=1,71=1,74=-5,124=31/1,2,3;
 4/5=5,16=3,69=1/1;
 5/5=2,38=5/2;
 7//1,2,3,16;
 1/18=20,19=15,26=3/3(-5);
 2/9=110/2;
 6/7=2,8=2,9=2,10=2,19=2,28=1/1;
 99/9=1/99;
 Leave Link    1 at Wed Jun 29 07:37:20 2022, MaxMem=  1342177280 cpu:               0.6 elap:               0.0
 (Enter /home/mkliu/g16/l101.exe)
 -----
 force
 -----
 Symbolic Z-matrix:
 Charge =  0 Multiplicity = 1
 C                     8.4431    18.6352   10.81397 
 C                     12.36547   20.1656   8.95423 
 C                     8.27847   26.89996   10.5296 
 C                     12.28231   25.58225   8.95716 
 C                     8.03089   19.16     9.44881 
 C                     12.04176   19.53377   10.19053 
 C                     7.97245   26.86447   9.14512 
 C                     11.85342   26.15971   10.19724 
 C                     8.99724   19.23665   8.37872 
 C                     12.33611   20.17939   11.37654 
 C                     12.12449   25.50812   11.36852 
 C                     8.96043   26.66984   8.15237 
 C                     10.35227   19.03653   8.66961 
 C                     10.2835   26.71901   8.62508 
 C                     10.8088   18.81954   10.02936 
 C                     10.59603   26.83087   10.00181 
 C                     9.91726   18.73061   11.05966 
 C                     9.60224   26.812    11.00551 
 C                     10.18096   19.45711   12.26048 
 C                     9.86974   26.08789   12.23493 
 C                     8.96665   20.04014   12.72194 
 C                     8.79484   25.44593   12.89075 
 C                     7.91151   19.53593   11.89754 
 C                     7.45705   25.51989   12.35856 
 C                     6.76922   20.24788   11.75109 
 C                     7.19815   26.23461   11.221 
 C                     5.94548   20.19544   10.50493 
 C                     6.24571   25.74437   10.26201 
 C                     6.81068   19.80551   9.33292 
 C                     6.68183   26.24083   9.00692 
 C                     6.45861   20.40725   8.11702 
 C                     6.37468   25.56287   7.85546 
 C                     7.36558   20.39795   7.00971 
 C                     7.33054   25.47611   6.78243 
 C                     8.6827    19.95074   7.15847 
 C                     8.65871   25.90827   6.95315 
 C                     9.71497   20.61056   6.38789 
 C                     9.71164   25.16057   6.29406 
 C                     11.06624   20.59564   6.88942 
 C                     12.77909   22.16798   7.73885 
 C                     12.76395   23.60396   7.7374 
 C                     11.05216   25.17276   6.85259 
 C                     11.35921   19.79386   8.00595 
 C                     12.97949   21.44078   8.92287 
 C                     12.93903   24.32867   8.92898 
 C                     11.32796   25.96189   7.97743 
 C                     13.23045   22.16094   10.15814 
 C                     13.19581   23.61033   10.15728 
 C                     12.94303   21.48036   11.35683 
 C                     12.84886   24.26713   11.35569 
 C                     12.42833   22.17518   12.49876 
 C                     12.38477   23.54461   12.48804 
 C                     11.37098   20.14594   12.43519 
 C                     11.12391   25.47036   12.41295 
 C                     11.35929   21.41695   13.08959 
 C                     11.2654   24.22813   13.08185 
 C                     8.92692   21.31854   13.31258 
 C                     8.92784   24.17024   13.48637 
 C                     7.69551   22.04954   13.17045 
 C                     7.69202   23.44622   13.28979 
 C                     6.65132   21.51166   12.38119 
 C                     6.79299   24.26908   12.56614 
 C                     5.81698   22.33753   11.57119 
 C                     5.90754   23.74416   11.59384 
 C                     5.46974   21.63045   10.39939 
 C                     5.64439   24.47046   10.38075 
 C                     5.27525   22.29281   9.19596 
 C                     5.32917   23.74601   9.16956 
 C                     5.62338   21.55335   8.0221 
 C                     5.61367   24.35577   7.93267 
 C                     5.9535    22.21836   6.80316 
 C                     5.94846   23.59682   6.7584 
 C                     7.00805   21.48336   6.15499 
 C                     6.99769   24.29512   6.05512 
 C                     8.00044   22.14493   5.46185 
 C                     8.00113   23.58875   5.42163 
 C                     9.34624   21.69178   5.56057 
 C                     9.34888   24.04541   5.51537 
 C                     11.90505   21.71263   6.71069 
 C                     11.89279   24.04526   6.70537 
 C                     10.17713   22.86465   5.46317 
 C                     11.4202   22.87272   6.03305 
 C                     10.17014   22.0373   13.5037 
 C                     10.15475   23.48879   13.5511 
 Cl                    4.5448    19.05227   10.631 
 Cl                    7.84501   16.92322   10.96522 
 
 ITRead=  0  0  0  0  0  0  0  0  0  0  0  0  0  0  0  0  0  0  0  0
 ITRead=  0  0  0  0  0  0  0  0  0  0  0  0  0  0  0  0  0  0  0  0
 ITRead=  0  0  0  0  0  0  0  0  0  0  0  0  0  0  0  0  0  0  0  0
 ITRead=  0  0  0  0  0  0  0  0  0  0  0  0  0  0  0  0  0  0  0  0
 ITRead=  0  0  0  0  0  0
 MicOpt= -1 -1 -1 -1 -1 -1 -1 -1 -1 -1 -1 -1 -1 -1 -1 -1 -1 -1 -1 -1
 MicOpt= -1 -1 -1 -1 -1 -1 -1 -1 -1 -1 -1 -1 -1 -1 -1 -1 -1 -1 -1 -1
 MicOpt= -1 -1 -1 -1 -1 -1 -1 -1 -1 -1 -1 -1 -1 -1 -1 -1 -1 -1 -1 -1
 MicOpt= -1 -1 -1 -1 -1 -1 -1 -1 -1 -1 -1 -1 -1 -1 -1 -1 -1 -1 -1 -1
 MicOpt= -1 -1 -1 -1 -1 -1
 NAtoms=     86 NQM=       86 NQMF=       0 NMMI=      0 NMMIF=      0
                NMic=       0 NMicF=      0.
                    Isotopes and Nuclear Properties:
 (Nuclear quadrupole moments (NQMom) in fm**2, nuclear magnetic moments (NMagM)
  in nuclear magnetons)

  Atom         1           2           3           4           5           6           7           8           9          10
 IAtWgt=          12          12          12          12          12          12          12          12          12          12
 AtmWgt=  12.0000000  12.0000000  12.0000000  12.0000000  12.0000000  12.0000000  12.0000000  12.0000000  12.0000000  12.0000000
 NucSpn=           0           0           0           0           0           0           0           0           0           0
 AtZEff=  -0.0000000  -0.0000000  -0.0000000  -0.0000000  -0.0000000  -0.0000000  -0.0000000  -0.0000000  -0.0000000  -0.0000000
 NQMom=    0.0000000   0.0000000   0.0000000   0.0000000   0.0000000   0.0000000   0.0000000   0.0000000   0.0000000   0.0000000
 NMagM=    0.0000000   0.0000000   0.0000000   0.0000000   0.0000000   0.0000000   0.0000000   0.0000000   0.0000000   0.0000000
 AtZNuc=   6.0000000   6.0000000   6.0000000   6.0000000   6.0000000   6.0000000   6.0000000   6.0000000   6.0000000   6.0000000

  Atom        11          12          13          14          15          16          17          18          19          20
 IAtWgt=          12          12          12          12          12          12          12          12          12          12
 AtmWgt=  12.0000000  12.0000000  12.0000000  12.0000000  12.0000000  12.0000000  12.0000000  12.0000000  12.0000000  12.0000000
 NucSpn=           0           0           0           0           0           0           0           0           0           0
 AtZEff=  -0.0000000  -0.0000000  -0.0000000  -0.0000000  -0.0000000  -0.0000000  -0.0000000  -0.0000000  -0.0000000  -0.0000000
 NQMom=    0.0000000   0.0000000   0.0000000   0.0000000   0.0000000   0.0000000   0.0000000   0.0000000   0.0000000   0.0000000
 NMagM=    0.0000000   0.0000000   0.0000000   0.0000000   0.0000000   0.0000000   0.0000000   0.0000000   0.0000000   0.0000000
 AtZNuc=   6.0000000   6.0000000   6.0000000   6.0000000   6.0000000   6.0000000   6.0000000   6.0000000   6.0000000   6.0000000

  Atom        21          22          23          24          25          26          27          28          29          30
 IAtWgt=          12          12          12          12          12          12          12          12          12          12
 AtmWgt=  12.0000000  12.0000000  12.0000000  12.0000000  12.0000000  12.0000000  12.0000000  12.0000000  12.0000000  12.0000000
 NucSpn=           0           0           0           0           0           0           0           0           0           0
 AtZEff=  -0.0000000  -0.0000000  -0.0000000  -0.0000000  -0.0000000  -0.0000000  -0.0000000  -0.0000000  -0.0000000  -0.0000000
 NQMom=    0.0000000   0.0000000   0.0000000   0.0000000   0.0000000   0.0000000   0.0000000   0.0000000   0.0000000   0.0000000
 NMagM=    0.0000000   0.0000000   0.0000000   0.0000000   0.0000000   0.0000000   0.0000000   0.0000000   0.0000000   0.0000000
 AtZNuc=   6.0000000   6.0000000   6.0000000   6.0000000   6.0000000   6.0000000   6.0000000   6.0000000   6.0000000   6.0000000

  Atom        31          32          33          34          35          36          37          38          39          40
 IAtWgt=          12          12          12          12          12          12          12          12          12          12
 AtmWgt=  12.0000000  12.0000000  12.0000000  12.0000000  12.0000000  12.0000000  12.0000000  12.0000000  12.0000000  12.0000000
 NucSpn=           0           0           0           0           0           0           0           0           0           0
 AtZEff=  -0.0000000  -0.0000000  -0.0000000  -0.0000000  -0.0000000  -0.0000000  -0.0000000  -0.0000000  -0.0000000  -0.0000000
 NQMom=    0.0000000   0.0000000   0.0000000   0.0000000   0.0000000   0.0000000   0.0000000   0.0000000   0.0000000   0.0000000
 NMagM=    0.0000000   0.0000000   0.0000000   0.0000000   0.0000000   0.0000000   0.0000000   0.0000000   0.0000000   0.0000000
 AtZNuc=   6.0000000   6.0000000   6.0000000   6.0000000   6.0000000   6.0000000   6.0000000   6.0000000   6.0000000   6.0000000

  Atom        41          42          43          44          45          46          47          48          49          50
 IAtWgt=          12          12          12          12          12          12          12          12          12          12
 AtmWgt=  12.0000000  12.0000000  12.0000000  12.0000000  12.0000000  12.0000000  12.0000000  12.0000000  12.0000000  12.0000000
 NucSpn=           0           0           0           0           0           0           0           0           0           0
 AtZEff=  -0.0000000  -0.0000000  -0.0000000  -0.0000000  -0.0000000  -0.0000000  -0.0000000  -0.0000000  -0.0000000  -0.0000000
 NQMom=    0.0000000   0.0000000   0.0000000   0.0000000   0.0000000   0.0000000   0.0000000   0.0000000   0.0000000   0.0000000
 NMagM=    0.0000000   0.0000000   0.0000000   0.0000000   0.0000000   0.0000000   0.0000000   0.0000000   0.0000000   0.0000000
 AtZNuc=   6.0000000   6.0000000   6.0000000   6.0000000   6.0000000   6.0000000   6.0000000   6.0000000   6.0000000   6.0000000

  Atom        51          52          53          54          55          56          57          58          59          60
 IAtWgt=          12          12          12          12          12          12          12          12          12          12
 AtmWgt=  12.0000000  12.0000000  12.0000000  12.0000000  12.0000000  12.0000000  12.0000000  12.0000000  12.0000000  12.0000000
 NucSpn=           0           0           0           0           0           0           0           0           0           0
 AtZEff=  -0.0000000  -0.0000000  -0.0000000  -0.0000000  -0.0000000  -0.0000000  -0.0000000  -0.0000000  -0.0000000  -0.0000000
 NQMom=    0.0000000   0.0000000   0.0000000   0.0000000   0.0000000   0.0000000   0.0000000   0.0000000   0.0000000   0.0000000
 NMagM=    0.0000000   0.0000000   0.0000000   0.0000000   0.0000000   0.0000000   0.0000000   0.0000000   0.0000000   0.0000000
 AtZNuc=   6.0000000   6.0000000   6.0000000   6.0000000   6.0000000   6.0000000   6.0000000   6.0000000   6.0000000   6.0000000

  Atom        61          62          63          64          65          66          67          68          69          70
 IAtWgt=          12          12          12          12          12          12          12          12          12          12
 AtmWgt=  12.0000000  12.0000000  12.0000000  12.0000000  12.0000000  12.0000000  12.0000000  12.0000000  12.0000000  12.0000000
 NucSpn=           0           0           0           0           0           0           0           0           0           0
 AtZEff=  -0.0000000  -0.0000000  -0.0000000  -0.0000000  -0.0000000  -0.0000000  -0.0000000  -0.0000000  -0.0000000  -0.0000000
 NQMom=    0.0000000   0.0000000   0.0000000   0.0000000   0.0000000   0.0000000   0.0000000   0.0000000   0.0000000   0.0000000
 NMagM=    0.0000000   0.0000000   0.0000000   0.0000000   0.0000000   0.0000000   0.0000000   0.0000000   0.0000000   0.0000000
 AtZNuc=   6.0000000   6.0000000   6.0000000   6.0000000   6.0000000   6.0000000   6.0000000   6.0000000   6.0000000   6.0000000

  Atom        71          72          73          74          75          76          77          78          79          80
 IAtWgt=          12          12          12          12          12          12          12          12          12          12
 AtmWgt=  12.0000000  12.0000000  12.0000000  12.0000000  12.0000000  12.0000000  12.0000000  12.0000000  12.0000000  12.0000000
 NucSpn=           0           0           0           0           0           0           0           0           0           0
 AtZEff=  -0.0000000  -0.0000000  -0.0000000  -0.0000000  -0.0000000  -0.0000000  -0.0000000  -0.0000000  -0.0000000  -0.0000000
 NQMom=    0.0000000   0.0000000   0.0000000   0.0000000   0.0000000   0.0000000   0.0000000   0.0000000   0.0000000   0.0000000
 NMagM=    0.0000000   0.0000000   0.0000000   0.0000000   0.0000000   0.0000000   0.0000000   0.0000000   0.0000000   0.0000000
 AtZNuc=   6.0000000   6.0000000   6.0000000   6.0000000   6.0000000   6.0000000   6.0000000   6.0000000   6.0000000   6.0000000

  Atom        81          82          83          84          85          86
 IAtWgt=          12          12          12          12          35          35
 AtmWgt=  12.0000000  12.0000000  12.0000000  12.0000000  34.9688527  34.9688527
 NucSpn=           0           0           0           0           3           3
 AtZEff=  -0.0000000  -0.0000000  -0.0000000  -0.0000000  -0.0000000  -0.0000000
 NQMom=    0.0000000   0.0000000   0.0000000   0.0000000  -8.1650000  -8.1650000
 NMagM=    0.0000000   0.0000000   0.0000000   0.0000000   0.8218740   0.8218740
 AtZNuc=   6.0000000   6.0000000   6.0000000   6.0000000  17.0000000  17.0000000
 Leave Link  101 at Wed Jun 29 07:37:20 2022, MaxMem=  1342177280 cpu:               6.5 elap:               0.3
 (Enter /home/mkliu/g16/l103.exe)

 GradGradGradGradGradGradGradGradGradGradGradGradGradGradGradGradGradGrad
 Berny optimization.
 Initialization pass.
                           ----------------------------
                           !    Initial Parameters    !
                           ! (Angstroms and Degrees)  !
 --------------------------                            --------------------------
 ! Name  Definition              Value          Derivative Info.                !
 --------------------------------------------------------------------------------
 ! R1    R(1,5)                  1.5195         estimate D2E/DX2                !
 ! R2    R(1,17)                 1.4975         estimate D2E/DX2                !
 ! R3    R(1,23)                 1.506          estimate D2E/DX2                !
 ! R4    R(1,86)                 1.8197         estimate D2E/DX2                !
 ! R5    R(2,6)                  1.4256         estimate D2E/DX2                !
 ! R6    R(2,43)                 1.4318         estimate D2E/DX2                !
 ! R7    R(2,44)                 1.4157         estimate D2E/DX2                !
 ! R8    R(3,7)                  1.4183         estimate D2E/DX2                !
 ! R9    R(3,18)                 1.4095         estimate D2E/DX2                !
 ! R10   R(3,26)                 1.4449         estimate D2E/DX2                !
 ! R11   R(4,8)                  1.4336         estimate D2E/DX2                !
 ! R12   R(4,45)                 1.4155         estimate D2E/DX2                !
 ! R13   R(4,46)                 1.4194         estimate D2E/DX2                !
 ! R14   R(5,9)                  1.4439         estimate D2E/DX2                !
 ! R15   R(5,29)                 1.3853         estimate D2E/DX2                !
 ! R16   R(6,10)                 1.3821         estimate D2E/DX2                !
 ! R17   R(6,15)                 1.434          estimate D2E/DX2                !
 ! R18   R(7,12)                 1.414          estimate D2E/DX2                !
 ! R19   R(7,30)                 1.44           estimate D2E/DX2                !
 ! R20   R(8,11)                 1.3675         estimate D2E/DX2                !
 ! R21   R(8,16)                 1.4386         estimate D2E/DX2                !
 ! R22   R(9,13)                 1.4003         estimate D2E/DX2                !
 ! R23   R(9,35)                 1.4484         estimate D2E/DX2                !
 ! R24   R(10,49)                1.4357         estimate D2E/DX2                !
 ! R25   R(10,53)                1.4329         estimate D2E/DX2                !
 ! R26   R(11,50)                1.437          estimate D2E/DX2                !
 ! R27   R(11,54)                1.4469         estimate D2E/DX2                !
 ! R28   R(12,14)                1.4058         estimate D2E/DX2                !
 ! R29   R(12,36)                1.4523         estimate D2E/DX2                !
 ! R30   R(13,15)                1.4507         estimate D2E/DX2                !
 ! R31   R(13,43)                1.4241         estimate D2E/DX2                !
 ! R32   R(14,16)                1.4162         estimate D2E/DX2                !
 ! R33   R(14,46)                1.4435         estimate D2E/DX2                !
 ! R34   R(15,17)                1.3654         estimate D2E/DX2                !
 ! R35   R(16,18)                1.4126         estimate D2E/DX2                !
 ! R36   R(17,19)                1.428          estimate D2E/DX2                !
 ! R37   R(18,20)                1.4517         estimate D2E/DX2                !
 ! R38   R(19,21)                1.4239         estimate D2E/DX2                !
 ! R39   R(19,53)                1.3861         estimate D2E/DX2                !
 ! R40   R(20,22)                1.4134         estimate D2E/DX2                !
 ! R41   R(20,54)                1.4093         estimate D2E/DX2                !
 ! R42   R(21,23)                1.4308         estimate D2E/DX2                !
 ! R43   R(21,57)                1.4088         estimate D2E/DX2                !
 ! R44   R(22,24)                1.4417         estimate D2E/DX2                !
 ! R45   R(22,58)                1.4142         estimate D2E/DX2                !
 ! R46   R(23,25)                1.3539         estimate D2E/DX2                !
 ! R47   R(24,26)                1.3682         estimate D2E/DX2                !
 ! R48   R(24,62)                1.4313         estimate D2E/DX2                !
 ! R49   R(25,27)                1.4947         estimate D2E/DX2                !
 ! R50   R(25,61)                1.4171         estimate D2E/DX2                !
 ! R51   R(26,28)                1.4378         estimate D2E/DX2                !
 ! R52   R(27,29)                1.5081         estimate D2E/DX2                !
 ! R53   R(27,65)                1.5155         estimate D2E/DX2                !
 ! R54   R(27,85)                1.8124         estimate D2E/DX2                !
 ! R55   R(28,30)                1.4184         estimate D2E/DX2                !
 ! R56   R(28,66)                1.4137         estimate D2E/DX2                !
 ! R57   R(29,31)                1.4016         estimate D2E/DX2                !
 ! R58   R(30,32)                1.3711         estimate D2E/DX2                !
 ! R59   R(31,33)                1.4314         estimate D2E/DX2                !
 ! R60   R(31,69)                1.4213         estimate D2E/DX2                !
 ! R61   R(32,34)                1.4397         estimate D2E/DX2                !
 ! R62   R(32,70)                1.4291         estimate D2E/DX2                !
 ! R63   R(33,35)                1.3989         estimate D2E/DX2                !
 ! R64   R(33,73)                1.4271         estimate D2E/DX2                !
 ! R65   R(34,36)                1.4071         estimate D2E/DX2                !
 ! R66   R(34,74)                1.4264         estimate D2E/DX2                !
 ! R67   R(35,37)                1.4473         estimate D2E/DX2                !
 ! R68   R(36,38)                1.4499         estimate D2E/DX2                !
 ! R69   R(37,39)                1.4414         estimate D2E/DX2                !
 ! R70   R(37,77)                1.4105         estimate D2E/DX2                !
 ! R71   R(38,42)                1.4523         estimate D2E/DX2                !
 ! R72   R(38,78)                1.4077         estimate D2E/DX2                !
 ! R73   R(39,43)                1.4055         estimate D2E/DX2                !
 ! R74   R(39,79)                1.4083         estimate D2E/DX2                !
 ! R75   R(40,41)                1.4361         estimate D2E/DX2                !
 ! R76   R(40,44)                1.4039         estimate D2E/DX2                !
 ! R77   R(40,79)                1.4242         estimate D2E/DX2                !
 ! R78   R(41,45)                1.4056         estimate D2E/DX2                !
 ! R79   R(41,80)                1.4208         estimate D2E/DX2                !
 ! R80   R(42,46)                1.4015         estimate D2E/DX2                !
 ! R81   R(42,80)                1.4141         estimate D2E/DX2                !
 ! R82   R(44,47)                1.4517         estimate D2E/DX2                !
 ! R83   R(45,48)                1.4459         estimate D2E/DX2                !
 ! R84   R(47,48)                1.4498         estimate D2E/DX2                !
 ! R85   R(47,49)                1.4081         estimate D2E/DX2                !
 ! R86   R(48,50)                1.4099         estimate D2E/DX2                !
 ! R87   R(49,51)                1.4324         estimate D2E/DX2                !
 ! R88   R(50,52)                1.4211         estimate D2E/DX2                !
 ! R89   R(51,52)                1.3702         estimate D2E/DX2                !
 ! R90   R(51,55)                1.4377         estimate D2E/DX2                !
 ! R91   R(52,56)                1.4397         estimate D2E/DX2                !
 ! R92   R(53,55)                1.4296         estimate D2E/DX2                !
 ! R93   R(54,56)                1.418          estimate D2E/DX2                !
 ! R94   R(55,83)                1.4037         estimate D2E/DX2                !
 ! R95   R(56,84)                1.4143         estimate D2E/DX2                !
 ! R96   R(57,59)                1.4391         estimate D2E/DX2                !
 ! R97   R(57,83)                1.4487         estimate D2E/DX2                !
 ! R98   R(58,60)                1.4457         estimate D2E/DX2                !
 ! R99   R(58,84)                1.4049         estimate D2E/DX2                !
 ! R100  R(59,60)                1.4018         estimate D2E/DX2                !
 ! R101  R(59,61)                1.4151         estimate D2E/DX2                !
 ! R102  R(60,62)                1.4174         estimate D2E/DX2                !
 ! R103  R(61,63)                1.4263         estimate D2E/DX2                !
 ! R104  R(62,64)                1.416          estimate D2E/DX2                !
 ! R105  R(63,64)                1.4097         estimate D2E/DX2                !
 ! R106  R(63,65)                1.412          estimate D2E/DX2                !
 ! R107  R(64,66)                1.4382         estimate D2E/DX2                !
 ! R108  R(65,67)                1.3874         estimate D2E/DX2                !
 ! R109  R(66,68)                1.4461         estimate D2E/DX2                !
 ! R110  R(67,68)                1.4544         estimate D2E/DX2                !
 ! R111  R(67,69)                1.4304         estimate D2E/DX2                !
 ! R112  R(68,70)                1.4081         estimate D2E/DX2                !
 ! R113  R(69,71)                1.4272         estimate D2E/DX2                !
 ! R114  R(70,72)                1.4377         estimate D2E/DX2                !
 ! R115  R(71,72)                1.3792         estimate D2E/DX2                !
 ! R116  R(71,73)                1.4396         estimate D2E/DX2                !
 ! R117  R(72,74)                1.4433         estimate D2E/DX2                !
 ! R118  R(73,75)                1.3795         estimate D2E/DX2                !
 ! R119  R(74,76)                1.381          estimate D2E/DX2                !
 ! R120  R(75,76)                1.4444         estimate D2E/DX2                !
 ! R121  R(75,77)                1.4235         estimate D2E/DX2                !
 ! R122  R(76,78)                1.4261         estimate D2E/DX2                !
 ! R123  R(77,81)                1.4407         estimate D2E/DX2                !
 ! R124  R(78,81)                1.4432         estimate D2E/DX2                !
 ! R125  R(79,82)                1.4283         estimate D2E/DX2                !
 ! R126  R(80,82)                1.4319         estimate D2E/DX2                !
 ! R127  R(81,82)                1.3675         estimate D2E/DX2                !
 ! R128  R(83,84)                1.4523         estimate D2E/DX2                !
 ! A1    A(5,1,17)             113.1058         estimate D2E/DX2                !
 ! A2    A(5,1,23)             110.1264         estimate D2E/DX2                !
 ! A3    A(5,1,86)             108.0852         estimate D2E/DX2                !
 ! A4    A(17,1,23)            101.03           estimate D2E/DX2                !
 ! A5    A(17,1,86)            111.7054         estimate D2E/DX2                !
 ! A6    A(23,1,86)            112.7592         estimate D2E/DX2                !
 ! A7    A(6,2,43)             107.4393         estimate D2E/DX2                !
 ! A8    A(6,2,44)             121.1254         estimate D2E/DX2                !
 ! A9    A(43,2,44)            121.603          estimate D2E/DX2                !
 ! A10   A(7,3,18)             122.0506         estimate D2E/DX2                !
 ! A11   A(7,3,26)             107.1118         estimate D2E/DX2                !
 ! A12   A(18,3,26)            120.7909         estimate D2E/DX2                !
 ! A13   A(8,4,45)             120.8479         estimate D2E/DX2                !
 ! A14   A(8,4,46)             106.749          estimate D2E/DX2                !
 ! A15   A(45,4,46)            122.349          estimate D2E/DX2                !
 ! A16   A(1,5,9)              120.1728         estimate D2E/DX2                !
 ! A17   A(1,5,29)             118.3618         estimate D2E/DX2                !
 ! A18   A(9,5,29)             120.1837         estimate D2E/DX2                !
 ! A19   A(2,6,10)             119.2604         estimate D2E/DX2                !
 ! A20   A(2,6,15)             108.5729         estimate D2E/DX2                !
 ! A21   A(10,6,15)            120.8136         estimate D2E/DX2                !
 ! A22   A(3,7,12)             122.5474         estimate D2E/DX2                !
 ! A23   A(3,7,30)             107.331          estimate D2E/DX2                !
 ! A24   A(12,7,30)            119.9471         estimate D2E/DX2                !
 ! A25   A(4,8,11)             119.3192         estimate D2E/DX2                !
 ! A26   A(4,8,16)             109.3832         estimate D2E/DX2                !
 ! A27   A(11,8,16)            120.7913         estimate D2E/DX2                !
 ! A28   A(5,9,13)             119.0843         estimate D2E/DX2                !
 ! A29   A(5,9,35)             120.3455         estimate D2E/DX2                !
 ! A30   A(13,9,35)            117.105          estimate D2E/DX2                !
 ! A31   A(6,10,49)            120.1029         estimate D2E/DX2                !
 ! A32   A(6,10,53)            118.6617         estimate D2E/DX2                !
 ! A33   A(49,10,53)           108.4228         estimate D2E/DX2                !
 ! A34   A(8,11,50)            120.2509         estimate D2E/DX2                !
 ! A35   A(8,11,54)            119.5805         estimate D2E/DX2                !
 ! A36   A(50,11,54)           109.421          estimate D2E/DX2                !
 ! A37   A(7,12,14)            114.6247         estimate D2E/DX2                !
 ! A38   A(7,12,36)            120.4475         estimate D2E/DX2                !
 ! A39   A(14,12,36)           119.4403         estimate D2E/DX2                !
 ! A40   A(9,13,15)            121.375          estimate D2E/DX2                !
 ! A41   A(9,13,43)            120.7592         estimate D2E/DX2                !
 ! A42   A(15,13,43)           107.0885         estimate D2E/DX2                !
 ! A43   A(12,14,16)           122.5025         estimate D2E/DX2                !
 ! A44   A(12,14,46)           120.7817         estimate D2E/DX2                !
 ! A45   A(16,14,46)           108.5373         estimate D2E/DX2                !
 ! A46   A(6,15,13)            107.5442         estimate D2E/DX2                !
 ! A47   A(6,15,17)            120.6013         estimate D2E/DX2                !
 ! A48   A(13,15,17)           120.7667         estimate D2E/DX2                !
 ! A49   A(8,16,14)            106.7441         estimate D2E/DX2                !
 ! A50   A(8,16,18)            120.8063         estimate D2E/DX2                !
 ! A51   A(14,16,18)           122.3052         estimate D2E/DX2                !
 ! A52   A(1,17,15)            121.5417         estimate D2E/DX2                !
 ! A53   A(1,17,19)            110.6188         estimate D2E/DX2                !
 ! A54   A(15,17,19)           118.7379         estimate D2E/DX2                !
 ! A55   A(3,18,16)            114.8351         estimate D2E/DX2                !
 ! A56   A(3,18,20)            119.3502         estimate D2E/DX2                !
 ! A57   A(16,18,20)           118.6059         estimate D2E/DX2                !
 ! A58   A(17,19,21)           108.8657         estimate D2E/DX2                !
 ! A59   A(17,19,53)           121.1557         estimate D2E/DX2                !
 ! A60   A(21,19,53)           119.1996         estimate D2E/DX2                !
 ! A61   A(18,20,22)           118.6457         estimate D2E/DX2                !
 ! A62   A(18,20,54)           119.3109         estimate D2E/DX2                !
 ! A63   A(22,20,54)           114.7831         estimate D2E/DX2                !
 ! A64   A(19,21,23)           107.3302         estimate D2E/DX2                !
 ! A65   A(19,21,57)           122.106          estimate D2E/DX2                !
 ! A66   A(23,21,57)           122.7207         estimate D2E/DX2                !
 ! A67   A(20,22,24)           120.7393         estimate D2E/DX2                !
 ! A68   A(20,22,58)           122.2518         estimate D2E/DX2                !
 ! A69   A(24,22,58)           106.8001         estimate D2E/DX2                !
 ! A70   A(1,23,21)            111.4094         estimate D2E/DX2                !
 ! A71   A(1,23,25)            122.3086         estimate D2E/DX2                !
 ! A72   A(21,23,25)           119.9463         estimate D2E/DX2                !
 ! A73   A(22,24,26)           120.6191         estimate D2E/DX2                !
 ! A74   A(22,24,62)           109.3998         estimate D2E/DX2                !
 ! A75   A(26,24,62)           119.2957         estimate D2E/DX2                !
 ! A76   A(23,25,27)           122.4577         estimate D2E/DX2                !
 ! A77   A(23,25,61)           119.4097         estimate D2E/DX2                !
 ! A78   A(27,25,61)           110.8641         estimate D2E/DX2                !
 ! A79   A(3,26,24)            119.7959         estimate D2E/DX2                !
 ! A80   A(3,26,28)            109.4592         estimate D2E/DX2                !
 ! A81   A(24,26,28)           120.1199         estimate D2E/DX2                !
 ! A82   A(25,27,29)           109.9271         estimate D2E/DX2                !
 ! A83   A(25,27,65)           101.4103         estimate D2E/DX2                !
 ! A84   A(25,27,85)           112.9579         estimate D2E/DX2                !
 ! A85   A(29,27,65)           111.7654         estimate D2E/DX2                !
 ! A86   A(29,27,85)           109.5343         estimate D2E/DX2                !
 ! A87   A(65,27,85)           111.0694         estimate D2E/DX2                !
 ! A88   A(26,28,30)           105.4962         estimate D2E/DX2                !
 ! A89   A(26,28,66)           122.2089         estimate D2E/DX2                !
 ! A90   A(30,28,66)           121.3662         estimate D2E/DX2                !
 ! A91   A(5,29,27)            124.1124         estimate D2E/DX2                !
 ! A92   A(5,29,31)            119.5966         estimate D2E/DX2                !
 ! A93   A(27,29,31)           114.7768         estimate D2E/DX2                !
 ! A94   A(7,30,28)            110.0122         estimate D2E/DX2                !
 ! A95   A(7,30,32)            119.7042         estimate D2E/DX2                !
 ! A96   A(28,30,32)           120.0772         estimate D2E/DX2                !
 ! A97   A(29,31,33)           120.6074         estimate D2E/DX2                !
 ! A98   A(29,31,69)           123.4861         estimate D2E/DX2                !
 ! A99   A(33,31,69)           109.0222         estimate D2E/DX2                !
 ! A100  A(30,32,34)           120.4652         estimate D2E/DX2                !
 ! A101  A(30,32,70)           119.446          estimate D2E/DX2                !
 ! A102  A(34,32,70)           110.0561         estimate D2E/DX2                !
 ! A103  A(31,33,35)           121.0917         estimate D2E/DX2                !
 ! A104  A(31,33,73)           107.4363         estimate D2E/DX2                !
 ! A105  A(35,33,73)           122.8699         estimate D2E/DX2                !
 ! A106  A(32,34,36)           121.1824         estimate D2E/DX2                !
 ! A107  A(32,34,74)           105.9628         estimate D2E/DX2                !
 ! A108  A(36,34,74)           122.4407         estimate D2E/DX2                !
 ! A109  A(9,35,33)            116.8508         estimate D2E/DX2                !
 ! A110  A(9,35,37)            121.2267         estimate D2E/DX2                !
 ! A111  A(33,35,37)           117.9806         estimate D2E/DX2                !
 ! A112  A(12,36,34)           117.2156         estimate D2E/DX2                !
 ! A113  A(12,36,38)           119.6652         estimate D2E/DX2                !
 ! A114  A(34,36,38)           118.1602         estimate D2E/DX2                !
 ! A115  A(35,37,39)           118.5978         estimate D2E/DX2                !
 ! A116  A(35,37,77)           118.3792         estimate D2E/DX2                !
 ! A117  A(39,37,77)           117.1996         estimate D2E/DX2                !
 ! A118  A(36,38,42)           119.4179         estimate D2E/DX2                !
 ! A119  A(36,38,78)           118.2204         estimate D2E/DX2                !
 ! A120  A(42,38,78)           117.2109         estimate D2E/DX2                !
 ! A121  A(37,39,43)           118.5372         estimate D2E/DX2                !
 ! A122  A(37,39,79)           120.3989         estimate D2E/DX2                !
 ! A123  A(43,39,79)           115.4132         estimate D2E/DX2                !
 ! A124  A(41,40,44)           121.3535         estimate D2E/DX2                !
 ! A125  A(41,40,79)           108.21           estimate D2E/DX2                !
 ! A126  A(44,40,79)           122.0627         estimate D2E/DX2                !
 ! A127  A(40,41,45)           120.8902         estimate D2E/DX2                !
 ! A128  A(40,41,80)           108.5285         estimate D2E/DX2                !
 ! A129  A(45,41,80)           122.14           estimate D2E/DX2                !
 ! A130  A(38,42,46)           119.6741         estimate D2E/DX2                !
 ! A131  A(38,42,80)           120.1324         estimate D2E/DX2                !
 ! A132  A(46,42,80)           114.5531         estimate D2E/DX2                !
 ! A133  A(2,43,13)            109.0486         estimate D2E/DX2                !
 ! A134  A(2,43,39)            121.637          estimate D2E/DX2                !
 ! A135  A(13,43,39)           121.7504         estimate D2E/DX2                !
 ! A136  A(2,44,40)            115.0469         estimate D2E/DX2                !
 ! A137  A(2,44,47)            120.1967         estimate D2E/DX2                !
 ! A138  A(40,44,47)           119.0362         estimate D2E/DX2                !
 ! A139  A(4,45,41)            114.564          estimate D2E/DX2                !
 ! A140  A(4,45,48)            120.3624         estimate D2E/DX2                !
 ! A141  A(41,45,48)           119.0857         estimate D2E/DX2                !
 ! A142  A(4,46,14)            108.4872         estimate D2E/DX2                !
 ! A143  A(4,46,42)            122.3921         estimate D2E/DX2                !
 ! A144  A(14,46,42)           120.8682         estimate D2E/DX2                !
 ! A145  A(44,47,48)           119.4253         estimate D2E/DX2                !
 ! A146  A(44,47,49)           116.6999         estimate D2E/DX2                !
 ! A147  A(48,47,49)           118.6095         estimate D2E/DX2                !
 ! A148  A(45,48,47)           120.0936         estimate D2E/DX2                !
 ! A149  A(45,48,50)           116.5462         estimate D2E/DX2                !
 ! A150  A(47,48,50)           118.1037         estimate D2E/DX2                !
 ! A151  A(10,49,47)           122.409          estimate D2E/DX2                !
 ! A152  A(10,49,51)           106.0637         estimate D2E/DX2                !
 ! A153  A(47,49,51)           121.1694         estimate D2E/DX2                !
 ! A154  A(11,50,48)           122.271          estimate D2E/DX2                !
 ! A155  A(11,50,52)           105.5059         estimate D2E/DX2                !
 ! A156  A(48,50,52)           121.3842         estimate D2E/DX2                !
 ! A157  A(49,51,52)           119.3409         estimate D2E/DX2                !
 ! A158  A(49,51,55)           109.816          estimate D2E/DX2                !
 ! A159  A(52,51,55)           120.4444         estimate D2E/DX2                !
 ! A160  A(50,52,51)           120.2645         estimate D2E/DX2                !
 ! A161  A(50,52,56)           109.9476         estimate D2E/DX2                !
 ! A162  A(51,52,56)           119.7358         estimate D2E/DX2                !
 ! A163  A(10,53,19)           119.785          estimate D2E/DX2                !
 ! A164  A(10,53,55)           108.8398         estimate D2E/DX2                !
 ! A165  A(19,53,55)           119.5058         estimate D2E/DX2                !
 ! A166  A(11,54,20)           120.8523         estimate D2E/DX2                !
 ! A167  A(11,54,56)           107.1205         estimate D2E/DX2                !
 ! A168  A(20,54,56)           122.1602         estimate D2E/DX2                !
 ! A169  A(51,55,53)           105.9439         estimate D2E/DX2                !
 ! A170  A(51,55,83)           121.2046         estimate D2E/DX2                !
 ! A171  A(53,55,83)           122.335          estimate D2E/DX2                !
 ! A172  A(52,56,54)           107.3941         estimate D2E/DX2                !
 ! A173  A(52,56,84)           119.947          estimate D2E/DX2                !
 ! A174  A(54,56,84)           122.4198         estimate D2E/DX2                !
 ! A175  A(21,57,59)           116.3383         estimate D2E/DX2                !
 ! A176  A(21,57,83)           118.7723         estimate D2E/DX2                !
 ! A177  A(59,57,83)           119.6912         estimate D2E/DX2                !
 ! A178  A(22,58,60)           108.3066         estimate D2E/DX2                !
 ! A179  A(22,58,84)           122.6211         estimate D2E/DX2                !
 ! A180  A(60,58,84)           120.6538         estimate D2E/DX2                !
 ! A181  A(57,59,60)           119.9895         estimate D2E/DX2                !
 ! A182  A(57,59,61)           119.5646         estimate D2E/DX2                !
 ! A183  A(60,59,61)           115.1102         estimate D2E/DX2                !
 ! A184  A(58,60,59)           120.5596         estimate D2E/DX2                !
 ! A185  A(58,60,62)           108.7158         estimate D2E/DX2                !
 ! A186  A(59,60,62)           122.4489         estimate D2E/DX2                !
 ! A187  A(25,61,59)           121.708          estimate D2E/DX2                !
 ! A188  A(25,61,63)           108.2125         estimate D2E/DX2                !
 ! A189  A(59,61,63)           121.8903         estimate D2E/DX2                !
 ! A190  A(24,62,60)           106.6849         estimate D2E/DX2                !
 ! A191  A(24,62,64)           120.9648         estimate D2E/DX2                !
 ! A192  A(60,62,64)           122.1405         estimate D2E/DX2                !
 ! A193  A(61,63,64)           122.0769         estimate D2E/DX2                !
 ! A194  A(61,63,65)           108.9781         estimate D2E/DX2                !
 ! A195  A(64,63,65)           121.9254         estimate D2E/DX2                !
 ! A196  A(62,64,63)           114.905          estimate D2E/DX2                !
 ! A197  A(62,64,66)           120.4248         estimate D2E/DX2                !
 ! A198  A(63,64,66)           118.5937         estimate D2E/DX2                !
 ! A199  A(27,65,63)           109.8275         estimate D2E/DX2                !
 ! A200  A(27,65,67)           123.8129         estimate D2E/DX2                !
 ! A201  A(63,65,67)           121.0153         estimate D2E/DX2                !
 ! A202  A(28,66,64)           116.6217         estimate D2E/DX2                !
 ! A203  A(28,66,68)           118.2814         estimate D2E/DX2                !
 ! A204  A(64,66,68)           119.5622         estimate D2E/DX2                !
 ! A205  A(65,67,68)           119.1807         estimate D2E/DX2                !
 ! A206  A(65,67,69)           115.527          estimate D2E/DX2                !
 ! A207  A(68,67,69)           119.5124         estimate D2E/DX2                !
 ! A208  A(66,68,67)           119.5656         estimate D2E/DX2                !
 ! A209  A(66,68,70)           118.3435         estimate D2E/DX2                !
 ! A210  A(67,68,70)           117.1367         estimate D2E/DX2                !
 ! A211  A(31,69,67)           120.3368         estimate D2E/DX2                !
 ! A212  A(31,69,71)           107.2669         estimate D2E/DX2                !
 ! A213  A(67,69,71)           121.0853         estimate D2E/DX2                !
 ! A214  A(32,70,68)           121.3891         estimate D2E/DX2                !
 ! A215  A(32,70,72)           106.1268         estimate D2E/DX2                !
 ! A216  A(68,70,72)           122.4064         estimate D2E/DX2                !
 ! A217  A(69,71,72)           119.5091         estimate D2E/DX2                !
 ! A218  A(69,71,73)           108.426          estimate D2E/DX2                !
 ! A219  A(72,71,73)           119.8914         estimate D2E/DX2                !
 ! A220  A(70,72,71)           120.1293         estimate D2E/DX2                !
 ! A221  A(70,72,74)           108.1722         estimate D2E/DX2                !
 ! A222  A(71,72,74)           119.7833         estimate D2E/DX2                !
 ! A223  A(33,73,71)           107.589          estimate D2E/DX2                !
 ! A224  A(33,73,75)           119.0436         estimate D2E/DX2                !
 ! A225  A(71,73,75)           120.5543         estimate D2E/DX2                !
 ! A226  A(34,74,72)           108.7699         estimate D2E/DX2                !
 ! A227  A(34,74,76)           119.1991         estimate D2E/DX2                !
 ! A228  A(72,74,76)           120.2829         estimate D2E/DX2                !
 ! A229  A(73,75,76)           119.5862         estimate D2E/DX2                !
 ! A230  A(73,75,77)           119.5135         estimate D2E/DX2                !
 ! A231  A(76,75,77)           108.6449         estimate D2E/DX2                !
 ! A232  A(74,76,75)           119.8791         estimate D2E/DX2                !
 ! A233  A(74,76,78)           119.5211         estimate D2E/DX2                !
 ! A234  A(75,76,78)           108.5849         estimate D2E/DX2                !
 ! A235  A(37,77,75)           122.1312         estimate D2E/DX2                !
 ! A236  A(37,77,81)           120.8609         estimate D2E/DX2                !
 ! A237  A(75,77,81)           106.3447         estimate D2E/DX2                !
 ! A238  A(38,78,76)           122.2477         estimate D2E/DX2                !
 ! A239  A(38,78,81)           121.3489         estimate D2E/DX2                !
 ! A240  A(76,78,81)           106.141          estimate D2E/DX2                !
 ! A241  A(39,79,40)           121.8373         estimate D2E/DX2                !
 ! A242  A(39,79,82)           120.1479         estimate D2E/DX2                !
 ! A243  A(40,79,82)           106.9268         estimate D2E/DX2                !
 ! A244  A(41,80,42)           122.4475         estimate D2E/DX2                !
 ! A245  A(41,80,82)           106.803          estimate D2E/DX2                !
 ! A246  A(42,80,82)           120.372          estimate D2E/DX2                !
 ! A247  A(77,81,78)           109.4285         estimate D2E/DX2                !
 ! A248  A(77,81,82)           120.0593         estimate D2E/DX2                !
 ! A249  A(78,81,82)           120.1169         estimate D2E/DX2                !
 ! A250  A(79,82,80)           109.2872         estimate D2E/DX2                !
 ! A251  A(79,82,81)           120.0986         estimate D2E/DX2                !
 ! A252  A(80,82,81)           120.0353         estimate D2E/DX2                !
 ! A253  A(55,83,57)           117.9565         estimate D2E/DX2                !
 ! A254  A(55,83,84)           117.4052         estimate D2E/DX2                !
 ! A255  A(57,83,84)           119.4109         estimate D2E/DX2                !
 ! A256  A(56,84,58)           114.6408         estimate D2E/DX2                !
 ! A257  A(56,84,83)           120.2182         estimate D2E/DX2                !
 ! A258  A(58,84,83)           119.5047         estimate D2E/DX2                !
 ! D1    D(17,1,5,9)            21.8862         estimate D2E/DX2                !
 ! D2    D(17,1,5,29)         -145.2103         estimate D2E/DX2                !
 ! D3    D(23,1,5,9)           134.0895         estimate D2E/DX2                !
 ! D4    D(23,1,5,29)          -33.007          estimate D2E/DX2                !
 ! D5    D(86,1,5,9)          -102.33           estimate D2E/DX2                !
 ! D6    D(86,1,5,29)           90.5735         estimate D2E/DX2                !
 ! D7    D(5,1,17,15)          -21.6531         estimate D2E/DX2                !
 ! D8    D(5,1,17,19)          124.8283         estimate D2E/DX2                !
 ! D9    D(23,1,17,15)        -139.3187         estimate D2E/DX2                !
 ! D10   D(23,1,17,19)           7.1628         estimate D2E/DX2                !
 ! D11   D(86,1,17,15)         100.5617         estimate D2E/DX2                !
 ! D12   D(86,1,17,19)        -112.9569         estimate D2E/DX2                !
 ! D13   D(5,1,23,21)         -122.5552         estimate D2E/DX2                !
 ! D14   D(5,1,23,25)           29.3723         estimate D2E/DX2                !
 ! D15   D(17,1,23,21)          -2.7368         estimate D2E/DX2                !
 ! D16   D(17,1,23,25)         149.1907         estimate D2E/DX2                !
 ! D17   D(86,1,23,21)         116.6291         estimate D2E/DX2                !
 ! D18   D(86,1,23,25)         -91.4435         estimate D2E/DX2                !
 ! D19   D(43,2,6,10)         -146.3498         estimate D2E/DX2                !
 ! D20   D(43,2,6,15)           -2.4801         estimate D2E/DX2                !
 ! D21   D(44,2,6,10)           -0.1132         estimate D2E/DX2                !
 ! D22   D(44,2,6,15)          143.7565         estimate D2E/DX2                !
 ! D23   D(6,2,43,13)            5.1118         estimate D2E/DX2                !
 ! D24   D(6,2,43,39)          155.1779         estimate D2E/DX2                !
 ! D25   D(44,2,43,13)        -140.9295         estimate D2E/DX2                !
 ! D26   D(44,2,43,39)           9.1366         estimate D2E/DX2                !
 ! D27   D(6,2,44,40)         -156.2209         estimate D2E/DX2                !
 ! D28   D(6,2,44,47)           -3.121          estimate D2E/DX2                !
 ! D29   D(43,2,44,40)         -14.7229         estimate D2E/DX2                !
 ! D30   D(43,2,44,47)         138.3769         estimate D2E/DX2                !
 ! D31   D(18,3,7,12)            3.3494         estimate D2E/DX2                !
 ! D32   D(18,3,7,30)          148.3881         estimate D2E/DX2                !
 ! D33   D(26,3,7,12)         -142.2077         estimate D2E/DX2                !
 ! D34   D(26,3,7,30)            2.831          estimate D2E/DX2                !
 ! D35   D(7,3,18,16)            6.445          estimate D2E/DX2                !
 ! D36   D(7,3,18,20)         -143.4964         estimate D2E/DX2                !
 ! D37   D(26,3,18,16)         147.4506         estimate D2E/DX2                !
 ! D38   D(26,3,18,20)          -2.4909         estimate D2E/DX2                !
 ! D39   D(7,3,26,24)          146.6914         estimate D2E/DX2                !
 ! D40   D(7,3,26,28)            2.0447         estimate D2E/DX2                !
 ! D41   D(18,3,26,24)           0.6116         estimate D2E/DX2                !
 ! D42   D(18,3,26,28)        -144.0351         estimate D2E/DX2                !
 ! D43   D(45,4,8,11)            2.2            estimate D2E/DX2                !
 ! D44   D(45,4,8,16)         -142.8836         estimate D2E/DX2                !
 ! D45   D(46,4,8,11)          148.3603         estimate D2E/DX2                !
 ! D46   D(46,4,8,16)            3.2767         estimate D2E/DX2                !
 ! D47   D(8,4,45,41)          152.1762         estimate D2E/DX2                !
 ! D48   D(8,4,45,48)           -0.3487         estimate D2E/DX2                !
 ! D49   D(46,4,45,41)          11.3155         estimate D2E/DX2                !
 ! D50   D(46,4,45,48)        -141.2095         estimate D2E/DX2                !
 ! D51   D(8,4,46,14)           -2.5772         estimate D2E/DX2                !
 ! D52   D(8,4,46,42)         -151.0933         estimate D2E/DX2                !
 ! D53   D(45,4,46,14)         142.9566         estimate D2E/DX2                !
 ! D54   D(45,4,46,42)          -5.5595         estimate D2E/DX2                !
 ! D55   D(1,5,9,13)           -10.5151         estimate D2E/DX2                !
 ! D56   D(1,5,9,35)          -168.9132         estimate D2E/DX2                !
 ! D57   D(29,5,9,13)          156.3452         estimate D2E/DX2                !
 ! D58   D(29,5,9,35)           -2.0529         estimate D2E/DX2                !
 ! D59   D(1,5,29,27)            8.9482         estimate D2E/DX2                !
 ! D60   D(1,5,29,31)          174.16           estimate D2E/DX2                !
 ! D61   D(9,5,29,27)         -158.1468         estimate D2E/DX2                !
 ! D62   D(9,5,29,31)            7.0649         estimate D2E/DX2                !
 ! D63   D(2,6,10,49)            0.9153         estimate D2E/DX2                !
 ! D64   D(2,6,10,53)          138.0711         estimate D2E/DX2                !
 ! D65   D(15,6,10,49)        -138.4842         estimate D2E/DX2                !
 ! D66   D(15,6,10,53)          -1.3284         estimate D2E/DX2                !
 ! D67   D(2,6,15,13)           -1.0            estimate D2E/DX2                !
 ! D68   D(2,6,15,17)         -145.124          estimate D2E/DX2                !
 ! D69   D(10,6,15,13)         142.206          estimate D2E/DX2                !
 ! D70   D(10,6,15,17)          -1.9179         estimate D2E/DX2                !
 ! D71   D(3,7,12,14)           -9.2522         estimate D2E/DX2                !
 ! D72   D(3,7,12,36)          144.4635         estimate D2E/DX2                !
 ! D73   D(30,7,12,14)        -150.1066         estimate D2E/DX2                !
 ! D74   D(30,7,12,36)           3.6091         estimate D2E/DX2                !
 ! D75   D(3,7,30,28)           -6.8435         estimate D2E/DX2                !
 ! D76   D(3,7,30,32)         -152.1129         estimate D2E/DX2                !
 ! D77   D(12,7,30,28)         139.2764         estimate D2E/DX2                !
 ! D78   D(12,7,30,32)          -5.9929         estimate D2E/DX2                !
 ! D79   D(4,8,11,50)            0.894          estimate D2E/DX2                !
 ! D80   D(4,8,11,54)         -139.7894         estimate D2E/DX2                !
 ! D81   D(16,8,11,50)         141.9516         estimate D2E/DX2                !
 ! D82   D(16,8,11,54)           1.2682         estimate D2E/DX2                !
 ! D83   D(4,8,16,14)           -2.6971         estimate D2E/DX2                !
 ! D84   D(4,8,16,18)          143.3156         estimate D2E/DX2                !
 ! D85   D(11,8,16,14)        -147.1793         estimate D2E/DX2                !
 ! D86   D(11,8,16,18)          -1.1667         estimate D2E/DX2                !
 ! D87   D(5,9,13,15)           -3.0426         estimate D2E/DX2                !
 ! D88   D(5,9,13,43)         -142.8113         estimate D2E/DX2                !
 ! D89   D(35,9,13,15)         156.0466         estimate D2E/DX2                !
 ! D90   D(35,9,13,43)          16.2779         estimate D2E/DX2                !
 ! D91   D(5,9,35,33)           -7.9522         estimate D2E/DX2                !
 ! D92   D(5,9,35,37)          149.2504         estimate D2E/DX2                !
 ! D93   D(13,9,35,33)        -166.7643         estimate D2E/DX2                !
 ! D94   D(13,9,35,37)          -9.5617         estimate D2E/DX2                !
 ! D95   D(6,10,49,47)           1.6118         estimate D2E/DX2                !
 ! D96   D(6,10,49,51)         146.7735         estimate D2E/DX2                !
 ! D97   D(53,10,49,47)       -139.418          estimate D2E/DX2                !
 ! D98   D(53,10,49,51)          5.7437         estimate D2E/DX2                !
 ! D99   D(6,10,53,19)           0.97           estimate D2E/DX2                !
 ! D100  D(6,10,53,55)        -141.6751         estimate D2E/DX2                !
 ! D101  D(49,10,53,19)        142.6487         estimate D2E/DX2                !
 ! D102  D(49,10,53,55)          0.0037         estimate D2E/DX2                !
 ! D103  D(8,11,50,48)          -6.0936         estimate D2E/DX2                !
 ! D104  D(8,11,50,52)        -150.6186         estimate D2E/DX2                !
 ! D105  D(54,11,50,48)        138.1551         estimate D2E/DX2                !
 ! D106  D(54,11,50,52)         -6.3699         estimate D2E/DX2                !
 ! D107  D(8,11,54,20)           0.479          estimate D2E/DX2                !
 ! D108  D(8,11,54,56)         146.8645         estimate D2E/DX2                !
 ! D109  D(50,11,54,20)       -144.046          estimate D2E/DX2                !
 ! D110  D(50,11,54,56)          2.3395         estimate D2E/DX2                !
 ! D111  D(7,12,14,16)           5.5501         estimate D2E/DX2                !
 ! D112  D(7,12,14,46)         150.4662         estimate D2E/DX2                !
 ! D113  D(36,12,14,16)       -148.4503         estimate D2E/DX2                !
 ! D114  D(36,12,14,46)         -3.5342         estimate D2E/DX2                !
 ! D115  D(7,12,36,34)           4.9501         estimate D2E/DX2                !
 ! D116  D(7,12,36,38)        -149.6937         estimate D2E/DX2                !
 ! D117  D(14,12,36,34)        157.4181         estimate D2E/DX2                !
 ! D118  D(14,12,36,38)          2.7744         estimate D2E/DX2                !
 ! D119  D(9,13,15,6)         -140.4017         estimate D2E/DX2                !
 ! D120  D(9,13,15,17)           3.6512         estimate D2E/DX2                !
 ! D121  D(43,13,15,6)           4.1021         estimate D2E/DX2                !
 ! D122  D(43,13,15,17)        148.1549         estimate D2E/DX2                !
 ! D123  D(9,13,43,2)          139.0683         estimate D2E/DX2                !
 ! D124  D(9,13,43,39)         -10.9574         estimate D2E/DX2                !
 ! D125  D(15,13,43,2)          -5.6987         estimate D2E/DX2                !
 ! D126  D(15,13,43,39)       -155.7245         estimate D2E/DX2                !
 ! D127  D(12,14,16,8)         149.675          estimate D2E/DX2                !
 ! D128  D(12,14,16,18)          4.2903         estimate D2E/DX2                !
 ! D129  D(46,14,16,8)           1.0626         estimate D2E/DX2                !
 ! D130  D(46,14,16,18)       -144.322          estimate D2E/DX2                !
 ! D131  D(12,14,46,4)        -148.2975         estimate D2E/DX2                !
 ! D132  D(12,14,46,42)          0.7871         estimate D2E/DX2                !
 ! D133  D(16,14,46,4)           0.9538         estimate D2E/DX2                !
 ! D134  D(16,14,46,42)        150.0384         estimate D2E/DX2                !
 ! D135  D(6,15,17,1)          149.2255         estimate D2E/DX2                !
 ! D136  D(6,15,17,19)           5.3426         estimate D2E/DX2                !
 ! D137  D(13,15,17,1)           9.7897         estimate D2E/DX2                !
 ! D138  D(13,15,17,19)       -134.0932         estimate D2E/DX2                !
 ! D139  D(8,16,18,3)         -150.8508         estimate D2E/DX2                !
 ! D140  D(8,16,18,20)          -0.6719         estimate D2E/DX2                !
 ! D141  D(14,16,18,3)         -10.1478         estimate D2E/DX2                !
 ! D142  D(14,16,18,20)        140.0311         estimate D2E/DX2                !
 ! D143  D(1,17,19,21)          -9.2622         estimate D2E/DX2                !
 ! D144  D(1,17,19,53)        -153.2634         estimate D2E/DX2                !
 ! D145  D(15,17,19,21)        138.2762         estimate D2E/DX2                !
 ! D146  D(15,17,19,53)         -5.725          estimate D2E/DX2                !
 ! D147  D(3,18,20,22)           2.4788         estimate D2E/DX2                !
 ! D148  D(3,18,20,54)         151.1786         estimate D2E/DX2                !
 ! D149  D(16,18,20,22)       -146.3388         estimate D2E/DX2                !
 ! D150  D(16,18,20,54)          2.361          estimate D2E/DX2                !
 ! D151  D(17,19,21,23)          7.1591         estimate D2E/DX2                !
 ! D152  D(17,19,21,57)       -142.6408         estimate D2E/DX2                !
 ! D153  D(53,19,21,23)        151.9743         estimate D2E/DX2                !
 ! D154  D(53,19,21,57)          2.1745         estimate D2E/DX2                !
 ! D155  D(17,19,53,10)          2.5412         estimate D2E/DX2                !
 ! D156  D(17,19,53,55)        141.2551         estimate D2E/DX2                !
 ! D157  D(21,19,53,10)       -137.8783         estimate D2E/DX2                !
 ! D158  D(21,19,53,55)          0.8356         estimate D2E/DX2                !
 ! D159  D(18,20,22,24)         -0.6585         estimate D2E/DX2                !
 ! D160  D(18,20,22,58)        139.9542         estimate D2E/DX2                !
 ! D161  D(54,20,22,24)       -150.7269         estimate D2E/DX2                !
 ! D162  D(54,20,22,58)        -10.1143         estimate D2E/DX2                !
 ! D163  D(18,20,54,11)         -2.2996         estimate D2E/DX2                !
 ! D164  D(18,20,54,56)       -143.6201         estimate D2E/DX2                !
 ! D165  D(22,20,54,11)        147.5558         estimate D2E/DX2                !
 ! D166  D(22,20,54,56)          6.2353         estimate D2E/DX2                !
 ! D167  D(19,21,23,1)          -2.5553         estimate D2E/DX2                !
 ! D168  D(19,21,23,25)       -155.2317         estimate D2E/DX2                !
 ! D169  D(57,21,23,1)         147.0163         estimate D2E/DX2                !
 ! D170  D(57,21,23,25)         -5.6601         estimate D2E/DX2                !
 ! D171  D(19,21,57,59)        151.9459         estimate D2E/DX2                !
 ! D172  D(19,21,57,83)         -2.5299         estimate D2E/DX2                !
 ! D173  D(23,21,57,59)          6.749          estimate D2E/DX2                !
 ! D174  D(23,21,57,83)       -147.7268         estimate D2E/DX2                !
 ! D175  D(20,22,24,26)         -1.235          estimate D2E/DX2                !
 ! D176  D(20,22,24,62)        142.9823         estimate D2E/DX2                !
 ! D177  D(58,22,24,26)       -147.139          estimate D2E/DX2                !
 ! D178  D(58,22,24,62)         -2.9218         estimate D2E/DX2                !
 ! D179  D(20,22,58,60)       -143.6727         estimate D2E/DX2                !
 ! D180  D(20,22,58,84)          4.4701         estimate D2E/DX2                !
 ! D181  D(24,22,58,60)          1.5965         estimate D2E/DX2                !
 ! D182  D(24,22,58,84)        149.7393         estimate D2E/DX2                !
 ! D183  D(1,23,25,27)           0.0684         estimate D2E/DX2                !
 ! D184  D(1,23,25,61)        -147.396          estimate D2E/DX2                !
 ! D185  D(21,23,25,27)        149.6958         estimate D2E/DX2                !
 ! D186  D(21,23,25,61)          2.2315         estimate D2E/DX2                !
 ! D187  D(22,24,26,3)           1.2658         estimate D2E/DX2                !
 ! D188  D(22,24,26,28)        142.162          estimate D2E/DX2                !
 ! D189  D(62,24,26,3)        -139.5071         estimate D2E/DX2                !
 ! D190  D(62,24,26,28)          1.389          estimate D2E/DX2                !
 ! D191  D(22,24,62,60)          3.09           estimate D2E/DX2                !
 ! D192  D(22,24,62,64)       -142.7556         estimate D2E/DX2                !
 ! D193  D(26,24,62,60)        147.8516         estimate D2E/DX2                !
 ! D194  D(26,24,62,64)          2.0059         estimate D2E/DX2                !
 ! D195  D(23,25,27,29)        -25.0165         estimate D2E/DX2                !
 ! D196  D(23,25,27,65)       -143.4112         estimate D2E/DX2                !
 ! D197  D(23,25,27,85)         97.6556         estimate D2E/DX2                !
 ! D198  D(61,25,27,29)        124.8913         estimate D2E/DX2                !
 ! D199  D(61,25,27,65)          6.4967         estimate D2E/DX2                !
 ! D200  D(61,25,27,85)       -112.4365         estimate D2E/DX2                !
 ! D201  D(23,25,61,59)         -0.4277         estimate D2E/DX2                !
 ! D202  D(23,25,61,63)        148.5546         estimate D2E/DX2                !
 ! D203  D(27,25,61,59)       -151.3723         estimate D2E/DX2                !
 ! D204  D(27,25,61,63)         -2.39           estimate D2E/DX2                !
 ! D205  D(3,26,28,30)          -6.1004         estimate D2E/DX2                !
 ! D206  D(3,26,28,66)         138.2934         estimate D2E/DX2                !
 ! D207  D(24,26,28,30)       -150.6143         estimate D2E/DX2                !
 ! D208  D(24,26,28,66)         -6.2205         estimate D2E/DX2                !
 ! D209  D(25,27,29,5)          20.3128         estimate D2E/DX2                !
 ! D210  D(25,27,29,31)       -145.5381         estimate D2E/DX2                !
 ! D211  D(65,27,29,5)         132.1108         estimate D2E/DX2                !
 ! D212  D(65,27,29,31)        -33.7401         estimate D2E/DX2                !
 ! D213  D(85,27,29,5)        -104.3578         estimate D2E/DX2                !
 ! D214  D(85,27,29,31)         89.7913         estimate D2E/DX2                !
 ! D215  D(25,27,65,63)         -8.4578         estimate D2E/DX2                !
 ! D216  D(25,27,65,67)        145.7972         estimate D2E/DX2                !
 ! D217  D(29,27,65,63)       -125.5207         estimate D2E/DX2                !
 ! D218  D(29,27,65,67)         28.7342         estimate D2E/DX2                !
 ! D219  D(85,27,65,63)        111.8192         estimate D2E/DX2                !
 ! D220  D(85,27,65,67)        -93.9259         estimate D2E/DX2                !
 ! D221  D(26,28,30,7)           7.9211         estimate D2E/DX2                !
 ! D222  D(26,28,30,32)        153.0414         estimate D2E/DX2                !
 ! D223  D(66,28,30,7)        -136.8442         estimate D2E/DX2                !
 ! D224  D(66,28,30,32)          8.2762         estimate D2E/DX2                !
 ! D225  D(26,28,66,64)          7.1832         estimate D2E/DX2                !
 ! D226  D(26,28,66,68)       -146.5004         estimate D2E/DX2                !
 ! D227  D(30,28,66,64)        146.1063         estimate D2E/DX2                !
 ! D228  D(30,28,66,68)         -7.5773         estimate D2E/DX2                !
 ! D229  D(5,29,31,33)          -2.0337         estimate D2E/DX2                !
 ! D230  D(5,29,31,69)        -149.7495         estimate D2E/DX2                !
 ! D231  D(27,29,31,33)        164.5069         estimate D2E/DX2                !
 ! D232  D(27,29,31,69)         16.7911         estimate D2E/DX2                !
 ! D233  D(7,30,32,34)          -0.3035         estimate D2E/DX2                !
 ! D234  D(7,30,32,70)         141.7853         estimate D2E/DX2                !
 ! D235  D(28,30,32,34)       -142.0884         estimate D2E/DX2                !
 ! D236  D(28,30,32,70)          0.0004         estimate D2E/DX2                !
 ! D237  D(29,31,33,35)         -8.4986         estimate D2E/DX2                !
 ! D238  D(29,31,33,73)       -157.1158         estimate D2E/DX2                !
 ! D239  D(69,31,33,35)        143.3894         estimate D2E/DX2                !
 ! D240  D(69,31,33,73)         -5.2278         estimate D2E/DX2                !
 ! D241  D(29,31,69,67)         10.6005         estimate D2E/DX2                !
 ! D242  D(29,31,69,71)        154.5371         estimate D2E/DX2                !
 ! D243  D(33,31,69,67)       -140.3046         estimate D2E/DX2                !
 ! D244  D(33,31,69,71)          3.6319         estimate D2E/DX2                !
 ! D245  D(30,32,34,36)          9.2901         estimate D2E/DX2                !
 ! D246  D(30,32,34,74)        154.9067         estimate D2E/DX2                !
 ! D247  D(70,32,34,36)       -135.987          estimate D2E/DX2                !
 ! D248  D(70,32,34,74)          9.6296         estimate D2E/DX2                !
 ! D249  D(30,32,70,68)         -8.9207         estimate D2E/DX2                !
 ! D250  D(30,32,70,72)       -155.0126         estimate D2E/DX2                !
 ! D251  D(34,32,70,68)        136.7605         estimate D2E/DX2                !
 ! D252  D(34,32,70,72)         -9.3315         estimate D2E/DX2                !
 ! D253  D(31,33,35,9)          13.0844         estimate D2E/DX2                !
 ! D254  D(31,33,35,37)       -144.8791         estimate D2E/DX2                !
 ! D255  D(73,33,35,9)         156.819          estimate D2E/DX2                !
 ! D256  D(73,33,35,37)         -1.1445         estimate D2E/DX2                !
 ! D257  D(31,33,73,71)          4.7376         estimate D2E/DX2                !
 ! D258  D(31,33,73,75)        146.5536         estimate D2E/DX2                !
 ! D259  D(35,33,73,71)       -143.193          estimate D2E/DX2                !
 ! D260  D(35,33,73,75)         -1.3771         estimate D2E/DX2                !
 ! D261  D(32,34,36,12)        -11.3534         estimate D2E/DX2                !
 ! D262  D(32,34,36,38)        143.6808         estimate D2E/DX2                !
 ! D263  D(74,34,36,12)       -151.3114         estimate D2E/DX2                !
 ! D264  D(74,34,36,38)          3.7228         estimate D2E/DX2                !
 ! D265  D(32,34,74,72)         -6.0782         estimate D2E/DX2                !
 ! D266  D(32,34,74,76)       -149.2127         estimate D2E/DX2                !
 ! D267  D(36,34,74,72)        138.9989         estimate D2E/DX2                !
 ! D268  D(36,34,74,76)         -4.1357         estimate D2E/DX2                !
 ! D269  D(9,35,37,39)          -2.702          estimate D2E/DX2                !
 ! D270  D(9,35,37,77)        -155.1055         estimate D2E/DX2                !
 ! D271  D(33,35,37,39)        154.2528         estimate D2E/DX2                !
 ! D272  D(33,35,37,77)          1.8492         estimate D2E/DX2                !
 ! D273  D(12,36,38,42)          0.6665         estimate D2E/DX2                !
 ! D274  D(12,36,38,78)        154.6126         estimate D2E/DX2                !
 ! D275  D(34,36,38,42)       -153.7411         estimate D2E/DX2                !
 ! D276  D(34,36,38,78)          0.205          estimate D2E/DX2                !
 ! D277  D(35,37,39,43)          8.4118         estimate D2E/DX2                !
 ! D278  D(35,37,39,79)       -143.8864         estimate D2E/DX2                !
 ! D279  D(77,37,39,43)        161.1381         estimate D2E/DX2                !
 ! D280  D(77,37,39,79)          8.8398         estimate D2E/DX2                !
 ! D281  D(35,37,77,75)         -0.1334         estimate D2E/DX2                !
 ! D282  D(35,37,77,81)        139.5456         estimate D2E/DX2                !
 ! D283  D(39,37,77,75)       -152.9207         estimate D2E/DX2                !
 ! D284  D(39,37,77,81)        -13.2418         estimate D2E/DX2                !
 ! D285  D(36,38,42,46)         -3.3984         estimate D2E/DX2                !
 ! D286  D(36,38,42,80)        148.6948         estimate D2E/DX2                !
 ! D287  D(78,38,42,46)       -157.6023         estimate D2E/DX2                !
 ! D288  D(78,38,42,80)         -5.5091         estimate D2E/DX2                !
 ! D289  D(36,38,78,76)         -3.7591         estimate D2E/DX2                !
 ! D290  D(36,38,78,81)       -144.0432         estimate D2E/DX2                !
 ! D291  D(42,38,78,76)        150.761          estimate D2E/DX2                !
 ! D292  D(42,38,78,81)         10.4769         estimate D2E/DX2                !
 ! D293  D(37,39,43,2)        -148.2501         estimate D2E/DX2                !
 ! D294  D(37,39,43,13)         -1.9392         estimate D2E/DX2                !
 ! D295  D(79,39,43,2)           5.396          estimate D2E/DX2                !
 ! D296  D(79,39,43,13)        151.7069         estimate D2E/DX2                !
 ! D297  D(37,39,79,40)        139.388          estimate D2E/DX2                !
 ! D298  D(37,39,79,82)          0.1917         estimate D2E/DX2                !
 ! D299  D(43,39,79,40)        -13.7308         estimate D2E/DX2                !
 ! D300  D(43,39,79,82)       -152.9271         estimate D2E/DX2                !
 ! D301  D(44,40,41,45)         -0.5379         estimate D2E/DX2                !
 ! D302  D(44,40,41,80)       -149.2224         estimate D2E/DX2                !
 ! D303  D(79,40,41,45)        148.2036         estimate D2E/DX2                !
 ! D304  D(79,40,41,80)         -0.4809         estimate D2E/DX2                !
 ! D305  D(41,40,44,2)         150.8815         estimate D2E/DX2                !
 ! D306  D(41,40,44,47)         -2.5506         estimate D2E/DX2                !
 ! D307  D(79,40,44,2)           6.4467         estimate D2E/DX2                !
 ! D308  D(79,40,44,47)       -146.9854         estimate D2E/DX2                !
 ! D309  D(41,40,79,39)       -140.4354         estimate D2E/DX2                !
 ! D310  D(41,40,79,82)          3.3604         estimate D2E/DX2                !
 ! D311  D(44,40,79,39)          8.0387         estimate D2E/DX2                !
 ! D312  D(44,40,79,82)        151.8345         estimate D2E/DX2                !
 ! D313  D(40,41,45,4)        -150.1628         estimate D2E/DX2                !
 ! D314  D(40,41,45,48)          2.7382         estimate D2E/DX2                !
 ! D315  D(80,41,45,4)          -5.7542         estimate D2E/DX2                !
 ! D316  D(80,41,45,48)        147.1469         estimate D2E/DX2                !
 ! D317  D(40,41,80,42)        142.2854         estimate D2E/DX2                !
 ! D318  D(40,41,80,82)         -2.5859         estimate D2E/DX2                !
 ! D319  D(45,41,80,42)         -5.9286         estimate D2E/DX2                !
 ! D320  D(45,41,80,82)       -150.7999         estimate D2E/DX2                !
 ! D321  D(38,42,46,4)         147.4767         estimate D2E/DX2                !
 ! D322  D(38,42,46,14)          2.7197         estimate D2E/DX2                !
 ! D323  D(80,42,46,4)          -6.0982         estimate D2E/DX2                !
 ! D324  D(80,42,46,14)       -150.8551         estimate D2E/DX2                !
 ! D325  D(38,42,80,41)       -141.775          estimate D2E/DX2                !
 ! D326  D(38,42,80,82)         -1.4529         estimate D2E/DX2                !
 ! D327  D(46,42,80,41)         11.6685         estimate D2E/DX2                !
 ! D328  D(46,42,80,82)        151.9906         estimate D2E/DX2                !
 ! D329  D(2,44,47,48)        -148.6735         estimate D2E/DX2                !
 ! D330  D(2,44,47,49)           5.3615         estimate D2E/DX2                !
 ! D331  D(40,44,47,48)          3.3691         estimate D2E/DX2                !
 ! D332  D(40,44,47,49)        157.4041         estimate D2E/DX2                !
 ! D333  D(4,45,48,47)         149.4635         estimate D2E/DX2                !
 ! D334  D(4,45,48,50)          -4.4523         estimate D2E/DX2                !
 ! D335  D(41,45,48,47)         -1.8408         estimate D2E/DX2                !
 ! D336  D(41,45,48,50)       -155.7565         estimate D2E/DX2                !
 ! D337  D(44,47,48,45)         -1.2016         estimate D2E/DX2                !
 ! D338  D(44,47,48,50)        152.3167         estimate D2E/DX2                !
 ! D339  D(49,47,48,45)       -154.744          estimate D2E/DX2                !
 ! D340  D(49,47,48,50)         -1.2257         estimate D2E/DX2                !
 ! D341  D(44,47,49,10)         -4.6698         estimate D2E/DX2                !
 ! D342  D(44,47,49,51)       -144.7605         estimate D2E/DX2                !
 ! D343  D(48,47,49,10)        149.5845         estimate D2E/DX2                !
 ! D344  D(48,47,49,51)          9.4938         estimate D2E/DX2                !
 ! D345  D(45,48,50,11)          7.6812         estimate D2E/DX2                !
 ! D346  D(45,48,50,52)        146.7566         estimate D2E/DX2                !
 ! D347  D(47,48,50,11)       -146.7704         estimate D2E/DX2                !
 ! D348  D(47,48,50,52)         -7.6949         estimate D2E/DX2                !
[...]
 Alpha virt. eigenvalues --    1.33778   1.34288   1.34461   1.35002   1.35071
 Alpha virt. eigenvalues --    1.35328   1.35969   1.36303   1.36560   1.37146
 Alpha virt. eigenvalues --    1.38319   1.38508   1.39279   1.39484   1.39885
 Alpha virt. eigenvalues --    1.40534   1.40660   1.41133   1.41493   1.41991
 Alpha virt. eigenvalues --    1.43008   1.43233   1.44387   1.44650   1.45012
 Alpha virt. eigenvalues --    1.45796   1.46302   1.46805   1.47254   1.47972
 Alpha virt. eigenvalues --    1.48395   1.48907   1.49192   1.49485   1.50167
 Alpha virt. eigenvalues --    1.50616   1.50744   1.51380   1.52352   1.52872
 Alpha virt. eigenvalues --    1.53881   1.54305   1.54831   1.55001   1.55262
 Alpha virt. eigenvalues --    1.56047   1.56092   1.56272   1.56764   1.57223
 Alpha virt. eigenvalues --    1.57976   1.58440   1.58552   1.58740   1.59285
 Alpha virt. eigenvalues --    1.60000   1.60232   1.60515   1.61115   1.61649
 Alpha virt. eigenvalues --    1.61845   1.63179   1.63977   1.64368   1.64712
 Alpha virt. eigenvalues --    1.65214   1.65334   1.65759   1.65829   1.65986
 Alpha virt. eigenvalues --    1.66143   1.66259   1.66421   1.66844   1.67049
 Alpha virt. eigenvalues --    1.67286   1.67740   1.68028   1.68279   1.68795
 Alpha virt. eigenvalues --    1.68991   1.69201   1.69937   1.70146   1.70181
 Alpha virt. eigenvalues --    1.70461   1.70673   1.70976   1.71067   1.71463
 Alpha virt. eigenvalues --    1.71595   1.71700   1.71868   1.72079   1.72448
 Alpha virt. eigenvalues --    1.72831   1.73093   1.73326   1.73381   1.73591
 Alpha virt. eigenvalues --    1.73763   1.73936   1.74152   1.74447   1.74627
 Alpha virt. eigenvalues --    1.74712   1.75028   1.75230   1.75634   1.75924
 Alpha virt. eigenvalues --    1.76089   1.76376   1.76692   1.76822   1.77312
 Alpha virt. eigenvalues --    1.77367   1.77671   1.78079   1.78361   1.78449
 Alpha virt. eigenvalues --    1.78683   1.78892   1.78957   1.79383   1.79656
 Alpha virt. eigenvalues --    1.80015   1.80389   1.81305   1.81757   1.82060
 Alpha virt. eigenvalues --    1.82235   1.82835   1.83868   1.84352   1.84781
 Alpha virt. eigenvalues --    1.85059   1.85497   1.85957   1.86266   1.86527
 Alpha virt. eigenvalues --    1.86873   1.87054   1.88354   1.89211   1.89457
 Alpha virt. eigenvalues --    1.90618   1.90908   1.91246   1.91405   1.92233
 Alpha virt. eigenvalues --    1.92604   1.92837   1.93396   1.93813   1.93953
 Alpha virt. eigenvalues --    1.94173   1.94639   1.94879   1.95303   1.95638
 Alpha virt. eigenvalues --    1.95705   1.96206   1.96322   1.96714   1.96975
 Alpha virt. eigenvalues --    1.97331   1.97697   1.97907   1.98205   1.98235
 Alpha virt. eigenvalues --    1.98423   1.99073   1.99214   1.99481   1.99567
 Alpha virt. eigenvalues --    1.99784   2.00250   2.00385   2.00447   2.00641
 Alpha virt. eigenvalues --    2.00776   2.00925   2.01111   2.01214   2.01612
 Alpha virt. eigenvalues --    2.01718   2.01882   2.02100   2.02205   2.02488
 Alpha virt. eigenvalues --    2.02636   2.03009   2.03215   2.03292   2.03730
 Alpha virt. eigenvalues --    2.03865   2.04093   2.04728   2.04824   2.04922
 Alpha virt. eigenvalues --    2.05181   2.05531   2.06076   2.06402   2.06637
 Alpha virt. eigenvalues --    2.06980   2.07443   2.07679   2.07938   2.08483
 Alpha virt. eigenvalues --    2.09013   2.09985   2.10528   2.11109   2.11263
 Alpha virt. eigenvalues --    2.12192   2.12409   2.12576   2.13286   2.13646
 Alpha virt. eigenvalues --    2.14054   2.14559   2.14818   2.15319   2.15539
 Alpha virt. eigenvalues --    2.16023   2.16586   2.16729   2.17454   2.18485
 Alpha virt. eigenvalues --    2.18717   2.19107   2.20199   2.20692   2.20806
 Alpha virt. eigenvalues --    2.21165   2.21778   2.22206   2.22288   2.22671
 Alpha virt. eigenvalues --    2.22912   2.23002   2.23369   2.24229   2.24355
 Alpha virt. eigenvalues --    2.24744   2.25074   2.25488   2.26048   2.26863
 Alpha virt. eigenvalues --    2.27014   2.27256   2.27661   2.27948   2.28320
 Alpha virt. eigenvalues --    2.28447   2.28743   2.29142   2.29330   2.29951
 Alpha virt. eigenvalues --    2.30479   2.30943   2.31076   2.31450   2.31916
 Alpha virt. eigenvalues --    2.32348   2.32547   2.32884   2.33760   2.34424
 Alpha virt. eigenvalues --    2.34927   2.35373   2.35616   2.36864   2.37508
 Alpha virt. eigenvalues --    2.38648   2.39164   2.39610   2.40198   2.40237
 Alpha virt. eigenvalues --    2.40998   2.41220   2.41906   2.42213   2.43039
 Alpha virt. eigenvalues --    2.43349   2.43590   2.44311   2.44796   2.45154
 Alpha virt. eigenvalues --    2.45565   2.46040   2.46560   2.47184   2.47395
 Alpha virt. eigenvalues --    2.48052   2.48776   2.50131   2.50350   2.51168
 Alpha virt. eigenvalues --    2.51523   2.51752   2.52623   2.53137   2.53317
 Alpha virt. eigenvalues --    2.53773   2.53833   2.54209   2.54540   2.54954
 Alpha virt. eigenvalues --    2.55387   2.55803   2.56169   2.56373   2.56920
 Alpha virt. eigenvalues --    2.57066   2.57232   2.57517   2.57799   2.58089
 Alpha virt. eigenvalues --    2.58503   2.58583   2.59060   2.59139   2.59293
 Alpha virt. eigenvalues --    2.59577   2.60070   2.60333   2.60460   2.60744
 Alpha virt. eigenvalues --    2.61138   2.61383   2.62175   2.62485   2.62983
 Alpha virt. eigenvalues --    2.63056   2.63716   2.63910   2.64382   2.64518
 Alpha virt. eigenvalues --    2.64997   2.65218   2.65355   2.65957   2.66246
 Alpha virt. eigenvalues --    2.66577   2.66862   2.66987   2.67646   2.67803
 Alpha virt. eigenvalues --    2.68224   2.68364   2.68473   2.68851   2.69576
 Alpha virt. eigenvalues --    2.69798   2.70117   2.70273   2.70926   2.71319
 Alpha virt. eigenvalues --    2.71617   2.72116   2.72646   2.73508   2.74015
 Alpha virt. eigenvalues --    2.74284   2.74921   2.75993   2.76144   2.76560
 Alpha virt. eigenvalues --    2.76984   2.78118   2.78507   2.78571   2.79154
 Alpha virt. eigenvalues --    2.79552   2.80203   2.80562   2.81027   2.81484
 Alpha virt. eigenvalues --    2.81744   2.82185   2.82883   2.83029   2.83191
 Alpha virt. eigenvalues --    2.83464   2.83629   2.83831   2.84709   2.84924
 Alpha virt. eigenvalues --    2.85353   2.85823   2.86068   2.86918   2.87518
 Alpha virt. eigenvalues --    2.87797   2.88547   2.89214   2.89446   2.89780
 Alpha virt. eigenvalues --    2.90222   2.90700   2.90956   2.91374   2.91754
 Alpha virt. eigenvalues --    2.92203   2.92222   2.92803   2.93072   2.93734
 Alpha virt. eigenvalues --    2.93906   2.94604   2.94944   2.95586   2.95788
 Alpha virt. eigenvalues --    2.96770   2.97610   2.97955   2.98709   2.98970
 Alpha virt. eigenvalues --    2.99495   3.01047   3.01589   3.02440   3.03454
 Alpha virt. eigenvalues --    3.04400   3.05813   3.06339   3.07714   3.09635
 Alpha virt. eigenvalues --    3.10068   3.12917   3.14361   3.15572   3.15981
 Alpha virt. eigenvalues --    3.18212   3.18994   3.19264   3.23121   3.23381
 Alpha virt. eigenvalues --    3.25252   3.27708   3.29461   3.30249   3.31555
 Alpha virt. eigenvalues --    3.32672   3.34035   3.35068   3.35953   3.37615
 Alpha virt. eigenvalues --    3.38764   3.39799   3.41718   3.42746   3.45432
 Alpha virt. eigenvalues --    3.47412   3.48980   3.51969   3.52764   3.54588
 Alpha virt. eigenvalues --    3.56145   3.57864   3.61620   4.01450   4.01802
 Alpha virt. eigenvalues --    4.02113   4.02319   4.02528   4.03505   4.04668
 Alpha virt. eigenvalues --    4.04975   4.05565   4.06561   4.06809   4.06957
 Alpha virt. eigenvalues --    4.07138   4.07551   4.08447   4.08758   4.09720
 Alpha virt. eigenvalues --    4.10403   4.10940   4.11892   4.12337   4.13290
 Alpha virt. eigenvalues --    4.13445   4.14579   4.15478   4.17465   4.18016
 Alpha virt. eigenvalues --    4.19206   4.20522   4.20623   4.21146   4.21682
 Alpha virt. eigenvalues --    4.22260   4.22831   4.23465   4.24218   4.27147
 Alpha virt. eigenvalues --    4.28435   4.29072   4.29319   4.29574   4.29959
 Alpha virt. eigenvalues --    4.30510   4.32076   4.33964   4.34787   4.37945
 Alpha virt. eigenvalues --    4.40153   4.40950   4.41720   4.42774   4.44301
 Alpha virt. eigenvalues --    4.45244   4.48273   4.49294   4.50121   4.52069
 Alpha virt. eigenvalues --    4.52952   4.55776   4.56597   4.57522   4.58398
 Alpha virt. eigenvalues --    4.60403   4.64599   4.64738   4.66818   4.68045
 Alpha virt. eigenvalues --    4.68294   4.69661   4.74720   4.78964   4.82057
 Alpha virt. eigenvalues --    4.84480   4.85004   4.86413   4.90776   4.93289
 Alpha virt. eigenvalues --    4.94839   4.95650   5.06804   5.11796   5.13392
 Alpha virt. eigenvalues --    5.15667   5.16729   5.24341   5.25943
          Condensed to atoms (all electrons):
 Mulliken charges:
               1
     1  C   -0.352191
     2  C   -0.018829
     3  C   -0.027446
     4  C   -0.021938
     5  C    0.097149
     6  C   -0.007587
     7  C   -0.019932
     8  C   -0.016294
     9  C    0.067755
    10  C   -0.002809
    11  C   -0.004936
    12  C    0.054462
    13  C   -0.049272
    14  C   -0.029452
    15  C    0.011980
    16  C   -0.023519
    17  C    0.076262
    18  C    0.056951
    19  C    0.026816
    20  C    0.058420
    21  C    0.000052
    22  C   -0.023802
    23  C    0.094409
    24  C   -0.016433
    25  C    0.088446
    26  C   -0.001869
    27  C   -0.361396
    28  C   -0.021294
    29  C    0.134384
    30  C   -0.017451
    31  C    0.006462
    32  C   -0.010137
    33  C   -0.027326
    34  C   -0.024757
    35  C    0.038654
    36  C    0.044715
    37  C    0.044878
    38  C    0.044972
    39  C    0.052727
    40  C   -0.031672
    41  C   -0.032365
    42  C    0.054095
    43  C   -0.028582
    44  C    0.049548
    45  C    0.051880
    46  C   -0.033783
    47  C    0.047663
    48  C    0.042539
    49  C   -0.028278
    50  C   -0.025566
    51  C   -0.012904
    52  C   -0.013801
    53  C   -0.018633
    54  C   -0.025003
    55  C   -0.024642
    56  C   -0.018263
    57  C    0.035422
    58  C   -0.028577
    59  C    0.048995
    60  C   -0.031404
    61  C    0.007051
    62  C   -0.018652
    63  C    0.009245
    64  C    0.039837
    65  C    0.045378
    66  C    0.044097
    67  C    0.064107
    68  C    0.043293
    69  C   -0.036620
    70  C   -0.024000
    71  C   -0.007212
    72  C    0.007553
    73  C   -0.012415
    74  C   -0.007225
    75  C    0.002067
    76  C   -0.000633
    77  C   -0.025959
    78  C   -0.023649
    79  C   -0.021096
    80  C   -0.018087
    81  C    0.000913
    82  C   -0.024827
    83  C    0.048185
    84  C    0.054561
    85  Cl  -0.014981
    86  Cl  -0.028421
 Sum of Mulliken charges =  -0.00000
 Mulliken charges with hydrogens summed into heavy atoms:
               1
     1  C   -0.352191
     2  C   -0.018829
     3  C   -0.027446
     4  C   -0.021938
     5  C    0.097149
     6  C   -0.007587
     7  C   -0.019932
     8  C   -0.016294
     9  C    0.067755
    10  C   -0.002809
    11  C   -0.004936
    12  C    0.054462
    13  C   -0.049272
    14  C   -0.029452
    15  C    0.011980
    16  C   -0.023519
    17  C    0.076262
    18  C    0.056951
    19  C    0.026816
    20  C    0.058420
    21  C    0.000052
    22  C   -0.023802
    23  C    0.094409
    24  C   -0.016433
    25  C    0.088446
    26  C   -0.001869
    27  C   -0.361396
    28  C   -0.021294
    29  C    0.134384
    30  C   -0.017451
    31  C    0.006462
    32  C   -0.010137
    33  C   -0.027326
    34  C   -0.024757
    35  C    0.038654
    36  C    0.044715
    37  C    0.044878
    38  C    0.044972
    39  C    0.052727
    40  C   -0.031672
    41  C   -0.032365
    42  C    0.054095
    43  C   -0.028582
    44  C    0.049548
    45  C    0.051880
    46  C   -0.033783
    47  C    0.047663
    48  C    0.042539
    49  C   -0.028278
    50  C   -0.025566
    51  C   -0.012904
    52  C   -0.013801
    53  C   -0.018633
    54  C   -0.025003
    55  C   -0.024642
    56  C   -0.018263
    57  C    0.035422
    58  C   -0.028577
    59  C    0.048995
    60  C   -0.031404
    61  C    0.007051
    62  C   -0.018652
    63  C    0.009245
    64  C    0.039837
    65  C    0.045378
    66  C    0.044097
    67  C    0.064107
    68  C    0.043293
    69  C   -0.036620
    70  C   -0.024000
    71  C   -0.007212
    72  C    0.007553
    73  C   -0.012415
    74  C   -0.007225
    75  C    0.002067
    76  C   -0.000633
    77  C   -0.025959
    78  C   -0.023649
    79  C   -0.021096
    80  C   -0.018087
    81  C    0.000913
    82  C   -0.024827
    83  C    0.048185
    84  C    0.054561
    85  Cl  -0.014981
    86  Cl  -0.028421
 Electronic spatial extent (au):  <R**2>=          37469.3414
 Charge=              0.0000 electrons
 Dipole moment (field-independent basis, Debye):
    X=              3.2199    Y=              0.0137    Z=             -0.1591  Tot=              3.2238
 Quadrupole moment (field-independent basis, Debye-Ang):
   XX=           -502.5880   YY=           -476.9204   ZZ=           -475.6210
   XY=             -4.8650   XZ=              0.3770   YZ=             -3.0308
 Traceless Quadrupole moment (field-independent basis, Debye-Ang):
   XX=            -17.5449   YY=              8.1228   ZZ=              9.4222
   XY=             -4.8650   XZ=              0.3770   YZ=             -3.0308
 Octapole moment (field-independent basis, Debye-Ang**2):
  XXX=             60.6282  YYY=            -15.7059  ZZZ=             -6.7004  XYY=            -12.5489
  XXY=              6.9396  XXZ=             -1.3503  XZZ=            -28.3795  YZZ=             -5.2572
  YYZ=              2.5855  XYZ=              6.5016
 Hexadecapole moment (field-independent basis, Debye-Ang**3):
 XXXX=         -22088.4654 YYYY=         -18017.0685 ZZZZ=         -15975.1827 XXXY=             -5.0273
 XXXZ=             12.9613 YYYX=              4.3671 YYYZ=              5.8249 ZZZX=             18.7406
 ZZZY=              6.8312 XXYY=          -6624.2394 XXZZ=          -6229.1225 YYZZ=          -5659.0955
 XXYZ=            -46.4113 YYXZ=              4.9935 ZZXY=             -3.0528
 N-N= 1.560244804199D+04 E-N=-4.079827099804D+04  KE= 4.088612333275D+03
 No NMR shielding tensors so no spin-rotation constants.
 Leave Link  601 at Wed Jun 29 08:42:23 2022, MaxMem=  1342177280 cpu:              22.5 elap:               1.1
 (Enter /home/mkliu/g16/l9999.exe)
 1\1\GINC-NODE01\FOpt\RB3LYP\6-31G(d,p)\C84Cl2\MKLIU\29-Jun-2022\0\\#P 
 opt b3lyp/6-31G(d, p) empiricaldispersion=GD3\\force\\0,1\C,8.43430147
 64,18.6184101361,10.8227130154\C,12.3817391188,20.1433510778,8.9475047
 388\C,8.2698037254,26.9320621466,10.5408941386\C,12.3084271499,25.6072
 499966,8.9509645575\C,8.0151359368,19.1350116117,9.4427104286\C,12.052
 8440341,19.5184997826,10.1946095923\C,7.9599285538,26.8931677198,9.149
 6054292\C,11.8756542537,26.1815118404,10.2010104609\C,8.9955765163,19.
 2019580895,8.357576538\C,12.3502385157,20.1625054263,11.3856662666\C,1
 2.1464460958,25.5291455267,11.3743688865\C,8.9606847073,26.7021369568,
 8.1541622805\C,10.3532418401,19.0127906511,8.6613220324\C,10.294524474
 7,26.7517446876,8.621451277\C,10.8105307725,18.8003479547,10.033455638
 4\C,10.6107285931,26.8623427121,10.0053154727\C,9.9194114179,18.718524
 8991,11.0677454752\C,9.6043153642,26.8368791949,11.0097038667\C,10.184
 4586415,19.4440356644,12.2789995114\C,9.8744529657,26.103915858,12.254
 7607849\C,8.9624526383,20.0227857539,12.7453235458\C,8.788783594,25.46
 48155525,12.917383354\C,7.8931308193,19.5167401211,11.9211534784\C,7.4
 414342229,25.5354234149,12.3769243719\C,6.7499814183,20.2292006007,11.
 7724939471\C,7.1842363918,26.2526471647,11.2367392363\C,5.9304930509,2
 0.1786879156,10.5094141593\C,6.2245041003,25.7672524881,10.2679748562\
 C,6.7878194786,19.7804157457,9.317784911\C,6.6591582094,26.2637148761,
 9.0064725391\C,6.4283144174,20.3759928573,8.0906942974\C,6.3529422885,
 25.5817522866,7.8527615942\C,7.3467376923,20.3734091856,6.975338544\C,
 7.3159858607,25.4940174131,6.7673153047\C,8.6721379739,19.9234864709,7
 .1265599318\C,8.6521953553,25.9313644021,6.940311836\C,9.7195492566,20
 .5978475839,6.3586234883\C,9.7184225189,25.1775299694,6.2732032044\C,1
 1.0832044766,20.579400863,6.8700932681\C,12.8087879635,22.160087814,7.
 7168654562\C,12.7955145731,23.6089263247,7.7179560541\C,11.0754419388,
 25.1919072956,6.8391082708\C,11.3740066362,19.7671877817,7.9872070024\
 C,13.0017616096,21.427303719,8.907805424\C,12.9648148035,24.3415352237
 ,8.9151853284\C,11.3502689362,25.9917419235,7.9643448038\C,13.25661963
 08,22.1535509208,10.1596709916\C,13.2231489774,23.619085602,10.1593777
 463\C,12.9663745209,21.4714139876,11.3689562131\C,12.8772426345,24.279
 9117318,11.3682202512\C,12.4544759806,22.1773202054,12.51526091\C,12.4
 104508813,23.5493766401,12.5027279157\C,11.3816793227,20.1319852635,12
 .4556146945\C,11.1402050136,25.4921229046,12.4316197201\C,11.377672171
 9,21.4091928553,13.1122075485\C,11.2841275715,24.2422421229,13.1010273
 097\C,8.9220836094,21.3100465153,13.3389509098\C,8.9245760949,24.18504
 17933,13.5184784573\C,7.6780589278,22.0511567801,13.1961123869\C,7.675
 4780215,23.4527758486,13.320616752\C,6.631153248,21.5023364068,12.3947
 018099\C,6.770852417,24.2811899771,12.5942364364\C,5.7881899856,22.334
 3105387,11.5832214562\C,5.8823159607,23.7473123046,11.6135564799\C,5.4
 43291404,21.6256181199,10.4026658827\C,5.6194134024,24.4823430446,10.3
 898012309\C,5.2460197701,22.2791200148,9.1927164388\C,5.3038339605,23.
 7492416051,9.1660115259\C,5.6035269477,21.5345546284,8.0050363297\C,5.
 5920110774,24.3669733823,7.9228525532\C,5.9391818244,22.2130473852,6.7
 837081552\C,5.9399307898,23.5951932687,6.7468423144\C,6.9997199601,21.
 4736084219,6.1246773795\C,6.9923556819,24.3064177288,6.0347208845\C,7.
 9994968041,22.1401576172,5.4364694841\C,8.0006934891,23.5983541286,5.4
 008207689\C,9.3501473729,21.6867672263,5.5251792111\C,9.3543146787,24.
 056032612,5.4872023685\C,11.9279211031,21.7057614526,6.6841570514\C,11
 .9163678918,24.0513328622,6.6829002595\C,10.1935730392,22.8668134784,5
 .4368386266\C,11.4387523096,22.8735132547,6.0038858228\C,10.1805622706
 ,22.0347425559,13.5282633013\C,10.1611484289,23.5043694419,13.57516045
 63\Cl,4.4844520991,19.0206048744,10.6588785441\Cl,7.8584899512,16.8503
 448001,11.0063628607\\Version=ES64L-G16RevA.03\State=1-A\HF=-4121.4047
 81\RMSD=9.900e-09\RMSF=8.402e-05\Dipole=0.4907085,1.1459345,-0.2339881
 \Quadrupole=-0.7404235,-7.9096755,8.650099,-8.2474409,2.1410522,2.1244
 551\PG=C01 [X(C84Cl2)]\\@


 EXPERIMENTALISTS THINK SILICON IS REALLY FUN TO USE
     ITS PLACE IN NOVEL COMPOUNDS IS CERTAIN TO AMUSE
 THEY SIT ALL DAY IN LABORATORIES MAKING ALL THIS SLUDGE
     "LOADED WITH THE SILICON THEY SAY", TO ME IT LOOKS LIKE FUDGE.
 FOR HAPPY THOUGH THEY BE WITH CRUD, I'D LIKE TO KNOW A LITTLE
      ABOUT THE PI BONDS ON THE EDGE AND SIGMAS IN THE MIDDLE.

 SO LETS DERIVE A WAVEFUNCTION.....6-31G*
     USE AN OPTIMAL GEOMETRY AND SEE WHERE ELECTRONS ARE.
 BUT WHAT OF CORRELATION?  ASKS THE WIRY LITTLE SKEPTIC.
     WE'LL THROW IN PERTURBATION AS AN ELECTRON ANTISEPTIC.
 AND WHEN THE PROGRAM GIVES US ANSWERS IN THEM WE CAN TRUST
     SINCE NOBODY CAN MAKE THE STUFF, WE HAVE NO CHOICE, WE MUST.

 SO THEORY GUYS HAVE GOT IT MADE, IN ROOMS FREE OF POLLUTION.
     INSTEAD OF PROBLEMS WITH THE REFLUX, THEY HAVE ONLY SOLUTIONS.
 AND WHEN THE FEDS ANNOUNCE THE LIST OF CARCINOGENIC TERRORS,
     THE THEORISTS SIT SAFELY AT THEIR TERMINALS FIXING ERRORS.
 IN OTHER WORDS, EXPERIMENTALISTS WILL LIKELY DIE OF CANCER
     FROM WORKING HARD YET FRUITLESSLY...TILL THEORY GIVES THE ANSWER.
          -- THOMAS A. HOLME, 1983
 Job cpu time:       1 days  1 hours 58 minutes 15.7 seconds.
 Elapsed time:       0 days  1 hours  5 minutes  1.9 seconds.
 File lengths (MBytes):  RWF=   1037 Int=      0 D2E=      0 Chk=    130 Scr=      1
 Normal termination of Gaussian 16 at Wed Jun 29 08:42:23 2022.
