 Entering Gaussian System, Link 0=g16
 Input=2_addons_C84_11_Cl22_rank_4.gjf
 Output=2_addons_C84_11_Cl22_rank_4.log
 Initial command:
 /home/mkliu/g16/l1.exe "/data/scratch/Gau-127396.inp" -scrdir="/data/scratch/"
 Entering Link 1 = /home/mkliu/g16/l1.exe PID=    127397.
  
 Copyright (c) 1988,1990,1992,1993,1995,1998,2003,2009,2016,
            Gaussian, Inc.  All Rights Reserved.
  
 This is part of the Gaussian(R) 16 program.  It is based on
 the Gaussian(R) 09 system (copyright 2009, Gaussian, Inc.),
 the Gaussian(R) 03 system (copyright 2003, Gaussian, Inc.),
 the Gaussian(R) 98 system (copyright 1998, Gaussian, Inc.),
 the Gaussian(R) 94 system (copyright 1995, Gaussian, Inc.),
 the Gaussian 92(TM) system (copyright 1992, Gaussian, Inc.),
 the Gaussian 90(TM) system (copyright 1990, Gaussian, Inc.),
 the Gaussian 88(TM) system (copyright 1988, Gaussian, Inc.),
 the Gaussian 86(TM) system (copyright 1986, Carnegie Mellon
 University), and the Gaussian 82(TM) system (copyright 1983,
 Carnegie Mellon University). Gaussian is a federally registered
 trademark of Gaussian, Inc.
  
 This software contains proprietary and confidential information,
 including trade secrets, belonging to Gaussian, Inc.
  
 This software is provided under written license and may be
 used, copied, transmitted, or stored only in accord with that
 written license.
  
 The following legend is applicable only to US Government
 contracts under FAR:
  
                    RESTRICTED RIGHTS LEGEND
  
 Use, reproduction and disclosure by the US Government is
 subject to restrictions as set forth in subparagraphs (a)
 and (c) of the Commercial Computer Software - Restricted
 Rights clause in FAR 52.227-19.
  
 Gaussian, Inc.
 340 Quinnipiac St., Bldg. 40, Wallingford CT 06492
  
  
 ---------------------------------------------------------------
 Warning -- This program may not be used in any manner that
 competes with the business of Gaussian, Inc. or will provide
 assistance to any competitor of Gaussian, Inc.  The licensee
 of this program is prohibited from giving any competitor of
 Gaussian, Inc. access to this program.  By using this program,
 the user acknowledges that Gaussian, Inc. is engaged in the
 business of creating and licensing software in the field of
 computational chemistry and represents and warrants to the
 licensee that it is not a competitor of Gaussian, Inc. and that
 it will not use this program in any manner prohibited above.
 ---------------------------------------------------------------
  

 Cite this work as:
 Gaussian 16, Revision A.03,
 M. J. Frisch, G. W. Trucks, H. B. Schlegel, G. E. Scuseria, 
 M. A. Robb, J. R. Cheeseman, G. Scalmani, V. Barone, 
 G. A. Petersson, H. Nakatsuji, X. Li, M. Caricato, A. V. Marenich, 
 J. Bloino, B. G. Janesko, R. Gomperts, B. Mennucci, H. P. Hratchian, 
 J. V. Ortiz, A. F. Izmaylov, J. L. Sonnenberg, D. Williams-Young, 
 F. Ding, F. Lipparini, F. Egidi, J. Goings, B. Peng, A. Petrone, 
 T. Henderson, D. Ranasinghe, V. G. Zakrzewski, J. Gao, N. Rega, 
 G. Zheng, W. Liang, M. Hada, M. Ehara, K. Toyota, R. Fukuda, 
 J. Hasegawa, M. Ishida, T. Nakajima, Y. Honda, O. Kitao, H. Nakai, 
 T. Vreven, K. Throssell, J. A. Montgomery, Jr., J. E. Peralta, 
 F. Ogliaro, M. J. Bearpark, J. J. Heyd, E. N. Brothers, K. N. Kudin, 
 V. N. Staroverov, T. A. Keith, R. Kobayashi, J. Normand, 
 K. Raghavachari, A. P. Rendell, J. C. Burant, S. S. Iyengar, 
 J. Tomasi, M. Cossi, J. M. Millam, M. Klene, C. Adamo, R. Cammi, 
 J. W. Ochterski, R. L. Martin, K. Morokuma, O. Farkas, 
 J. B. Foresman, and D. J. Fox, Gaussian, Inc., Wallingford CT, 2016.
 
 ******************************************
 Gaussian 16:  ES64L-G16RevA.03 25-Dec-2016
                29-Jun-2022 
 ******************************************
 %mem=10GB
 %chk=2_addons_C84_11_Cl22_rank_4.chk
 %nprocshared=24
 Will use up to   24 processors via shared memory.
 ------------------------------------------------
 #P opt b3lyp/6-31G(d, p) empiricaldispersion=GD3
 ------------------------------------------------
 1/18=20,19=15,26=3,38=1/1,3;
 2/9=110,12=2,17=6,18=5,40=1/2;
 3/5=1,6=6,7=101,11=2,25=1,30=1,71=1,74=-5,124=31/1,2,3;
 4//1;
 5/5=2,38=5/2;
 6/7=2,8=2,9=2,10=2,28=1/1;
 7//1,2,3,16;
 1/18=20,19=15,26=3/3(2);
 2/9=110/2;
 99//99;
 2/9=110/2;
 3/5=1,6=6,7=101,11=2,25=1,30=1,71=1,74=-5,124=31/1,2,3;
 4/5=5,16=3,69=1/1;
 5/5=2,38=5/2;
 7//1,2,3,16;
 1/18=20,19=15,26=3/3(-5);
 2/9=110/2;
 6/7=2,8=2,9=2,10=2,19=2,28=1/1;
 99/9=1/99;
 Leave Link    1 at Wed Jun 29 05:56:46 2022, MaxMem=  1342177280 cpu:               0.7 elap:               0.1
 (Enter /home/mkliu/g16/l101.exe)
 -----
 force
 -----
 Symbolic Z-matrix:
 Charge =  0 Multiplicity = 1
 C                     8.51902   18.91667   10.74336 
 C                     12.37075   20.16107   8.918 
 C                     8.26613   26.89185   10.52831 
 C                     12.27393   25.57953   8.95144 
 C                     8.04037   19.11987   9.42861 
 C                     12.03883   19.52473   10.15624 
 C                     7.96232   26.86103   9.14154 
 C                     11.84146   26.14636   10.19646 
 C                     8.99555   19.20624   8.34298 
 C                     12.28723   20.17527   11.34644 
 C                     12.10548   25.48556   11.36236 
 C                     8.95193   26.67102   8.15044 
 C                     10.35141   19.03825   8.65232 
 C                     10.27471   26.71904   8.62562 
 C                     10.80979   18.82115   9.98531 
 C                     10.58459   26.82267   10.00094 
 C                     9.90428   18.78833   11.03182 
 C                     9.58972   26.80208   11.00489 
 C                     10.19838   19.41209   12.28429 
 C                     9.85228   26.07419   12.23151 
 C                     8.92754   19.84204   12.95605 
 C                     8.77922   25.44282   12.88382 
 C                     7.9149    19.52755   11.88082 
 C                     7.4429    25.52101   12.36179 
 C                     6.78443   20.26271   11.72579 
 C                     7.18344   26.2335   11.22066 
 C                     6.16264   20.35956   10.44444 
 C                     6.23818   25.73386   10.26146 
 C                     6.77201   19.78701   9.30619 
 C                     6.67492   26.23529   9.00211 
 C                     6.43452   20.38104   8.08562 
 C                     6.36947   25.56145   7.85118 
 C                     7.35317   20.37579   6.9759 
 C                     7.32715   25.47641   6.77814 
 C                     8.67355   19.92848   7.12551 
 C                     8.65378   25.91212   6.94841 
 C                     9.71001   20.60751   6.37017 
 C                     9.70709   25.16695   6.28757 
 C                     11.06778   20.59404   6.86605 
 C                     12.77754   22.16887   7.71455 
 C                     12.76211   23.61142   7.7188 
 C                     11.04733   25.17934   6.84448 
 C                     11.37239   19.79373   7.9726 
 C                     12.97773   21.43936   8.89548 
 C                     12.9335   24.32737   8.91259 
 C                     11.32064   25.96261   7.97469 
 C                     13.20628   22.15583   10.13404 
 C                     13.1807   23.59787   10.13931 
 C                     12.88923   21.47938   11.33404 
 C                     12.8229   24.23841   11.34014 
 C                     12.4267   22.15165   12.48702 
 C                     12.37063   23.51216   12.47338 
 C                     11.36573   20.09241   12.43723 
 C                     11.10967   25.44314   12.41017 
 C                     11.4679   21.31724   13.29763 
 C                     11.25146   24.2108   13.07634 
 C                     8.93888   21.32753   13.29434 
 C                     8.91433   24.15073   13.46572 
 C                     7.68768   22.04316   13.17397 
 C                     7.68818   23.43738   13.28529 
 C                     6.61082   21.51531   12.42264 
 C                     6.7775    24.26962   12.56942 
 C                     5.80237   22.33095   11.60738 
 C                     5.89788   23.74     11.60471 
 C                     5.50738   21.61645   10.3888 
 C                     5.64121   24.46362   10.37921 
 C                     5.28878   22.28965   9.17893 
 C                     5.32457   23.74142   9.16092 
 C                     5.63312   21.55562   8.01581 
 C                     5.60889   24.35183   7.92631 
 C                     5.95841   22.22004   6.79177 
 C                     5.9482    23.59596   6.75103 
 C                     7.00746   21.47948   6.14232 
 C                     6.99582   24.29703   6.04911 
 C                     8.00032   22.14765   5.45195 
 C                     7.99925   23.59109   5.41448 
 C                     9.34356   21.69389   5.55244 
 C                     9.34491   24.05079   5.50882 
 C                     11.90622   21.71727   6.68946 
 C                     11.89139   24.05466   6.69067 
 C                     10.17449   22.87146   5.45527 
 C                     11.41793   22.88139   6.01819 
 C                     10.12477   22.01559   13.45479 
 C                     10.13467   23.46146   13.51541 
 Cl                    8.59272   18.91715   14.47927 
 Cl                    12.11739   20.95488   14.95136 
 
 ITRead=  0  0  0  0  0  0  0  0  0  0  0  0  0  0  0  0  0  0  0  0
 ITRead=  0  0  0  0  0  0  0  0  0  0  0  0  0  0  0  0  0  0  0  0
 ITRead=  0  0  0  0  0  0  0  0  0  0  0  0  0  0  0  0  0  0  0  0
 ITRead=  0  0  0  0  0  0  0  0  0  0  0  0  0  0  0  0  0  0  0  0
 ITRead=  0  0  0  0  0  0
 MicOpt= -1 -1 -1 -1 -1 -1 -1 -1 -1 -1 -1 -1 -1 -1 -1 -1 -1 -1 -1 -1
 MicOpt= -1 -1 -1 -1 -1 -1 -1 -1 -1 -1 -1 -1 -1 -1 -1 -1 -1 -1 -1 -1
 MicOpt= -1 -1 -1 -1 -1 -1 -1 -1 -1 -1 -1 -1 -1 -1 -1 -1 -1 -1 -1 -1
 MicOpt= -1 -1 -1 -1 -1 -1 -1 -1 -1 -1 -1 -1 -1 -1 -1 -1 -1 -1 -1 -1
 MicOpt= -1 -1 -1 -1 -1 -1
 NAtoms=     86 NQM=       86 NQMF=       0 NMMI=      0 NMMIF=      0
                NMic=       0 NMicF=      0.
                    Isotopes and Nuclear Properties:
 (Nuclear quadrupole moments (NQMom) in fm**2, nuclear magnetic moments (NMagM)
  in nuclear magnetons)

  Atom         1           2           3           4           5           6           7           8           9          10
 IAtWgt=          12          12          12          12          12          12          12          12          12          12
 AtmWgt=  12.0000000  12.0000000  12.0000000  12.0000000  12.0000000  12.0000000  12.0000000  12.0000000  12.0000000  12.0000000
 NucSpn=           0           0           0           0           0           0           0           0           0           0
 AtZEff=  -0.0000000  -0.0000000  -0.0000000  -0.0000000  -0.0000000  -0.0000000  -0.0000000  -0.0000000  -0.0000000  -0.0000000
 NQMom=    0.0000000   0.0000000   0.0000000   0.0000000   0.0000000   0.0000000   0.0000000   0.0000000   0.0000000   0.0000000
 NMagM=    0.0000000   0.0000000   0.0000000   0.0000000   0.0000000   0.0000000   0.0000000   0.0000000   0.0000000   0.0000000
 AtZNuc=   6.0000000   6.0000000   6.0000000   6.0000000   6.0000000   6.0000000   6.0000000   6.0000000   6.0000000   6.0000000

  Atom        11          12          13          14          15          16          17          18          19          20
 IAtWgt=          12          12          12          12          12          12          12          12          12          12
 AtmWgt=  12.0000000  12.0000000  12.0000000  12.0000000  12.0000000  12.0000000  12.0000000  12.0000000  12.0000000  12.0000000
 NucSpn=           0           0           0           0           0           0           0           0           0           0
 AtZEff=  -0.0000000  -0.0000000  -0.0000000  -0.0000000  -0.0000000  -0.0000000  -0.0000000  -0.0000000  -0.0000000  -0.0000000
 NQMom=    0.0000000   0.0000000   0.0000000   0.0000000   0.0000000   0.0000000   0.0000000   0.0000000   0.0000000   0.0000000
 NMagM=    0.0000000   0.0000000   0.0000000   0.0000000   0.0000000   0.0000000   0.0000000   0.0000000   0.0000000   0.0000000
 AtZNuc=   6.0000000   6.0000000   6.0000000   6.0000000   6.0000000   6.0000000   6.0000000   6.0000000   6.0000000   6.0000000

  Atom        21          22          23          24          25          26          27          28          29          30
 IAtWgt=          12          12          12          12          12          12          12          12          12          12
 AtmWgt=  12.0000000  12.0000000  12.0000000  12.0000000  12.0000000  12.0000000  12.0000000  12.0000000  12.0000000  12.0000000
 NucSpn=           0           0           0           0           0           0           0           0           0           0
 AtZEff=  -0.0000000  -0.0000000  -0.0000000  -0.0000000  -0.0000000  -0.0000000  -0.0000000  -0.0000000  -0.0000000  -0.0000000
 NQMom=    0.0000000   0.0000000   0.0000000   0.0000000   0.0000000   0.0000000   0.0000000   0.0000000   0.0000000   0.0000000
 NMagM=    0.0000000   0.0000000   0.0000000   0.0000000   0.0000000   0.0000000   0.0000000   0.0000000   0.0000000   0.0000000
 AtZNuc=   6.0000000   6.0000000   6.0000000   6.0000000   6.0000000   6.0000000   6.0000000   6.0000000   6.0000000   6.0000000

  Atom        31          32          33          34          35          36          37          38          39          40
 IAtWgt=          12          12          12          12          12          12          12          12          12          12
 AtmWgt=  12.0000000  12.0000000  12.0000000  12.0000000  12.0000000  12.0000000  12.0000000  12.0000000  12.0000000  12.0000000
 NucSpn=           0           0           0           0           0           0           0           0           0           0
 AtZEff=  -0.0000000  -0.0000000  -0.0000000  -0.0000000  -0.0000000  -0.0000000  -0.0000000  -0.0000000  -0.0000000  -0.0000000
 NQMom=    0.0000000   0.0000000   0.0000000   0.0000000   0.0000000   0.0000000   0.0000000   0.0000000   0.0000000   0.0000000
 NMagM=    0.0000000   0.0000000   0.0000000   0.0000000   0.0000000   0.0000000   0.0000000   0.0000000   0.0000000   0.0000000
 AtZNuc=   6.0000000   6.0000000   6.0000000   6.0000000   6.0000000   6.0000000   6.0000000   6.0000000   6.0000000   6.0000000

  Atom        41          42          43          44          45          46          47          48          49          50
 IAtWgt=          12          12          12          12          12          12          12          12          12          12
 AtmWgt=  12.0000000  12.0000000  12.0000000  12.0000000  12.0000000  12.0000000  12.0000000  12.0000000  12.0000000  12.0000000
 NucSpn=           0           0           0           0           0           0           0           0           0           0
 AtZEff=  -0.0000000  -0.0000000  -0.0000000  -0.0000000  -0.0000000  -0.0000000  -0.0000000  -0.0000000  -0.0000000  -0.0000000
 NQMom=    0.0000000   0.0000000   0.0000000   0.0000000   0.0000000   0.0000000   0.0000000   0.0000000   0.0000000   0.0000000
 NMagM=    0.0000000   0.0000000   0.0000000   0.0000000   0.0000000   0.0000000   0.0000000   0.0000000   0.0000000   0.0000000
 AtZNuc=   6.0000000   6.0000000   6.0000000   6.0000000   6.0000000   6.0000000   6.0000000   6.0000000   6.0000000   6.0000000

  Atom        51          52          53          54          55          56          57          58          59          60
 IAtWgt=          12          12          12          12          12          12          12          12          12          12
 AtmWgt=  12.0000000  12.0000000  12.0000000  12.0000000  12.0000000  12.0000000  12.0000000  12.0000000  12.0000000  12.0000000
 NucSpn=           0           0           0           0           0           0           0           0           0           0
 AtZEff=  -0.0000000  -0.0000000  -0.0000000  -0.0000000  -0.0000000  -0.0000000  -0.0000000  -0.0000000  -0.0000000  -0.0000000
 NQMom=    0.0000000   0.0000000   0.0000000   0.0000000   0.0000000   0.0000000   0.0000000   0.0000000   0.0000000   0.0000000
 NMagM=    0.0000000   0.0000000   0.0000000   0.0000000   0.0000000   0.0000000   0.0000000   0.0000000   0.0000000   0.0000000
 AtZNuc=   6.0000000   6.0000000   6.0000000   6.0000000   6.0000000   6.0000000   6.0000000   6.0000000   6.0000000   6.0000000

  Atom        61          62          63          64          65          66          67          68          69          70
 IAtWgt=          12          12          12          12          12          12          12          12          12          12
 AtmWgt=  12.0000000  12.0000000  12.0000000  12.0000000  12.0000000  12.0000000  12.0000000  12.0000000  12.0000000  12.0000000
 NucSpn=           0           0           0           0           0           0           0           0           0           0
 AtZEff=  -0.0000000  -0.0000000  -0.0000000  -0.0000000  -0.0000000  -0.0000000  -0.0000000  -0.0000000  -0.0000000  -0.0000000
 NQMom=    0.0000000   0.0000000   0.0000000   0.0000000   0.0000000   0.0000000   0.0000000   0.0000000   0.0000000   0.0000000
 NMagM=    0.0000000   0.0000000   0.0000000   0.0000000   0.0000000   0.0000000   0.0000000   0.0000000   0.0000000   0.0000000
 AtZNuc=   6.0000000   6.0000000   6.0000000   6.0000000   6.0000000   6.0000000   6.0000000   6.0000000   6.0000000   6.0000000

  Atom        71          72          73          74          75          76          77          78          79          80
 IAtWgt=          12          12          12          12          12          12          12          12          12          12
 AtmWgt=  12.0000000  12.0000000  12.0000000  12.0000000  12.0000000  12.0000000  12.0000000  12.0000000  12.0000000  12.0000000
 NucSpn=           0           0           0           0           0           0           0           0           0           0
 AtZEff=  -0.0000000  -0.0000000  -0.0000000  -0.0000000  -0.0000000  -0.0000000  -0.0000000  -0.0000000  -0.0000000  -0.0000000
 NQMom=    0.0000000   0.0000000   0.0000000   0.0000000   0.0000000   0.0000000   0.0000000   0.0000000   0.0000000   0.0000000
 NMagM=    0.0000000   0.0000000   0.0000000   0.0000000   0.0000000   0.0000000   0.0000000   0.0000000   0.0000000   0.0000000
 AtZNuc=   6.0000000   6.0000000   6.0000000   6.0000000   6.0000000   6.0000000   6.0000000   6.0000000   6.0000000   6.0000000

  Atom        81          82          83          84          85          86
 IAtWgt=          12          12          12          12          35          35
 AtmWgt=  12.0000000  12.0000000  12.0000000  12.0000000  34.9688527  34.9688527
 NucSpn=           0           0           0           0           3           3
 AtZEff=  -0.0000000  -0.0000000  -0.0000000  -0.0000000  -0.0000000  -0.0000000
 NQMom=    0.0000000   0.0000000   0.0000000   0.0000000  -8.1650000  -8.1650000
 NMagM=    0.0000000   0.0000000   0.0000000   0.0000000   0.8218740   0.8218740
 AtZNuc=   6.0000000   6.0000000   6.0000000   6.0000000  17.0000000  17.0000000
 Leave Link  101 at Wed Jun 29 05:56:47 2022, MaxMem=  1342177280 cpu:               6.6 elap:               0.3
 (Enter /home/mkliu/g16/l103.exe)

 GradGradGradGradGradGradGradGradGradGradGradGradGradGradGradGradGradGrad
 Berny optimization.
 Initialization pass.
                           ----------------------------
                           !    Initial Parameters    !
                           ! (Angstroms and Degrees)  !
 --------------------------                            --------------------------
 ! Name  Definition              Value          Derivative Info.                !
 --------------------------------------------------------------------------------
 ! R1    R(1,5)                  1.4138         estimate D2E/DX2                !
 ! R2    R(1,17)                 1.4208         estimate D2E/DX2                !
 ! R3    R(1,23)                 1.4255         estimate D2E/DX2                !
 ! R4    R(2,6)                  1.4312         estimate D2E/DX2                !
 ! R5    R(2,43)                 1.4232         estimate D2E/DX2                !
 ! R6    R(2,44)                 1.4153         estimate D2E/DX2                !
 ! R7    R(3,7)                  1.42           estimate D2E/DX2                !
 ! R8    R(3,18)                 1.4096         estimate D2E/DX2                !
 ! R9    R(3,26)                 1.444          estimate D2E/DX2                !
 ! R10   R(4,8)                  1.4347         estimate D2E/DX2                !
 ! R11   R(4,45)                 1.4158         estimate D2E/DX2                !
 ! R12   R(4,46)                 1.4176         estimate D2E/DX2                !
 ! R13   R(5,9)                  1.4486         estimate D2E/DX2                !
 ! R14   R(5,29)                 1.4383         estimate D2E/DX2                !
 ! R15   R(6,10)                 1.379          estimate D2E/DX2                !
 ! R16   R(6,15)                 1.4265         estimate D2E/DX2                !
 ! R17   R(7,12)                 1.4134         estimate D2E/DX2                !
 ! R18   R(7,30)                 1.4382         estimate D2E/DX2                !
 ! R19   R(8,11)                 1.3659         estimate D2E/DX2                !
 ! R20   R(8,16)                 1.4406         estimate D2E/DX2                !
 ! R21   R(9,13)                 1.4008         estimate D2E/DX2                !
 ! R22   R(9,35)                 1.4517         estimate D2E/DX2                !
 ! R23   R(10,49)                1.4364         estimate D2E/DX2                !
 ! R24   R(10,53)                1.4303         estimate D2E/DX2                !
 ! R25   R(11,50)                1.4389         estimate D2E/DX2                !
 ! R26   R(11,54)                1.4462         estimate D2E/DX2                !
 ! R27   R(12,14)                1.4064         estimate D2E/DX2                !
 ! R28   R(12,36)                1.4525         estimate D2E/DX2                !
 ! R29   R(13,15)                1.4262         estimate D2E/DX2                !
 ! R30   R(13,43)                1.4406         estimate D2E/DX2                !
 ! R31   R(14,16)                1.4136         estimate D2E/DX2                !
 ! R32   R(14,46)                1.4456         estimate D2E/DX2                !
 ! R33   R(15,17)                1.3843         estimate D2E/DX2                !
 ! R34   R(16,18)                1.4135         estimate D2E/DX2                !
 ! R35   R(17,19)                1.4298         estimate D2E/DX2                !
 ! R36   R(18,20)                1.4503         estimate D2E/DX2                !
 ! R37   R(19,21)                1.5004         estimate D2E/DX2                !
 ! R38   R(19,53)                1.3598         estimate D2E/DX2                !
 ! R39   R(20,22)                1.4056         estimate D2E/DX2                !
 ! R40   R(20,54)                1.4182         estimate D2E/DX2                !
 ! R41   R(21,23)                1.5101         estimate D2E/DX2                !
 ! R42   R(21,57)                1.5236         estimate D2E/DX2                !
 ! R43   R(21,85)                1.8132         estimate D2E/DX2                !
 ! R44   R(22,24)                1.4368         estimate D2E/DX2                !
 ! R45   R(22,58)                1.4235         estimate D2E/DX2                !
 ! R46   R(23,25)                1.3574         estimate D2E/DX2                !
 ! R47   R(24,26)                1.3701         estimate D2E/DX2                !
 ! R48   R(24,62)                1.4324         estimate D2E/DX2                !
 ! R49   R(25,27)                1.4275         estimate D2E/DX2                !
 ! R50   R(25,61)                1.4439         estimate D2E/DX2                !
 ! R51   R(26,28)                1.4364         estimate D2E/DX2                !
 ! R52   R(27,29)                1.4124         estimate D2E/DX2                !
 ! R53   R(27,65)                1.4185         estimate D2E/DX2                !
 ! R54   R(28,30)                1.4241         estimate D2E/DX2                !
 ! R55   R(28,66)                1.4085         estimate D2E/DX2                !
 ! R56   R(29,31)                1.3988         estimate D2E/DX2                !
 ! R57   R(30,32)                1.3682         estimate D2E/DX2                !
 ! R58   R(31,33)                1.4406         estimate D2E/DX2                !
 ! R59   R(31,69)                1.4236         estimate D2E/DX2                !
 ! R60   R(32,34)                1.4408         estimate D2E/DX2                !
 ! R61   R(32,70)                1.4308         estimate D2E/DX2                !
 ! R62   R(33,35)                1.4021         estimate D2E/DX2                !
 ! R63   R(33,73)                1.4257         estimate D2E/DX2                !
 ! R64   R(34,36)                1.4067         estimate D2E/DX2                !
 ! R65   R(34,74)                1.4256         estimate D2E/DX2                !
 ! R66   R(35,37)                1.4512         estimate D2E/DX2                !
 ! R67   R(36,38)                1.4496         estimate D2E/DX2                !
 ! R68   R(37,39)                1.4456         estimate D2E/DX2                !
 ! R69   R(37,77)                1.4083         estimate D2E/DX2                !
 ! R70   R(38,42)                1.4514         estimate D2E/DX2                !
 ! R71   R(38,78)                1.4083         estimate D2E/DX2                !
 ! R72   R(39,43)                1.3992         estimate D2E/DX2                !
 ! R73   R(39,79)                1.4127         estimate D2E/DX2                !
 ! R74   R(40,41)                1.4426         estimate D2E/DX2                !
 ! R75   R(40,44)                1.4024         estimate D2E/DX2                !
 ! R76   R(40,79)                1.4191         estimate D2E/DX2                !
 ! R77   R(41,45)                1.4025         estimate D2E/DX2                !
 ! R78   R(41,80)                1.4183         estimate D2E/DX2                !
 ! R79   R(42,46)                1.402          estimate D2E/DX2                !
 ! R80   R(42,80)                1.4146         estimate D2E/DX2                !
 ! R81   R(44,47)                1.449          estimate D2E/DX2                !
 ! R82   R(45,48)                1.4485         estimate D2E/DX2                !
 ! R83   R(47,48)                1.4423         estimate D2E/DX2                !
 ! R84   R(47,49)                1.4135         estimate D2E/DX2                !
 ! R85   R(48,50)                1.4072         estimate D2E/DX2                !
 ! R86   R(49,51)                1.4125         estimate D2E/DX2                !
 ! R87   R(50,52)                1.4199         estimate D2E/DX2                !
 ! R88   R(51,52)                1.3617         estimate D2E/DX2                !
 ! R89   R(51,55)                1.5075         estimate D2E/DX2                !
 ! R90   R(52,56)                1.4506         estimate D2E/DX2                !
 ! R91   R(53,55)                1.5003         estimate D2E/DX2                !
 ! R92   R(54,56)                1.408          estimate D2E/DX2                !
 ! R93   R(55,83)                1.522          estimate D2E/DX2                !
 ! R94   R(55,86)                1.8133         estimate D2E/DX2                !
 ! R95   R(56,84)                1.4148         estimate D2E/DX2                !
 ! R96   R(57,59)                1.4464         estimate D2E/DX2                !
 ! R97   R(57,83)                1.3804         estimate D2E/DX2                !
 ! R98   R(58,60)                1.43           estimate D2E/DX2                !
 ! R99   R(58,84)                1.4024         estimate D2E/DX2                !
 ! R100  R(59,60)                1.3987         estimate D2E/DX2                !
 ! R101  R(59,61)                1.4152         estimate D2E/DX2                !
 ! R102  R(60,62)                1.4263         estimate D2E/DX2                !
 ! R103  R(61,63)                1.4084         estimate D2E/DX2                !
 ! R104  R(62,64)                1.4089         estimate D2E/DX2                !
 ! R105  R(63,64)                1.4123         estimate D2E/DX2                !
 ! R106  R(63,65)                1.4431         estimate D2E/DX2                !
 ! R107  R(64,66)                1.4461         estimate D2E/DX2                !
 ! R108  R(65,67)                1.4017         estimate D2E/DX2                !
 ! R109  R(66,68)                1.4512         estimate D2E/DX2                !
 ! R110  R(67,68)                1.4523         estimate D2E/DX2                !
 ! R111  R(67,69)                1.4178         estimate D2E/DX2                !
 ! R112  R(68,70)                1.4063         estimate D2E/DX2                !
 ! R113  R(69,71)                1.4302         estimate D2E/DX2                !
 ! R114  R(70,72)                1.438          estimate D2E/DX2                !
 ! R115  R(71,72)                1.3766         estimate D2E/DX2                !
 ! R116  R(71,73)                1.439          estimate D2E/DX2                !
 ! R117  R(72,74)                1.4428         estimate D2E/DX2                !
 ! R118  R(73,75)                1.3816         estimate D2E/DX2                !
 ! R119  R(74,76)                1.3813         estimate D2E/DX2                !
 ! R120  R(75,76)                1.4439         estimate D2E/DX2                !
 ! R121  R(75,77)                1.4214         estimate D2E/DX2                !
 ! R122  R(76,78)                1.4251         estimate D2E/DX2                !
 ! R123  R(77,81)                1.4445         estimate D2E/DX2                !
 ! R124  R(78,81)                1.4429         estimate D2E/DX2                !
 ! R125  R(79,82)                1.4298         estimate D2E/DX2                !
 ! R126  R(80,82)                1.4328         estimate D2E/DX2                !
 ! R127  R(81,82)                1.365          estimate D2E/DX2                !
 ! R128  R(83,84)                1.4472         estimate D2E/DX2                !
 ! A1    A(5,1,17)             122.1315         estimate D2E/DX2                !
 ! A2    A(5,1,23)             122.4769         estimate D2E/DX2                !
 ! A3    A(17,1,23)            106.8521         estimate D2E/DX2                !
 ! A4    A(6,2,43)             107.2936         estimate D2E/DX2                !
 ! A5    A(6,2,44)             120.9856         estimate D2E/DX2                !
 ! A6    A(43,2,44)            121.5624         estimate D2E/DX2                !
 ! A7    A(7,3,18)             121.9844         estimate D2E/DX2                !
 ! A8    A(7,3,26)             107.3337         estimate D2E/DX2                !
 ! A9    A(18,3,26)            120.8572         estimate D2E/DX2                !
 ! A10   A(8,4,45)             120.9084         estimate D2E/DX2                !
 ! A11   A(8,4,46)             106.7651         estimate D2E/DX2                !
 ! A12   A(45,4,46)            122.2336         estimate D2E/DX2                !
 ! A13   A(1,5,9)              118.8324         estimate D2E/DX2                !
 ! A14   A(1,5,29)             116.3813         estimate D2E/DX2                !
 ! A15   A(9,5,29)             119.3423         estimate D2E/DX2                !
 ! A16   A(2,6,10)             119.6841         estimate D2E/DX2                !
 ! A17   A(2,6,15)             108.3882         estimate D2E/DX2                !
 ! A18   A(10,6,15)            119.4279         estimate D2E/DX2                !
 ! A19   A(3,7,12)             122.5422         estimate D2E/DX2                !
 ! A20   A(3,7,30)             107.1964         estimate D2E/DX2                !
 ! A21   A(12,7,30)            120.0188         estimate D2E/DX2                !
 ! A22   A(4,8,11)             119.427          estimate D2E/DX2                !
 ! A23   A(4,8,16)             109.3108         estimate D2E/DX2                !
 ! A24   A(11,8,16)            120.771          estimate D2E/DX2                !
 ! A25   A(5,9,13)             117.7476         estimate D2E/DX2                !
 ! A26   A(5,9,35)             120.7911         estimate D2E/DX2                !
 ! A27   A(13,9,35)            117.3574         estimate D2E/DX2                !
 ! A28   A(6,10,49)            119.7594         estimate D2E/DX2                !
 ! A29   A(6,10,53)            120.9868         estimate D2E/DX2                !
 ! A30   A(49,10,53)           109.2197         estimate D2E/DX2                !
 ! A31   A(8,11,50)            120.1652         estimate D2E/DX2                !
 ! A32   A(8,11,54)            119.9702         estimate D2E/DX2                !
 ! A33   A(50,11,54)           109.2131         estimate D2E/DX2                !
 ! A34   A(7,12,14)            114.6476         estimate D2E/DX2                !
 ! A35   A(7,12,36)            120.4522         estimate D2E/DX2                !
 ! A36   A(14,12,36)           119.3754         estimate D2E/DX2                !
 ! A37   A(9,13,15)            122.3935         estimate D2E/DX2                !
 ! A38   A(9,13,43)            121.2595         estimate D2E/DX2                !
 ! A39   A(15,13,43)           107.0403         estimate D2E/DX2                !
 ! A40   A(12,14,16)           122.5082         estimate D2E/DX2                !
 ! A41   A(12,14,46)           120.6977         estimate D2E/DX2                !
 ! A42   A(16,14,46)           108.5318         estimate D2E/DX2                !
 ! A43   A(6,15,13)            108.2901         estimate D2E/DX2                !
 ! A44   A(6,15,17)            118.9935         estimate D2E/DX2                !
 ! A45   A(13,15,17)           119.997          estimate D2E/DX2                !
 ! A46   A(8,16,14)            106.7913         estimate D2E/DX2                !
 ! A47   A(8,16,18)            120.7182         estimate D2E/DX2                !
 ! A48   A(14,16,18)           122.3878         estimate D2E/DX2                !
 ! A49   A(1,17,15)            118.8257         estimate D2E/DX2                !
 ! A50   A(1,17,19)            109.8162         estimate D2E/DX2                !
 ! A51   A(15,17,19)           121.1549         estimate D2E/DX2                !
 ! A52   A(3,18,16)            114.8221         estimate D2E/DX2                !
 ! A53   A(3,18,20)            119.2022         estimate D2E/DX2                !
 ! A54   A(16,18,20)           118.7242         estimate D2E/DX2                !
 ! A55   A(17,19,21)           110.0593         estimate D2E/DX2                !
 ! A56   A(17,19,53)           119.5642         estimate D2E/DX2                !
 ! A57   A(21,19,53)           122.2372         estimate D2E/DX2                !
 ! A58   A(18,20,22)           118.6696         estimate D2E/DX2                !
 ! A59   A(18,20,54)           119.3667         estimate D2E/DX2                !
 ! A60   A(22,20,54)           114.7425         estimate D2E/DX2                !
 ! A61   A(19,21,23)           100.9242         estimate D2E/DX2                !
 ! A62   A(19,21,57)           111.8703         estimate D2E/DX2                !
 ! A63   A(19,21,85)           112.7282         estimate D2E/DX2                !
 ! A64   A(23,21,57)           111.4775         estimate D2E/DX2                !
 ! A65   A(23,21,85)           111.5979         estimate D2E/DX2                !
 ! A66   A(57,21,85)           108.1909         estimate D2E/DX2                !
 ! A67   A(20,22,24)           121.1303         estimate D2E/DX2                !
 ! A68   A(20,22,58)           121.6672         estimate D2E/DX2                !
 ! A69   A(24,22,58)           106.6303         estimate D2E/DX2                !
 ! A70   A(1,23,21)            111.9143         estimate D2E/DX2                !
 ! A71   A(1,23,25)            119.5989         estimate D2E/DX2                !
 ! A72   A(21,23,25)           121.8034         estimate D2E/DX2                !
 ! A73   A(22,24,26)           120.4672         estimate D2E/DX2                !
 ! A74   A(22,24,62)           109.3802         estimate D2E/DX2                !
 ! A75   A(26,24,62)           119.1483         estimate D2E/DX2                !
 ! A76   A(23,25,27)           120.1339         estimate D2E/DX2                !
 ! A77   A(23,25,61)           120.9891         estimate D2E/DX2                !
 ! A78   A(27,25,61)           108.7825         estimate D2E/DX2                !
 ! A79   A(3,26,24)            119.6341         estimate D2E/DX2                !
 ! A80   A(3,26,28)            109.3805         estimate D2E/DX2                !
 ! A81   A(24,26,28)           119.9949         estimate D2E/DX2                !
 ! A82   A(25,27,29)           120.5278         estimate D2E/DX2                !
 ! A83   A(25,27,65)           107.2489         estimate D2E/DX2                !
 ! A84   A(29,27,65)           121.7948         estimate D2E/DX2                !
 ! A85   A(26,28,30)           105.4405         estimate D2E/DX2                !
 ! A86   A(26,28,66)           122.4662         estimate D2E/DX2                !
 ! A87   A(30,28,66)           121.4297         estimate D2E/DX2                !
 ! A88   A(5,29,27)            119.9942         estimate D2E/DX2                !
 ! A89   A(5,29,31)            118.9474         estimate D2E/DX2                !
 ! A90   A(27,29,31)           115.2766         estimate D2E/DX2                !
 ! A91   A(7,30,28)            109.9973         estimate D2E/DX2                !
 ! A92   A(7,30,32)            119.714          estimate D2E/DX2                !
 ! A93   A(28,30,32)           120.1323         estimate D2E/DX2                !
 ! A94   A(29,31,33)           121.1153         estimate D2E/DX2                !
 ! A95   A(29,31,69)           121.9372         estimate D2E/DX2                !
 ! A96   A(33,31,69)           108.9172         estimate D2E/DX2                !
 ! A97   A(30,32,34)           120.4757         estimate D2E/DX2                !
 ! A98   A(30,32,70)           119.3969         estimate D2E/DX2                !
 ! A99   A(34,32,70)           110.0316         estimate D2E/DX2                !
 ! A100  A(31,33,35)           121.2968         estimate D2E/DX2                !
 ! A101  A(31,33,73)           107.0338         estimate D2E/DX2                !
 ! A102  A(35,33,73)           122.5293         estimate D2E/DX2                !
 ! A103  A(32,34,36)           121.2279         estimate D2E/DX2                !
 ! A104  A(32,34,74)           105.975          estimate D2E/DX2                !
 ! A105  A(36,34,74)           122.5031         estimate D2E/DX2                !
 ! A106  A(9,35,33)            117.1988         estimate D2E/DX2                !
 ! A107  A(9,35,37)            120.7231         estimate D2E/DX2                !
 ! A108  A(33,35,37)           117.8903         estimate D2E/DX2                !
 ! A109  A(12,36,34)           117.1029         estimate D2E/DX2                !
 ! A110  A(12,36,38)           119.7814         estimate D2E/DX2                !
 ! A111  A(34,36,38)           118.0891         estimate D2E/DX2                !
 ! A112  A(35,37,39)           119.2052         estimate D2E/DX2                !
 ! A113  A(35,37,77)           118.5131         estimate D2E/DX2                !
 ! A114  A(39,37,77)           116.7947         estimate D2E/DX2                !
 ! A115  A(36,38,42)           119.4487         estimate D2E/DX2                !
 ! A116  A(36,38,78)           118.2041         estimate D2E/DX2                !
 ! A117  A(42,38,78)           117.1558         estimate D2E/DX2                !
 ! A118  A(37,39,43)           118.7579         estimate D2E/DX2                !
 ! A119  A(37,39,79)           120.4746         estimate D2E/DX2                !
 ! A120  A(43,39,79)           115.1139         estimate D2E/DX2                !
 ! A121  A(41,40,44)           121.2776         estimate D2E/DX2                !
 ! A122  A(41,40,79)           108.2862         estimate D2E/DX2                !
 ! A123  A(44,40,79)           122.0293         estimate D2E/DX2                !
 ! A124  A(40,41,45)           120.7735         estimate D2E/DX2                !
 ! A125  A(40,41,80)           108.4767         estimate D2E/DX2                !
 ! A126  A(45,41,80)           122.1741         estimate D2E/DX2                !
 ! A127  A(38,42,46)           119.611          estimate D2E/DX2                !
 ! A128  A(38,42,80)           120.1642         estimate D2E/DX2                !
 ! A129  A(46,42,80)           114.5523         estimate D2E/DX2                !
 ! A130  A(2,43,13)            108.6092         estimate D2E/DX2                !
 ! A131  A(2,43,39)            122.0348         estimate D2E/DX2                !
 ! A132  A(13,43,39)           121.2538         estimate D2E/DX2                !
 ! A133  A(2,44,40)            114.9611         estimate D2E/DX2                !
 ! A134  A(2,44,47)            120.0429         estimate D2E/DX2                !
 ! A135  A(40,44,47)           119.0171         estimate D2E/DX2                !
 ! A136  A(4,45,41)            114.7026         estimate D2E/DX2                !
 ! A137  A(4,45,48)            120.1119         estimate D2E/DX2                !
 ! A138  A(41,45,48)           118.987          estimate D2E/DX2                !
 ! A139  A(4,46,14)            108.5235         estimate D2E/DX2                !
 ! A140  A(4,46,42)            122.3831         estimate D2E/DX2                !
 ! A141  A(14,46,42)           120.9487         estimate D2E/DX2                !
 ! A142  A(44,47,48)           119.65           estimate D2E/DX2                !
 ! A143  A(44,47,49)           116.9777         estimate D2E/DX2                !
 ! A144  A(48,47,49)           118.1248         estimate D2E/DX2                !
 ! A145  A(45,48,47)           120.2307         estimate D2E/DX2                !
 ! A146  A(45,48,50)           116.7464         estimate D2E/DX2                !
 ! A147  A(47,48,50)           117.5634         estimate D2E/DX2                !
 ! A148  A(10,49,47)           122.3987         estimate D2E/DX2                !
 ! A149  A(10,49,51)           106.7274         estimate D2E/DX2                !
 ! A150  A(47,49,51)           122.5901         estimate D2E/DX2                !
 ! A151  A(11,50,48)           122.3066         estimate D2E/DX2                !
 ! A152  A(11,50,52)           105.7932         estimate D2E/DX2                !
 ! A153  A(48,50,52)           121.9519         estimate D2E/DX2                !
 ! A154  A(49,51,52)           118.7388         estimate D2E/DX2                !
 ! A155  A(49,51,55)           112.5654         estimate D2E/DX2                !
 ! A156  A(52,51,55)           122.1539         estimate D2E/DX2                !
 ! A157  A(50,52,51)           120.3901         estimate D2E/DX2                !
 ! A158  A(50,52,56)           109.3382         estimate D2E/DX2                !
 ! A159  A(51,52,56)           120.5842         estimate D2E/DX2                !
 ! A160  A(10,53,19)           119.7558         estimate D2E/DX2                !
 ! A161  A(10,53,55)           110.2532         estimate D2E/DX2                !
 ! A162  A(19,53,55)           122.1019         estimate D2E/DX2                !
 ! A163  A(11,54,20)           120.4108         estimate D2E/DX2                !
 ! A164  A(11,54,56)           107.4052         estimate D2E/DX2                !
 ! A165  A(20,54,56)           122.5711         estimate D2E/DX2                !
 ! A166  A(51,55,53)           100.7669         estimate D2E/DX2                !
 ! A167  A(51,55,83)           111.2742         estimate D2E/DX2                !
 ! A168  A(51,55,86)           111.9131         estimate D2E/DX2                !
 ! A169  A(53,55,83)           111.9449         estimate D2E/DX2                !
 ! A170  A(53,55,86)           112.5982         estimate D2E/DX2                !
 ! A171  A(83,55,86)           108.2773         estimate D2E/DX2                !
 ! A172  A(52,56,54)           107.6122         estimate D2E/DX2                !
 ! A173  A(52,56,84)           118.8773         estimate D2E/DX2                !
 ! A174  A(54,56,84)           122.0675         estimate D2E/DX2                !
 ! A175  A(21,57,59)           117.2251         estimate D2E/DX2                !
 ! A176  A(21,57,83)           121.2116         estimate D2E/DX2                !
 ! A177  A(59,57,83)           120.4107         estimate D2E/DX2                !
 ! A178  A(22,58,60)           108.6527         estimate D2E/DX2                !
 ! A179  A(22,58,84)           122.9009         estimate D2E/DX2                !
 ! A180  A(60,58,84)           120.3592         estimate D2E/DX2                !
 ! A181  A(57,59,60)           119.0956         estimate D2E/DX2                !
 ! A182  A(57,59,61)           121.1894         estimate D2E/DX2                !
 ! A183  A(60,59,61)           114.4773         estimate D2E/DX2                !
 ! A184  A(58,60,59)           120.5047         estimate D2E/DX2                !
 ! A185  A(58,60,62)           108.6462         estimate D2E/DX2                !
 ! A186  A(59,60,62)           122.783          estimate D2E/DX2                !
 ! A187  A(25,61,59)           119.23           estimate D2E/DX2                !
 ! A188  A(25,61,63)           106.9817         estimate D2E/DX2                !
 ! A189  A(59,61,63)           121.8774         estimate D2E/DX2                !
 ! A190  A(24,62,60)           106.6128         estimate D2E/DX2                !
 ! A191  A(24,62,64)           121.2773         estimate D2E/DX2                !
 ! A192  A(60,62,64)           121.5307         estimate D2E/DX2                !
 ! A193  A(61,63,64)           122.69           estimate D2E/DX2                !
 ! A194  A(61,63,65)           108.6273         estimate D2E/DX2                !
 ! A195  A(64,63,65)           120.4119         estimate D2E/DX2                !
 ! A196  A(62,64,63)           114.5814         estimate D2E/DX2                !
 ! A197  A(62,64,66)           120.197          estimate D2E/DX2                !
 ! A198  A(63,64,66)           119.2638         estimate D2E/DX2                !
 ! A199  A(27,65,63)           108.1287         estimate D2E/DX2                !
 ! A200  A(27,65,67)           122.1031         estimate D2E/DX2                !
 ! A201  A(63,65,67)           121.5303         estimate D2E/DX2                !
 ! A202  A(28,66,64)           116.5447         estimate D2E/DX2                !
 ! A203  A(28,66,68)           118.106          estimate D2E/DX2                !
 ! A204  A(64,66,68)           120.0741         estimate D2E/DX2                !
 ! A205  A(65,67,68)           119.1407         estimate D2E/DX2                !
 ! A206  A(65,67,69)           114.9331         estimate D2E/DX2                !
 ! A207  A(68,67,69)           120.0903         estimate D2E/DX2                !
 ! A208  A(66,68,67)           119.4996         estimate D2E/DX2                !
 ! A209  A(66,68,70)           118.4819         estimate D2E/DX2                !
 ! A210  A(67,68,70)           116.7279         estimate D2E/DX2                !
 ! A211  A(31,69,67)           121.5762         estimate D2E/DX2                !
 ! A212  A(31,69,71)           107.2906         estimate D2E/DX2                !
 ! A213  A(67,69,71)           121.1188         estimate D2E/DX2                !
 ! A214  A(32,70,68)           121.3661         estimate D2E/DX2                !
 ! A215  A(32,70,72)           106.0238         estimate D2E/DX2                !
 ! A216  A(68,70,72)           122.4851         estimate D2E/DX2                !
 ! A217  A(69,71,72)           119.2084         estimate D2E/DX2                !
 ! A218  A(69,71,73)           108.2391         estimate D2E/DX2                !
 ! A219  A(72,71,73)           120.4274         estimate D2E/DX2                !
 ! A220  A(70,72,71)           120.1964         estimate D2E/DX2                !
 ! A221  A(70,72,74)           108.2727         estimate D2E/DX2                !
 ! A222  A(71,72,74)           119.6495         estimate D2E/DX2                !
 ! A223  A(33,73,71)           108.1382         estimate D2E/DX2                !
 ! A224  A(33,73,75)           119.492          estimate D2E/DX2                !
 ! A225  A(71,73,75)           120.0342         estimate D2E/DX2                !
 ! A226  A(34,74,72)           108.7816         estimate D2E/DX2                !
 ! A227  A(34,74,76)           119.2707         estimate D2E/DX2                !
 ! A228  A(72,74,76)           120.176          estimate D2E/DX2                !
 ! A229  A(73,75,76)           119.7286         estimate D2E/DX2                !
 ! A230  A(73,75,77)           119.3017         estimate D2E/DX2                !
 ! A231  A(76,75,77)           108.7636         estimate D2E/DX2                !
 ! A232  A(74,76,75)           119.9675         estimate D2E/DX2                !
 ! A233  A(74,76,78)           119.3844         estimate D2E/DX2                !
 ! A234  A(75,76,78)           108.6652         estimate D2E/DX2                !
 ! A235  A(37,77,75)           122.2247         estimate D2E/DX2                !
 ! A236  A(37,77,81)           121.2154         estimate D2E/DX2                !
 ! A237  A(75,77,81)           106.1778         estimate D2E/DX2                !
 ! A238  A(38,78,76)           122.3485         estimate D2E/DX2                !
 ! A239  A(38,78,81)           121.3615         estimate D2E/DX2                !
 ! A240  A(76,78,81)           106.0685         estimate D2E/DX2                !
 ! A241  A(39,79,40)           121.8102         estimate D2E/DX2                !
 ! A242  A(39,79,82)           120.2224         estimate D2E/DX2                !
 ! A243  A(40,79,82)           106.8414         estimate D2E/DX2                !
 ! A244  A(41,80,42)           122.4087         estimate D2E/DX2                !
 ! A245  A(41,80,82)           106.6892         estimate D2E/DX2                !
 ! A246  A(42,80,82)           120.3254         estimate D2E/DX2                !
 ! A247  A(77,81,78)           109.4556         estimate D2E/DX2                !
 ! A248  A(77,81,82)           120.1469         estimate D2E/DX2                !
 ! A249  A(78,81,82)           120.1663         estimate D2E/DX2                !
 ! A250  A(79,82,80)           109.4819         estimate D2E/DX2                !
 ! A251  A(79,82,81)           119.9218         estimate D2E/DX2                !
 ! A252  A(80,82,81)           120.0359         estimate D2E/DX2                !
 ! A253  A(55,83,57)           121.1597         estimate D2E/DX2                !
 ! A254  A(55,83,84)           117.1758         estimate D2E/DX2                !
 ! A255  A(57,83,84)           120.5805         estimate D2E/DX2                !
 ! A256  A(56,84,58)           114.5557         estimate D2E/DX2                !
 ! A257  A(56,84,83)           121.4388         estimate D2E/DX2                !
 ! A258  A(58,84,83)           118.9215         estimate D2E/DX2                !
 ! D1    D(17,1,5,9)            -0.309          estimate D2E/DX2                !
 ! D2    D(17,1,5,29)         -154.1321         estimate D2E/DX2                !
 ! D3    D(23,1,5,9)           143.3563         estimate D2E/DX2                !
 ! D4    D(23,1,5,29)          -10.4668         estimate D2E/DX2                !
 ! D5    D(5,1,17,15)           -2.0934         estimate D2E/DX2                !
 ! D6    D(5,1,17,19)          143.5971         estimate D2E/DX2                !
 ! D7    D(23,1,17,15)        -150.609          estimate D2E/DX2                !
 ! D8    D(23,1,17,19)          -4.9185         estimate D2E/DX2                !
 ! D9    D(5,1,23,21)         -147.3248         estimate D2E/DX2                !
 ! D10   D(5,1,23,25)            4.5386         estimate D2E/DX2                !
 ! D11   D(17,1,23,21)           1.0566         estimate D2E/DX2                !
 ! D12   D(17,1,23,25)         152.92           estimate D2E/DX2                !
 ! D13   D(43,2,6,10)         -144.3791         estimate D2E/DX2                !
 ! D14   D(43,2,6,15)           -2.6154         estimate D2E/DX2                !
 ! D15   D(44,2,6,10)            1.3546         estimate D2E/DX2                !
 ! D16   D(44,2,6,15)          143.1183         estimate D2E/DX2                !
 ! D17   D(6,2,43,13)            5.5454         estimate D2E/DX2                !
 ! D18   D(6,2,43,39)          154.4687         estimate D2E/DX2                !
 ! D19   D(44,2,43,13)        -139.9485         estimate D2E/DX2                !
 ! D20   D(44,2,43,39)           8.9748         estimate D2E/DX2                !
 ! D21   D(6,2,44,40)         -155.8929         estimate D2E/DX2                !
 ! D22   D(6,2,44,47)           -3.3571         estimate D2E/DX2                !
 ! D23   D(43,2,44,40)         -15.0108         estimate D2E/DX2                !
 ! D24   D(43,2,44,47)         137.525          estimate D2E/DX2                !
 ! D25   D(18,3,7,12)            3.2881         estimate D2E/DX2                !
 ! D26   D(18,3,7,30)          148.2443         estimate D2E/DX2                !
 ! D27   D(26,3,7,12)         -142.6443         estimate D2E/DX2                !
 ! D28   D(26,3,7,30)            2.3119         estimate D2E/DX2                !
 ! D29   D(7,3,18,16)            6.3692         estimate D2E/DX2                !
 ! D30   D(7,3,18,20)         -143.5291         estimate D2E/DX2                !
 ! D31   D(26,3,18,16)         147.8406         estimate D2E/DX2                !
 ! D32   D(26,3,18,20)          -2.0576         estimate D2E/DX2                !
 ! D33   D(7,3,26,24)          146.9293         estimate D2E/DX2                !
 ! D34   D(7,3,26,28)            2.8518         estimate D2E/DX2                !
 ! D35   D(18,3,26,24)           0.5353         estimate D2E/DX2                !
 ! D36   D(18,3,26,28)        -143.5422         estimate D2E/DX2                !
 ! D37   D(45,4,8,11)            1.9278         estimate D2E/DX2                !
 ! D38   D(45,4,8,16)         -143.1641         estimate D2E/DX2                !
 ! D39   D(46,4,8,11)          147.9861         estimate D2E/DX2                !
 ! D40   D(46,4,8,16)            2.8941         estimate D2E/DX2                !
 ! D41   D(8,4,45,41)          152.089          estimate D2E/DX2                !
 ! D42   D(8,4,45,48)            0.0305         estimate D2E/DX2                !
 ! D43   D(46,4,45,41)          11.2887         estimate D2E/DX2                !
 ! D44   D(46,4,45,48)        -140.7699         estimate D2E/DX2                !
 ! D45   D(8,4,46,14)           -2.2435         estimate D2E/DX2                !
 ! D46   D(8,4,46,42)         -150.9744         estimate D2E/DX2                !
 ! D47   D(45,4,46,14)         143.2609         estimate D2E/DX2                !
 ! D48   D(45,4,46,42)          -5.4699         estimate D2E/DX2                !
 ! D49   D(1,5,9,13)             2.0684         estimate D2E/DX2                !
 ! D50   D(1,5,9,35)          -154.559          estimate D2E/DX2                !
 ! D51   D(29,5,9,13)          155.1087         estimate D2E/DX2                !
 ! D52   D(29,5,9,35)           -1.5188         estimate D2E/DX2                !
 ! D53   D(1,5,29,27)            8.5621         estimate D2E/DX2                !
 ! D54   D(1,5,29,31)          160.528          estimate D2E/DX2                !
 ! D55   D(9,5,29,27)         -145.1212         estimate D2E/DX2                !
 ! D56   D(9,5,29,31)            6.8447         estimate D2E/DX2                !
 ! D57   D(2,6,10,49)           -0.6386         estimate D2E/DX2                !
 ! D58   D(2,6,10,53)          141.1469         estimate D2E/DX2                !
 ! D59   D(15,6,10,49)        -138.2381         estimate D2E/DX2                !
 ! D60   D(15,6,10,53)           3.5473         estimate D2E/DX2                !
 ! D61   D(2,6,15,13)           -1.3255         estimate D2E/DX2                !
 ! D62   D(2,6,15,17)         -143.0617         estimate D2E/DX2                !
 ! D63   D(10,6,15,13)         140.5525         estimate D2E/DX2                !
 ! D64   D(10,6,15,17)          -1.1837         estimate D2E/DX2                !
 ! D65   D(3,7,12,14)           -9.2212         estimate D2E/DX2                !
 ! D66   D(3,7,12,36)          144.394          estimate D2E/DX2                !
 ! D67   D(30,7,12,14)        -149.9115         estimate D2E/DX2                !
 ! D68   D(30,7,12,36)           3.7037         estimate D2E/DX2                !
 ! D69   D(3,7,30,28)           -6.7623         estimate D2E/DX2                !
 ! D70   D(3,7,30,32)         -152.126          estimate D2E/DX2                !
 ! D71   D(12,7,30,28)         139.2484         estimate D2E/DX2                !
 ! D72   D(12,7,30,32)          -6.1153         estimate D2E/DX2                !
 ! D73   D(4,8,11,50)            0.6081         estimate D2E/DX2                !
 ! D74   D(4,8,11,54)         -140.1545         estimate D2E/DX2                !
 ! D75   D(16,8,11,50)         141.6646         estimate D2E/DX2                !
 ! D76   D(16,8,11,54)           0.902          estimate D2E/DX2                !
 ! D77   D(4,8,16,14)           -2.4178         estimate D2E/DX2                !
 ! D78   D(4,8,16,18)          143.6929         estimate D2E/DX2                !
 ! D79   D(11,8,16,14)        -146.9605         estimate D2E/DX2                !
 ! D80   D(11,8,16,18)          -0.8498         estimate D2E/DX2                !
 ! D81   D(5,9,13,15)           -1.5269         estimate D2E/DX2                !
 ! D82   D(5,9,13,43)         -143.8183         estimate D2E/DX2                !
 ! D83   D(35,9,13,15)         155.9099         estimate D2E/DX2                !
 ! D84   D(35,9,13,43)          13.6186         estimate D2E/DX2                !
 ! D85   D(5,9,35,33)           -8.3537         estimate D2E/DX2                !
 ! D86   D(5,9,35,37)          148.1689         estimate D2E/DX2                !
 ! D87   D(13,9,35,33)        -165.0689         estimate D2E/DX2                !
 ! D88   D(13,9,35,37)          -8.5463         estimate D2E/DX2                !
 ! D89   D(6,10,49,47)           2.0471         estimate D2E/DX2                !
 ! D90   D(6,10,49,51)         151.0092         estimate D2E/DX2                !
 ! D91   D(53,10,49,47)       -143.7845         estimate D2E/DX2                !
 ! D92   D(53,10,49,51)          5.1776         estimate D2E/DX2                !
 ! D93   D(6,10,53,19)          -2.9157         estimate D2E/DX2                !
 ! D94   D(6,10,53,55)        -152.6184         estimate D2E/DX2                !
 ! D95   D(49,10,53,19)        142.4231         estimate D2E/DX2                !
 ! D96   D(49,10,53,55)         -7.2796         estimate D2E/DX2                !
 ! D97   D(8,11,50,48)          -5.3347         estimate D2E/DX2                !
 ! D98   D(8,11,50,52)        -151.3869         estimate D2E/DX2                !
 ! D99   D(54,11,50,48)        139.1953         estimate D2E/DX2                !
 ! D100  D(54,11,50,52)         -6.8569         estimate D2E/DX2                !
 ! D101  D(8,11,54,20)           0.5691         estimate D2E/DX2                !
 ! D102  D(8,11,54,56)         147.5172         estimate D2E/DX2                !
 ! D103  D(50,11,54,20)       -144.0413         estimate D2E/DX2                !
 ! D104  D(50,11,54,56)          2.9069         estimate D2E/DX2                !
 ! D105  D(7,12,14,16)           5.681          estimate D2E/DX2                !
 ! D106  D(7,12,14,46)         150.4318         estimate D2E/DX2                !
 ! D107  D(36,12,14,16)       -148.2395         estimate D2E/DX2                !
 ! D108  D(36,12,14,46)         -3.4887         estimate D2E/DX2                !
 ! D109  D(7,12,36,34)           4.7961         estimate D2E/DX2                !
 ! D110  D(7,12,36,38)        -149.6658         estimate D2E/DX2                !
 ! D111  D(14,12,36,34)        157.1826         estimate D2E/DX2                !
 ! D112  D(14,12,36,38)          2.7207         estimate D2E/DX2                !
 ! D113  D(9,13,15,6)         -142.1589         estimate D2E/DX2                !
 ! D114  D(9,13,15,17)          -0.874          estimate D2E/DX2                !
 ! D115  D(43,13,15,6)           4.6893         estimate D2E/DX2                !
 ! D116  D(43,13,15,17)        145.9741         estimate D2E/DX2                !
 ! D117  D(9,13,43,2)          140.9489         estimate D2E/DX2                !
 ! D118  D(9,13,43,39)          -8.2628         estimate D2E/DX2                !
 ! D119  D(15,13,43,2)          -6.355          estimate D2E/DX2                !
 ! D120  D(15,13,43,39)       -155.5668         estimate D2E/DX2                !
 ! D121  D(12,14,16,8)         149.4359         estimate D2E/DX2                !
 ! D122  D(12,14,16,18)          4.023          estimate D2E/DX2                !
 ! D123  D(46,14,16,8)           0.9966         estimate D2E/DX2                !
 ! D124  D(46,14,16,18)       -144.4163         estimate D2E/DX2                !
 ! D125  D(12,14,46,4)        -148.3291         estimate D2E/DX2                !
 ! D126  D(12,14,46,42)          0.9334         estimate D2E/DX2                !
 ! D127  D(16,14,46,4)           0.7855         estimate D2E/DX2                !
 ! D128  D(16,14,46,42)        150.048          estimate D2E/DX2                !
 ! D129  D(6,15,17,1)          139.8977         estimate D2E/DX2                !
 ! D130  D(6,15,17,19)          -1.8112         estimate D2E/DX2                !
 ! D131  D(13,15,17,1)           2.6585         estimate D2E/DX2                !
 ! D132  D(13,15,17,19)       -139.0504         estimate D2E/DX2                !
 ! D133  D(8,16,18,3)         -150.7147         estimate D2E/DX2                !
 ! D134  D(8,16,18,20)          -0.6636         estimate D2E/DX2                !
 ! D135  D(14,16,18,3)          -9.9238         estimate D2E/DX2                !
 ! D136  D(14,16,18,20)        140.1272         estimate D2E/DX2                !
 ! D137  D(1,17,19,21)           7.0218         estimate D2E/DX2                !
 ! D138  D(1,17,19,53)        -142.2954         estimate D2E/DX2                !
 ! D139  D(15,17,19,21)        151.7789         estimate D2E/DX2                !
 ! D140  D(15,17,19,53)          2.4616         estimate D2E/DX2                !
 ! D141  D(3,18,20,22)           2.0548         estimate D2E/DX2                !
 ! D142  D(3,18,20,54)         150.8193         estimate D2E/DX2                !
 ! D143  D(16,18,20,22)       -146.6747         estimate D2E/DX2                !
 ! D144  D(16,18,20,54)          2.0899         estimate D2E/DX2                !
 ! D145  D(17,19,21,23)         -5.8515         estimate D2E/DX2                !
 ! D146  D(17,19,21,57)       -124.4902         estimate D2E/DX2                !
 ! D147  D(17,19,21,85)        113.3113         estimate D2E/DX2                !
 ! D148  D(53,19,21,23)        142.4979         estimate D2E/DX2                !
 ! D149  D(53,19,21,57)         23.8593         estimate D2E/DX2                !
 ! D150  D(53,19,21,85)        -98.3392         estimate D2E/DX2                !
 ! D151  D(17,19,53,10)         -0.1049         estimate D2E/DX2                !
 ! D152  D(17,19,53,55)        145.9278         estimate D2E/DX2                !
 ! D153  D(21,19,53,10)       -145.5854         estimate D2E/DX2                !
 ! D154  D(21,19,53,55)          0.4472         estimate D2E/DX2                !
 ! D155  D(18,20,22,24)         -0.5848         estimate D2E/DX2                !
 ! D156  D(18,20,22,58)        139.3546         estimate D2E/DX2                !
 ! D157  D(54,20,22,24)       -150.7432         estimate D2E/DX2                !
 ! D158  D(54,20,22,58)        -10.8039         estimate D2E/DX2                !
 ! D159  D(18,20,54,11)         -2.0679         estimate D2E/DX2                !
 ! D160  D(18,20,54,56)       -143.9304         estimate D2E/DX2                !
 ! D161  D(22,20,54,11)        147.8677         estimate D2E/DX2                !
 ! D162  D(22,20,54,56)          6.0053         estimate D2E/DX2                !
 ! D163  D(19,21,23,1)           2.8992         estimate D2E/DX2                !
 ! D164  D(19,21,23,25)       -148.2536         estimate D2E/DX2                !
 ! D165  D(57,21,23,1)         121.822          estimate D2E/DX2                !
 ! D166  D(57,21,23,25)        -29.3308         estimate D2E/DX2                !
 ! D167  D(85,21,23,1)        -117.0752         estimate D2E/DX2                !
 ! D168  D(85,21,23,25)         91.772          estimate D2E/DX2                !
 ! D169  D(19,21,57,59)        143.903          estimate D2E/DX2                !
 ! D170  D(19,21,57,83)        -23.8714         estimate D2E/DX2                !
 ! D171  D(23,21,57,59)         31.7317         estimate D2E/DX2                !
 ! D172  D(23,21,57,83)       -136.0427         estimate D2E/DX2                !
 ! D173  D(85,21,57,59)        -91.338          estimate D2E/DX2                !
 ! D174  D(85,21,57,83)        100.8876         estimate D2E/DX2                !
 ! D175  D(20,22,24,26)         -0.953          estimate D2E/DX2                !
 ! D176  D(20,22,24,62)        142.752          estimate D2E/DX2                !
 ! D177  D(58,22,24,26)       -146.0851         estimate D2E/DX2                !
 ! D178  D(58,22,24,62)         -2.38           estimate D2E/DX2                !
 ! D179  D(20,22,58,60)       -143.9799         estimate D2E/DX2                !
 ! D180  D(20,22,58,84)          4.6393         estimate D2E/DX2                !
 ! D181  D(24,22,58,60)          0.9228         estimate D2E/DX2                !
 ! D182  D(24,22,58,84)        149.5421         estimate D2E/DX2                !
 ! D183  D(1,23,25,27)           3.5724         estimate D2E/DX2                !
 ! D184  D(1,23,25,61)        -137.9553         estimate D2E/DX2                !
 ! D185  D(21,23,25,27)        152.5889         estimate D2E/DX2                !
 ! D186  D(21,23,25,61)         11.0612         estimate D2E/DX2                !
 ! D187  D(22,24,26,3)           0.9821         estimate D2E/DX2                !
 ! D188  D(22,24,26,28)        141.2625         estimate D2E/DX2                !
 ! D189  D(62,24,26,3)        -139.2731         estimate D2E/DX2                !
 ! D190  D(62,24,26,28)          1.0073         estimate D2E/DX2                !
 ! D191  D(22,24,62,60)          2.8995         estimate D2E/DX2                !
 ! D192  D(22,24,62,64)       -142.1632         estimate D2E/DX2                !
 ! D193  D(26,24,62,60)        147.154          estimate D2E/DX2                !
 ! D194  D(26,24,62,64)          2.0913         estimate D2E/DX2                !
 ! D195  D(23,25,27,29)         -5.2459         estimate D2E/DX2                !
 ! D196  D(23,25,27,65)       -150.6891         estimate D2E/DX2                !
 ! D197  D(61,25,27,29)        140.4673         estimate D2E/DX2                !
 ! D198  D(61,25,27,65)         -4.9759         estimate D2E/DX2                !
 ! D199  D(23,25,61,59)          6.1648         estimate D2E/DX2                !
 ! D200  D(23,25,61,63)        149.643          estimate D2E/DX2                !
 ! D201  D(27,25,61,59)       -139.2018         estimate D2E/DX2                !
 ! D202  D(27,25,61,63)          4.2763         estimate D2E/DX2                !
 ! D203  D(3,26,28,30)          -6.8336         estimate D2E/DX2                !
 ! D204  D(3,26,28,66)         137.9445         estimate D2E/DX2                !
 ! D205  D(24,26,28,30)       -150.7609         estimate D2E/DX2                !
 ! D206  D(24,26,28,66)         -5.9828         estimate D2E/DX2                !
 ! D207  D(25,27,29,5)          -1.0828         estimate D2E/DX2                !
 ! D208  D(25,27,29,31)       -154.0292         estimate D2E/DX2                !
 ! D209  D(65,27,29,5)         139.3224         estimate D2E/DX2                !
 ! D210  D(65,27,29,31)        -13.624          estimate D2E/DX2                !
 ! D211  D(25,27,65,63)          3.7542         estimate D2E/DX2                !
 ! D212  D(25,27,65,67)        152.5137         estimate D2E/DX2                !
 ! D213  D(29,27,65,63)       -141.156          estimate D2E/DX2                !
 ! D214  D(29,27,65,67)          7.6035         estimate D2E/DX2                !
 ! D215  D(26,28,30,7)           8.3412         estimate D2E/DX2                !
 ! D216  D(26,28,30,32)        153.5381         estimate D2E/DX2                !
 ! D217  D(66,28,30,7)        -136.8894         estimate D2E/DX2                !
 ! D218  D(66,28,30,32)          8.3075         estimate D2E/DX2                !
 ! D219  D(26,28,66,64)          7.3687         estimate D2E/DX2                !
 ! D220  D(26,28,66,68)       -147.035          estimate D2E/DX2                !
 ! D221  D(30,28,66,64)        146.7125         estimate D2E/DX2                !
 ! D222  D(30,28,66,68)         -7.6912         estimate D2E/DX2                !
 ! D223  D(5,29,31,33)          -2.2982         estimate D2E/DX2                !
 ! D224  D(5,29,31,69)        -147.6323         estimate D2E/DX2                !
 ! D225  D(27,29,31,33)        150.9484         estimate D2E/DX2                !
 ! D226  D(27,29,31,69)          5.6142         estimate D2E/DX2                !
 ! D227  D(7,30,32,34)          -0.0991         estimate D2E/DX2                !
 ! D228  D(7,30,32,70)         141.875          estimate D2E/DX2                !
 ! D229  D(28,30,32,34)       -141.9618         estimate D2E/DX2                !
 ! D230  D(28,30,32,70)          0.0123         estimate D2E/DX2                !
 ! D231  D(29,31,33,35)         -8.0986         estimate D2E/DX2                !
 ! D232  D(29,31,33,73)       -155.7097         estimate D2E/DX2                !
 ! D233  D(69,31,33,35)        141.2209         estimate D2E/DX2                !
 ! D234  D(69,31,33,73)         -6.3902         estimate D2E/DX2                !
 ! D235  D(29,31,69,67)          8.8484         estimate D2E/DX2                !
 ! D236  D(29,31,69,71)        154.6063         estimate D2E/DX2                !
 ! D237  D(33,31,69,67)       -140.1701         estimate D2E/DX2                !
 ! D238  D(33,31,69,71)          5.5877         estimate D2E/DX2                !
 ! D239  D(30,32,34,36)          9.0267         estimate D2E/DX2                !
 ! D240  D(30,32,34,74)        154.8386         estimate D2E/DX2                !
 ! D241  D(70,32,34,36)       -136.1354         estimate D2E/DX2                !
 ! D242  D(70,32,34,74)          9.6766         estimate D2E/DX2                !
 ! D243  D(30,32,70,68)         -8.8393         estimate D2E/DX2                !
 ! D244  D(30,32,70,72)       -154.8868         estimate D2E/DX2                !
 ! D245  D(34,32,70,68)        136.7517         estimate D2E/DX2                !
 ! D246  D(34,32,70,72)         -9.2958         estimate D2E/DX2                !
 ! D247  D(31,33,35,9)          13.1134         estimate D2E/DX2                !
 ! D248  D(31,33,35,37)       -144.0888         estimate D2E/DX2                !
 ! D249  D(73,33,35,9)         155.7069         estimate D2E/DX2                !
 ! D250  D(73,33,35,37)         -1.4953         estimate D2E/DX2                !
 ! D251  D(31,33,73,71)          4.6789         estimate D2E/DX2                !
 ! D252  D(31,33,73,75)        146.8994         estimate D2E/DX2                !
 ! D253  D(35,33,73,71)       -142.4407         estimate D2E/DX2                !
 ! D254  D(35,33,73,75)         -0.2202         estimate D2E/DX2                !
 ! D255  D(32,34,36,12)        -11.1101         estimate D2E/DX2                !
 ! D256  D(32,34,36,38)        143.7944         estimate D2E/DX2                !
 ! D257  D(74,34,36,12)       -151.2778         estimate D2E/DX2                !
 ! D258  D(74,34,36,38)          3.6267         estimate D2E/DX2                !
 ! D259  D(32,34,74,72)         -6.1818         estimate D2E/DX2                !
 ! D260  D(32,34,74,76)       -149.2402         estimate D2E/DX2                !
 ! D261  D(36,34,74,72)        139.0862         estimate D2E/DX2                !
 ! D262  D(36,34,74,76)         -3.9721         estimate D2E/DX2                !
 ! D263  D(9,35,37,39)          -1.9465         estimate D2E/DX2                !
 ! D264  D(9,35,37,77)        -154.9976         estimate D2E/DX2                !
 ! D265  D(33,35,37,39)        154.4189         estimate D2E/DX2                !
 ! D266  D(33,35,37,77)          1.3678         estimate D2E/DX2                !
 ! D267  D(12,36,38,42)          0.5558         estimate D2E/DX2                !
 ! D268  D(12,36,38,78)        154.3909         estimate D2E/DX2                !
 ! D269  D(34,36,38,42)       -153.6584         estimate D2E/DX2                !
 ! D270  D(34,36,38,78)          0.1767         estimate D2E/DX2                !
 ! D271  D(35,37,39,43)          7.5714         estimate D2E/DX2                !
 ! D272  D(35,37,39,79)       -144.6399         estimate D2E/DX2                !
 ! D273  D(77,37,39,43)        161.0758         estimate D2E/DX2                !
 ! D274  D(77,37,39,79)          8.8646         estimate D2E/DX2                !
 ! D275  D(35,37,77,75)          0.4142         estimate D2E/DX2                !
 ! D276  D(35,37,77,81)        140.5068         estimate D2E/DX2                !
 ! D277  D(39,37,77,75)       -153.2796         estimate D2E/DX2                !
 ! D278  D(39,37,77,81)        -13.187          estimate D2E/DX2                !
 ! D279  D(36,38,42,46)         -3.1018         estimate D2E/DX2                !
 ! D280  D(36,38,42,80)        148.9169         estimate D2E/DX2                !
 ! D281  D(78,38,42,46)       -157.2055         estimate D2E/DX2                !
 ! D282  D(78,38,42,80)         -5.1868         estimate D2E/DX2                !
 ! D283  D(36,38,78,76)         -3.6807         estimate D2E/DX2                !
 ! D284  D(36,38,78,81)       -144.0084         estimate D2E/DX2                !
 ! D285  D(42,38,78,76)        150.7532         estimate D2E/DX2                !
 ! D286  D(42,38,78,81)         10.4255         estimate D2E/DX2                !
 ! D287  D(37,39,43,2)        -147.8452         estimate D2E/DX2                !
 ! D288  D(37,39,43,13)         -2.7519         estimate D2E/DX2                !
 ! D289  D(79,39,43,2)           5.811          estimate D2E/DX2                !
 ! D290  D(79,39,43,13)        150.9042         estimate D2E/DX2                !
 ! D291  D(37,39,79,40)        139.1722         estimate D2E/DX2                !
 ! D292  D(37,39,79,82)          0.0686         estimate D2E/DX2                !
 ! D293  D(43,39,79,40)        -13.9955         estimate D2E/DX2                !
 ! D294  D(43,39,79,82)       -153.0991         estimate D2E/DX2                !
 ! D295  D(44,40,41,45)         -0.6918         estimate D2E/DX2                !
 ! D296  D(44,40,41,80)       -149.1676         estimate D2E/DX2                !
 ! D297  D(79,40,41,45)        147.9891         estimate D2E/DX2                !
 ! D298  D(79,40,41,80)         -0.4867         estimate D2E/DX2                !
 ! D299  D(41,40,44,2)         151.2678         estimate D2E/DX2                !
 ! D300  D(41,40,44,47)         -1.5681         estimate D2E/DX2                !
 ! D301  D(79,40,44,2)           6.8714         estimate D2E/DX2                !
 ! D302  D(79,40,44,47)       -145.9645         estimate D2E/DX2                !
 ! D303  D(41,40,79,39)       -140.535          estimate D2E/DX2                !
 ! D304  D(41,40,79,82)          3.2329         estimate D2E/DX2                !
 ! D305  D(44,40,79,39)          7.8623         estimate D2E/DX2                !
 ! D306  D(44,40,79,82)        151.6303         estimate D2E/DX2                !
 ! D307  D(40,41,45,4)        -149.945          estimate D2E/DX2                !
 ! D308  D(40,41,45,48)          2.4494         estimate D2E/DX2                !
 ! D309  D(80,41,45,4)          -5.81           estimate D2E/DX2                !
 ! D310  D(80,41,45,48)        146.5845         estimate D2E/DX2                !
 ! D311  D(40,41,80,42)        142.1035         estimate D2E/DX2                !
 ! D312  D(40,41,80,82)         -2.453          estimate D2E/DX2                !
 ! D313  D(45,41,80,42)         -5.8409         estimate D2E/DX2                !
 ! D314  D(45,41,80,82)       -150.3974         estimate D2E/DX2                !
 ! D315  D(38,42,46,4)         147.3839         estimate D2E/DX2                !
 ! D316  D(38,42,46,14)          2.4046         estimate D2E/DX2                !
 ! D317  D(80,42,46,4)          -6.1303         estimate D2E/DX2                !
 ! D318  D(80,42,46,14)       -151.1097         estimate D2E/DX2                !
 ! D319  D(38,42,80,41)       -141.7283         estimate D2E/DX2                !
 ! D320  D(38,42,80,82)         -1.7834         estimate D2E/DX2                !
 ! D321  D(46,42,80,41)         11.6269         estimate D2E/DX2                !
 ! D322  D(46,42,80,82)        151.5718         estimate D2E/DX2                !
 ! D323  D(2,44,47,48)        -149.4294         estimate D2E/DX2                !
 ! D324  D(2,44,47,49)           4.5202         estimate D2E/DX2                !
 ! D325  D(40,44,47,48)          2.007          estimate D2E/DX2                !
 ! D326  D(40,44,47,49)        155.9566         estimate D2E/DX2                !
 ! D327  D(4,45,48,47)         148.9112         estimate D2E/DX2                !
 ! D328  D(4,45,48,50)          -4.393          estimate D2E/DX2                !
 ! D329  D(41,45,48,47)         -1.968          estimate D2E/DX2                !
 ! D330  D(41,45,48,50)       -155.2721         estimate D2E/DX2                !
 ! D331  D(44,47,48,45)         -0.2561         estimate D2E/DX2                !
 ! D332  D(44,47,48,50)        152.8363         estimate D2E/DX2                !
 ! D333  D(49,47,48,45)       -153.9112         estimate D2E/DX2                !
 ! D334  D(49,47,48,50)         -0.8188         estimate D2E/DX2                !
 ! D335  D(44,47,49,10)         -3.9186         estimate D2E/DX2                !
 ! D336  D(44,47,49,51)       -148.0403         estimate D2E/DX2                !
 ! D337  D(48,47,49,10)        150.4386         estimate D2E/DX2                !
 ! D338  D(48,47,49,51)          6.3169         estimate D2E/DX2                !
 ! D339  D(45,48,50,11)          7.0655         estimate D2E/DX2                !
 ! D340  D(45,48,50,52)        147.771          estimate D2E/DX2                !
 ! D341  D(47,48,50,11)       -146.9674         estimate D2E/DX2                !
 ! D342  D(47,48,50,52)         -6.2619         estimate D2E/DX2                !
 ! D343  D(10,49,51,52)       -153.5049         estimate D2E/DX2                !
 ! D344  D(10,49,51,55)         -1.2345         estimate D2E/DX2                !
 ! D345  D(47,49,51,52)         -4.6163         estimate D2E/DX2                !
 ! D346  D(47,49,51,55)        147.6542         estimate D2E/DX2                !
 ! D347  D(11,50,52,51)        154.4104         estimate D2E/DX2                !
 ! D348  D(11,50,52,56)          8.2157         estimate D2E/DX2                !
[...]
 Alpha virt. eigenvalues --    1.13168   1.13278   1.13710   1.13920   1.14204
 Alpha virt. eigenvalues --    1.14432   1.14501   1.14680   1.15302   1.15428
 Alpha virt. eigenvalues --    1.16001   1.16192   1.16392   1.16434   1.16714
 Alpha virt. eigenvalues --    1.17179   1.17317   1.17629   1.17714   1.17935
 Alpha virt. eigenvalues --    1.18332   1.18592   1.18786   1.19299   1.19507
 Alpha virt. eigenvalues --    1.19683   1.20106   1.20306   1.20413   1.20582
 Alpha virt. eigenvalues --    1.21007   1.21688   1.21995   1.22132   1.22400
 Alpha virt. eigenvalues --    1.22712   1.22894   1.23129   1.23473   1.23755
 Alpha virt. eigenvalues --    1.24402   1.24577   1.24699   1.25276   1.25568
 Alpha virt. eigenvalues --    1.25813   1.26376   1.26620   1.26850   1.27040
 Alpha virt. eigenvalues --    1.27316   1.27636   1.27862   1.28272   1.28535
 Alpha virt. eigenvalues --    1.28737   1.29250   1.29499   1.29603   1.30055
 Alpha virt. eigenvalues --    1.30249   1.30463   1.30974   1.31233   1.32010
 Alpha virt. eigenvalues --    1.32133   1.32394   1.32515   1.33155   1.33212
 Alpha virt. eigenvalues --    1.33327   1.33979   1.34338   1.34453   1.35172
 Alpha virt. eigenvalues --    1.35325   1.35531   1.35918   1.37158   1.37418
 Alpha virt. eigenvalues --    1.37940   1.38616   1.39059   1.39449   1.39622
 Alpha virt. eigenvalues --    1.39985   1.40852   1.41469   1.42056   1.42079
 Alpha virt. eigenvalues --    1.42705   1.43666   1.44329   1.44568   1.44795
 Alpha virt. eigenvalues --    1.45543   1.46264   1.46382   1.47381   1.47721
 Alpha virt. eigenvalues --    1.48502   1.48807   1.49244   1.49523   1.50532
 Alpha virt. eigenvalues --    1.50722   1.51279   1.51968   1.52723   1.53303
 Alpha virt. eigenvalues --    1.53307   1.53728   1.54128   1.54818   1.55194
 Alpha virt. eigenvalues --    1.55422   1.55894   1.56457   1.56794   1.57573
 Alpha virt. eigenvalues --    1.57846   1.58201   1.58762   1.58951   1.59609
 Alpha virt. eigenvalues --    1.59658   1.60334   1.60980   1.61221   1.62032
 Alpha virt. eigenvalues --    1.62600   1.63368   1.63624   1.64203   1.64653
 Alpha virt. eigenvalues --    1.64996   1.65264   1.65423   1.65613   1.65983
 Alpha virt. eigenvalues --    1.66222   1.66470   1.66580   1.66737   1.67117
 Alpha virt. eigenvalues --    1.67414   1.67678   1.67958   1.68424   1.68807
 Alpha virt. eigenvalues --    1.69015   1.69443   1.69743   1.69964   1.70239
 Alpha virt. eigenvalues --    1.70572   1.70615   1.70935   1.71187   1.71313
 Alpha virt. eigenvalues --    1.71446   1.71570   1.71921   1.72354   1.72641
 Alpha virt. eigenvalues --    1.72847   1.72932   1.73076   1.73098   1.73590
 Alpha virt. eigenvalues --    1.73701   1.74079   1.74223   1.74448   1.74708
 Alpha virt. eigenvalues --    1.74959   1.75187   1.75418   1.75945   1.76080
 Alpha virt. eigenvalues --    1.76231   1.76399   1.76579   1.76731   1.77062
 Alpha virt. eigenvalues --    1.77414   1.77563   1.77746   1.77869   1.78231
 Alpha virt. eigenvalues --    1.78569   1.79013   1.79270   1.79476   1.79892
 Alpha virt. eigenvalues --    1.80280   1.80631   1.81166   1.81512   1.82080
 Alpha virt. eigenvalues --    1.82474   1.82905   1.83621   1.83766   1.84282
 Alpha virt. eigenvalues --    1.84666   1.85325   1.85823   1.86124   1.86610
 Alpha virt. eigenvalues --    1.86699   1.86875   1.88191   1.88977   1.89660
 Alpha virt. eigenvalues --    1.90310   1.91120   1.91594   1.91912   1.92061
 Alpha virt. eigenvalues --    1.92458   1.92707   1.92962   1.93487   1.93900
 Alpha virt. eigenvalues --    1.94431   1.94825   1.95178   1.95482   1.95790
 Alpha virt. eigenvalues --    1.96171   1.96320   1.96501   1.96801   1.97018
 Alpha virt. eigenvalues --    1.97525   1.97739   1.98121   1.98333   1.98648
 Alpha virt. eigenvalues --    1.98690   1.99040   1.99185   1.99281   1.99697
 Alpha virt. eigenvalues --    1.99758   2.00021   2.00148   2.00258   2.00511
 Alpha virt. eigenvalues --    2.00645   2.00950   2.01286   2.01355   2.01639
 Alpha virt. eigenvalues --    2.01762   2.01980   2.02087   2.02328   2.02473
 Alpha virt. eigenvalues --    2.02812   2.03014   2.03371   2.03494   2.03697
 Alpha virt. eigenvalues --    2.03785   2.04084   2.04272   2.04602   2.04734
 Alpha virt. eigenvalues --    2.05039   2.05520   2.05833   2.06090   2.06318
 Alpha virt. eigenvalues --    2.07286   2.07418   2.08338   2.08526   2.09349
 Alpha virt. eigenvalues --    2.09602   2.09710   2.10330   2.10478   2.10907
 Alpha virt. eigenvalues --    2.11668   2.12559   2.12855   2.13398   2.13508
 Alpha virt. eigenvalues --    2.13755   2.14197   2.14704   2.15375   2.15645
 Alpha virt. eigenvalues --    2.16005   2.16976   2.17276   2.17643   2.18195
 Alpha virt. eigenvalues --    2.18745   2.19635   2.20004   2.20526   2.20871
 Alpha virt. eigenvalues --    2.21061   2.21708   2.21809   2.22233   2.22460
 Alpha virt. eigenvalues --    2.22593   2.22780   2.23269   2.23847   2.24725
 Alpha virt. eigenvalues --    2.24936   2.25139   2.25442   2.25564   2.26721
 Alpha virt. eigenvalues --    2.26855   2.27291   2.27646   2.28019   2.28280
 Alpha virt. eigenvalues --    2.28828   2.29233   2.29372   2.29836   2.30267
 Alpha virt. eigenvalues --    2.30378   2.30511   2.30895   2.31625   2.31912
 Alpha virt. eigenvalues --    2.32181   2.32899   2.33109   2.33572   2.34354
 Alpha virt. eigenvalues --    2.34997   2.35487   2.35644   2.37305   2.37639
 Alpha virt. eigenvalues --    2.38233   2.38518   2.39503   2.40288   2.40573
 Alpha virt. eigenvalues --    2.40843   2.41348   2.41565   2.42373   2.42487
 Alpha virt. eigenvalues --    2.43322   2.43797   2.44196   2.44704   2.45031
 Alpha virt. eigenvalues --    2.45507   2.46145   2.46442   2.47166   2.47448
 Alpha virt. eigenvalues --    2.47933   2.49062   2.50081   2.51019   2.51146
 Alpha virt. eigenvalues --    2.51509   2.52139   2.52383   2.52545   2.52895
 Alpha virt. eigenvalues --    2.53519   2.53746   2.54289   2.54739   2.55505
 Alpha virt. eigenvalues --    2.55633   2.55994   2.56036   2.56560   2.56643
 Alpha virt. eigenvalues --    2.57325   2.57504   2.57904   2.57933   2.58330
 Alpha virt. eigenvalues --    2.58652   2.58802   2.59086   2.59327   2.59418
 Alpha virt. eigenvalues --    2.59642   2.59883   2.59975   2.60426   2.60644
 Alpha virt. eigenvalues --    2.60914   2.61315   2.61929   2.62175   2.62658
 Alpha virt. eigenvalues --    2.63316   2.63379   2.64013   2.64051   2.64252
 Alpha virt. eigenvalues --    2.64860   2.65294   2.65920   2.65978   2.66228
 Alpha virt. eigenvalues --    2.66572   2.66738   2.67093   2.67488   2.67949
 Alpha virt. eigenvalues --    2.68085   2.68327   2.68890   2.69065   2.69695
 Alpha virt. eigenvalues --    2.69952   2.70131   2.70418   2.70898   2.71591
 Alpha virt. eigenvalues --    2.71762   2.72021   2.72787   2.73453   2.73838
 Alpha virt. eigenvalues --    2.74689   2.75289   2.76181   2.76326   2.76398
 Alpha virt. eigenvalues --    2.76853   2.77949   2.78421   2.78769   2.79288
 Alpha virt. eigenvalues --    2.79501   2.80191   2.80329   2.80994   2.81454
 Alpha virt. eigenvalues --    2.81635   2.81886   2.82385   2.82459   2.82677
 Alpha virt. eigenvalues --    2.82889   2.83558   2.83925   2.84536   2.84996
 Alpha virt. eigenvalues --    2.85246   2.85382   2.86042   2.86548   2.87326
 Alpha virt. eigenvalues --    2.87722   2.88618   2.89451   2.89802   2.90202
 Alpha virt. eigenvalues --    2.90767   2.91256   2.91392   2.91855   2.91956
 Alpha virt. eigenvalues --    2.92096   2.92576   2.93024   2.93223   2.93551
 Alpha virt. eigenvalues --    2.94080   2.94265   2.94826   2.95308   2.95955
 Alpha virt. eigenvalues --    2.96475   2.97386   2.98023   2.98374   2.98850
 Alpha virt. eigenvalues --    2.99794   3.01123   3.01742   3.02583   3.02987
 Alpha virt. eigenvalues --    3.03801   3.05980   3.06813   3.06971   3.09969
 Alpha virt. eigenvalues --    3.10850   3.13642   3.14316   3.16424   3.16817
 Alpha virt. eigenvalues --    3.17200   3.18018   3.19636   3.22646   3.23047
 Alpha virt. eigenvalues --    3.25613   3.26415   3.29238   3.30142   3.30885
 Alpha virt. eigenvalues --    3.33106   3.34555   3.35657   3.36641   3.37038
 Alpha virt. eigenvalues --    3.39388   3.40684   3.41561   3.42636   3.45313
 Alpha virt. eigenvalues --    3.46705   3.48391   3.52425   3.52738   3.54607
 Alpha virt. eigenvalues --    3.54819   3.57406   3.61956   4.01307   4.01565
 Alpha virt. eigenvalues --    4.01853   4.02249   4.03164   4.04382   4.04623
 Alpha virt. eigenvalues --    4.04790   4.05154   4.06661   4.06910   4.07149
 Alpha virt. eigenvalues --    4.07285   4.07361   4.07930   4.08329   4.09852
 Alpha virt. eigenvalues --    4.10776   4.11622   4.11759   4.12456   4.12673
 Alpha virt. eigenvalues --    4.13228   4.14934   4.15726   4.17217   4.18187
 Alpha virt. eigenvalues --    4.19392   4.20390   4.20782   4.21305   4.21658
 Alpha virt. eigenvalues --    4.21955   4.22423   4.23114   4.23997   4.27027
 Alpha virt. eigenvalues --    4.28011   4.28780   4.29299   4.29398   4.30138
 Alpha virt. eigenvalues --    4.31032   4.31950   4.33911   4.35068   4.38090
 Alpha virt. eigenvalues --    4.39155   4.41308   4.41541   4.42506   4.44517
 Alpha virt. eigenvalues --    4.45074   4.48961   4.49337   4.49591   4.52393
 Alpha virt. eigenvalues --    4.53076   4.55492   4.56725   4.57519   4.58218
 Alpha virt. eigenvalues --    4.61172   4.63473   4.65262   4.67221   4.67478
 Alpha virt. eigenvalues --    4.68911   4.69235   4.73293   4.78071   4.83142
 Alpha virt. eigenvalues --    4.84519   4.84707   4.87204   4.90922   4.92139
 Alpha virt. eigenvalues --    4.93522   4.97745   5.05908   5.09368   5.12732
 Alpha virt. eigenvalues --    5.16887   5.18344   5.23215   5.25477
          Condensed to atoms (all electrons):
 Mulliken charges:
               1
     1  C    0.003402
     2  C   -0.019716
     3  C   -0.024786
     4  C   -0.021002
     5  C    0.036383
     6  C   -0.022505
     7  C   -0.018173
     8  C   -0.016025
     9  C    0.044970
    10  C    0.029349
    11  C   -0.004646
    12  C    0.053207
    13  C   -0.025947
    14  C   -0.029244
    15  C   -0.022663
    16  C   -0.023833
    17  C    0.023781
    18  C    0.057891
    19  C    0.094884
    20  C    0.056431
    21  C   -0.352120
    22  C   -0.022633
    23  C    0.079565
    24  C   -0.015756
    25  C   -0.005992
    26  C   -0.005147
    27  C   -0.019233
    28  C   -0.022659
    29  C    0.051283
    30  C   -0.016364
    31  C   -0.035423
    32  C   -0.010703
    33  C   -0.024573
    34  C   -0.023671
    35  C    0.039106
    36  C    0.044729
    37  C    0.045896
    38  C    0.044422
    39  C    0.052284
    40  C   -0.031623
    41  C   -0.029485
    42  C    0.054526
    43  C   -0.034869
    44  C    0.054406
    45  C    0.050287
    46  C   -0.031941
    47  C    0.035878
    48  C    0.044933
    49  C    0.004887
    50  C   -0.021254
    51  C    0.070490
    52  C    0.001361
    53  C    0.088346
    54  C   -0.017561
    55  C   -0.351524
    56  C   -0.033443
    57  C    0.100211
    58  C   -0.028370
    59  C    0.089352
    60  C   -0.032354
    61  C   -0.036043
    62  C   -0.021245
    63  C   -0.023063
    64  C    0.051051
    65  C   -0.031968
    66  C    0.045899
    67  C    0.051777
    68  C    0.046158
    69  C   -0.020227
    70  C   -0.026361
    71  C   -0.010695
    72  C    0.003973
    73  C   -0.010219
    74  C   -0.006861
    75  C   -0.000766
    76  C   -0.003726
    77  C   -0.026286
    78  C   -0.023933
    79  C   -0.021013
    80  C   -0.020623
    81  C   -0.000407
    82  C   -0.023515
    83  C    0.100648
    84  C    0.088125
    85  Cl  -0.017596
    86  Cl  -0.020101
 Sum of Mulliken charges =  -0.00000
 Mulliken charges with hydrogens summed into heavy atoms:
               1
     1  C    0.003402
     2  C   -0.019716
     3  C   -0.024786
     4  C   -0.021002
     5  C    0.036383
     6  C   -0.022505
     7  C   -0.018173
     8  C   -0.016025
     9  C    0.044970
    10  C    0.029349
    11  C   -0.004646
    12  C    0.053207
    13  C   -0.025947
    14  C   -0.029244
    15  C   -0.022663
    16  C   -0.023833
    17  C    0.023781
    18  C    0.057891
    19  C    0.094884
    20  C    0.056431
    21  C   -0.352120
    22  C   -0.022633
    23  C    0.079565
    24  C   -0.015756
    25  C   -0.005992
    26  C   -0.005147
    27  C   -0.019233
    28  C   -0.022659
    29  C    0.051283
    30  C   -0.016364
    31  C   -0.035423
    32  C   -0.010703
    33  C   -0.024573
    34  C   -0.023671
    35  C    0.039106
    36  C    0.044729
    37  C    0.045896
    38  C    0.044422
    39  C    0.052284
    40  C   -0.031623
    41  C   -0.029485
    42  C    0.054526
    43  C   -0.034869
    44  C    0.054406
    45  C    0.050287
    46  C   -0.031941
    47  C    0.035878
    48  C    0.044933
    49  C    0.004887
    50  C   -0.021254
    51  C    0.070490
    52  C    0.001361
    53  C    0.088346
    54  C   -0.017561
    55  C   -0.351524
    56  C   -0.033443
    57  C    0.100211
    58  C   -0.028370
    59  C    0.089352
    60  C   -0.032354
    61  C   -0.036043
    62  C   -0.021245
    63  C   -0.023063
    64  C    0.051051
    65  C   -0.031968
    66  C    0.045899
    67  C    0.051777
    68  C    0.046158
    69  C   -0.020227
    70  C   -0.026361
    71  C   -0.010695
    72  C    0.003973
    73  C   -0.010219
    74  C   -0.006861
    75  C   -0.000766
    76  C   -0.003726
    77  C   -0.026286
    78  C   -0.023933
    79  C   -0.021013
    80  C   -0.020623
    81  C   -0.000407
    82  C   -0.023515
    83  C    0.100648
    84  C    0.088125
    85  Cl  -0.017596
    86  Cl  -0.020101
 Electronic spatial extent (au):  <R**2>=          37627.7774
 Charge=              0.0000 electrons
 Dipole moment (field-independent basis, Debye):
    X=              3.6225    Y=              0.0299    Z=              0.6453  Tot=              3.6796
 Quadrupole moment (field-independent basis, Debye-Ang):
   XX=           -498.5467   YY=           -478.6623   ZZ=           -477.4211
   XY=             -2.1338   XZ=             -3.7638   YZ=             -2.0866
 Traceless Quadrupole moment (field-independent basis, Debye-Ang):
   XX=            -13.6700   YY=              6.2144   ZZ=              7.4556
   XY=             -2.1338   XZ=             -3.7638   YZ=             -2.0866
 Octapole moment (field-independent basis, Debye-Ang**2):
  XXX=             72.9795  YYY=             -2.2984  ZZZ=            -10.1124  XYY=            -13.2708
  XXY=              0.3636  XXZ=             13.1048  XZZ=            -26.8605  YZZ=             -1.4348
  YYZ=              2.8038  XYZ=              6.2808
 Hexadecapole moment (field-independent basis, Debye-Ang**3):
 XXXX=         -23629.1328 YYYY=         -16581.2639 ZZZZ=         -16052.7297 XXXY=             -1.7496
 XXXZ=             -7.4528 YYYX=             -0.4839 YYYZ=             -7.5098 ZZZX=             22.4458
 ZZZY=             19.3214 XXYY=          -6672.1405 XXZZ=          -6490.5010 YYZZ=          -5428.8532
 XXYZ=            -27.1511 YYXZ=             -8.2997 ZZXY=            -12.6753
 N-N= 1.559395600665D+04 E-N=-4.078138216600D+04  KE= 4.088625518861D+03
 No NMR shielding tensors so no spin-rotation constants.
 Leave Link  601 at Wed Jun 29 06:52:17 2022, MaxMem=  1342177280 cpu:              22.2 elap:               1.1
 (Enter /home/mkliu/g16/l9999.exe)
 1\1\GINC-NODE04\FOpt\RB3LYP\6-31G(d,p)\C84Cl2\MKLIU\29-Jun-2022\0\\#P 
 opt b3lyp/6-31G(d, p) empiricaldispersion=GD3\\force\\0,1\C,8.51403289
 69,18.8954010173,10.7505694773\C,12.3924693113,20.1333850236,8.9095787
 661\C,8.2543805702,26.9248559826,10.5362942826\C,12.2988007734,25.6043
 075338,8.9437848154\C,8.0295209851,19.0955722853,9.4279381622\C,12.055
 4519363,19.4981741848,10.1562579386\C,7.9477786091,26.8908952369,9.142
 0597652\C,11.8603841447,26.1677193739,10.1994322809\C,8.9976907898,19.
 1727798789,8.3315270123\C,12.3004802514,20.1556159562,11.3487502134\C,
 12.1222315835,25.5051705649,11.3665007679\C,8.9508173509,26.7026105038
 ,8.1497927725\C,10.3616672319,19.0037148522,8.6444519409\C,10.28442869
 3,26.7526865916,8.620815419\C,10.8181101101,18.7883517325,9.9857048309
 \C,10.5959466359,26.8540857252,10.0026926048\C,9.9051686676,18.7643837
 96,11.0348473395\C,9.5876857248,26.8285515527,11.0076079287\C,10.20457
 71729,19.3910049967,12.2959145935\C,9.8508791135,26.0913331486,12.2500
 51927\C,8.9251555612,19.8309835725,12.971965407\C,8.7682422627,25.4668
 197364,12.9089797168\C,7.8982597688,19.5139922491,11.8901247167\C,7.42
 32318393,25.544205686,12.3796565123\C,6.7657642304,20.2480529918,11.73
 99482281\C,7.1650904693,26.257190753,11.2356219044\C,6.1356625748,20.3
 416246069,10.4535751893\C,6.2144350859,25.7581211377,10.2667181468\C,6
 .7483879178,19.7696644525,9.3022619216\C,6.6516653337,26.2573770768,8.
 9980333763\C,6.4092587583,20.3570868411,8.0728114339\C,6.3468611654,25
 .5809458199,7.8461360088\C,7.3393350022,20.3560044184,6.9535249044\C,7
 .3125153434,25.492057773,6.7626676749\C,8.6673784901,19.902930503,7.10
 25342583\C,8.6475911413,25.9338687561,6.9338674568\C,9.7180280852,20.5
 919828884,6.3435319234\C,9.7140840837,25.1820190362,6.2659001462\C,11.
 0894380926,20.5743821111,6.8472239298\C,12.808727664,22.1593172918,7.6
 923983565\C,12.7934169981,23.6163061981,7.6988758759\C,11.0702206644,2
 5.1962278998,6.8298423514\C,11.3924504417,19.7629385898,7.9538901876\C
 ,13.0021521884,21.4232480413,8.8783331269\C,12.9582337986,24.340295565
 6,8.8971067255\C,11.3417142245,25.9907595927,7.9615048113\C,13.2303098
 568,22.1489000443,10.1311911\C,13.2061184885,23.6051414093,10.13952400
 64\C,12.9065234739,21.4704144085,11.3398615215\C,12.8458839148,24.2492
 834754,11.3493649775\C,12.4491322047,22.1533884339,12.4945140735\C,12.
 3909304416,23.5165514337,12.4843589457\C,11.3757913191,20.070956495,12
 .4484747516\C,11.1220713853,25.4642839146,12.4296593422\C,11.477759632
 4,21.3110214548,13.3097363601\C,11.2633769395,24.2239701779,13.0933325
 727\C,8.9311375288,21.3285173148,13.321612003\C,8.9045792465,24.169964
 5026,13.5033237307\C,7.6644687886,22.0521544181,13.2052169518\C,7.6682
 186711,23.4505101132,13.3260541563\C,6.58811623,21.5081863598,12.44266
 45347\C,6.754714631,24.2867521079,12.596583883\C,5.7711823689,22.32553
 25105,11.6275583154\C,5.8745473808,23.7445458315,11.6271108297\C,5.473
 7775173,21.6024078949,10.3969531056\C,5.6164389026,24.4777403762,10.38
 88027004\C,5.2610489152,22.2752390164,9.1776883064\C,5.297482941,23.74
 48418255,9.1572998213\C,5.6057634547,21.5406713257,8.0006174646\C,5.58
 57720746,24.3609355301,7.9157361501\C,5.9432847535,22.2149852956,6.776
 5341186\C,5.9346861544,23.5945918451,6.736720495\C,7.0003074892,21.468
 8158484,6.1193600702\C,6.9903506818,24.3046466169,6.0302758957\C,7.999
 8040223,22.1406607202,5.4303969706\C,7.9985996745,23.5975420516,5.3929
 15528\C,9.3484676661,21.6863558494,5.5211355671\C,9.3504269235,24.0582
 944798,5.4803348901\C,11.9315279875,21.7080402714,6.6616573382\C,11.91
 66346608,24.0603177638,6.666367203\C,10.191393462,22.8716209608,5.4290
 60164\C,11.4365733947,22.879945112,5.990580708\C,10.1251955248,22.0200
 33161,13.48079196\C,10.1338727221,23.4822959825,13.5460697686\Cl,8.578
 1315977,18.8566430484,14.5142937584\Cl,12.1722336742,20.9350528717,14.
 9915311165\\Version=ES64L-G16RevA.03\State=1-A\HF=-4121.4244846\RMSD=8
 .284e-09\RMSF=6.985e-05\Dipole=-0.2331491,0.5828667,-1.3044821\Quadrup
 ole=4.1272623,2.5869013,-6.7141636,0.0015543,-1.4533592,7.3430823\PG=C
 01 [X(C84Cl2)]\\@


 ABALONE: AN EXPRESSION OF DISBELIEF.
 Job cpu time:       0 days 22 hours  4 minutes  9.2 seconds.
 Elapsed time:       0 days  0 hours 55 minutes 15.5 seconds.
 File lengths (MBytes):  RWF=   1037 Int=      0 D2E=      0 Chk=    131 Scr=      1
 Normal termination of Gaussian 16 at Wed Jun 29 06:52:19 2022.
