 Entering Gaussian System, Link 0=g16
 Input=4_addons_C84_11_Cl22_rank_2.gjf
 Output=4_addons_C84_11_Cl22_rank_2.log
 Initial command:
 /home/mkliu/g16/l1.exe "/data/scratch/Gau-2037.inp" -scrdir="/data/scratch/"
 Entering Link 1 = /home/mkliu/g16/l1.exe PID=      2038.
  
 Copyright (c) 1988,1990,1992,1993,1995,1998,2003,2009,2016,
            Gaussian, Inc.  All Rights Reserved.
  
 This is part of the Gaussian(R) 16 program.  It is based on
 the Gaussian(R) 09 system (copyright 2009, Gaussian, Inc.),
 the Gaussian(R) 03 system (copyright 2003, Gaussian, Inc.),
 the Gaussian(R) 98 system (copyright 1998, Gaussian, Inc.),
 the Gaussian(R) 94 system (copyright 1995, Gaussian, Inc.),
 the Gaussian 92(TM) system (copyright 1992, Gaussian, Inc.),
 the Gaussian 90(TM) system (copyright 1990, Gaussian, Inc.),
 the Gaussian 88(TM) system (copyright 1988, Gaussian, Inc.),
 the Gaussian 86(TM) system (copyright 1986, Carnegie Mellon
 University), and the Gaussian 82(TM) system (copyright 1983,
 Carnegie Mellon University). Gaussian is a federally registered
 trademark of Gaussian, Inc.
  
 This software contains proprietary and confidential information,
 including trade secrets, belonging to Gaussian, Inc.
  
 This software is provided under written license and may be
 used, copied, transmitted, or stored only in accord with that
 written license.
  
 The following legend is applicable only to US Government
 contracts under FAR:
  
                    RESTRICTED RIGHTS LEGEND
  
 Use, reproduction and disclosure by the US Government is
 subject to restrictions as set forth in subparagraphs (a)
 and (c) of the Commercial Computer Software - Restricted
 Rights clause in FAR 52.227-19.
  
 Gaussian, Inc.
 340 Quinnipiac St., Bldg. 40, Wallingford CT 06492
  
  
 ---------------------------------------------------------------
 Warning -- This program may not be used in any manner that
 competes with the business of Gaussian, Inc. or will provide
 assistance to any competitor of Gaussian, Inc.  The licensee
 of this program is prohibited from giving any competitor of
 Gaussian, Inc. access to this program.  By using this program,
 the user acknowledges that Gaussian, Inc. is engaged in the
 business of creating and licensing software in the field of
 computational chemistry and represents and warrants to the
 licensee that it is not a competitor of Gaussian, Inc. and that
 it will not use this program in any manner prohibited above.
 ---------------------------------------------------------------
  

 Cite this work as:
 Gaussian 16, Revision A.03,
 M. J. Frisch, G. W. Trucks, H. B. Schlegel, G. E. Scuseria, 
 M. A. Robb, J. R. Cheeseman, G. Scalmani, V. Barone, 
 G. A. Petersson, H. Nakatsuji, X. Li, M. Caricato, A. V. Marenich, 
 J. Bloino, B. G. Janesko, R. Gomperts, B. Mennucci, H. P. Hratchian, 
 J. V. Ortiz, A. F. Izmaylov, J. L. Sonnenberg, D. Williams-Young, 
 F. Ding, F. Lipparini, F. Egidi, J. Goings, B. Peng, A. Petrone, 
 T. Henderson, D. Ranasinghe, V. G. Zakrzewski, J. Gao, N. Rega, 
 G. Zheng, W. Liang, M. Hada, M. Ehara, K. Toyota, R. Fukuda, 
 J. Hasegawa, M. Ishida, T. Nakajima, Y. Honda, O. Kitao, H. Nakai, 
 T. Vreven, K. Throssell, J. A. Montgomery, Jr., J. E. Peralta, 
 F. Ogliaro, M. J. Bearpark, J. J. Heyd, E. N. Brothers, K. N. Kudin, 
 V. N. Staroverov, T. A. Keith, R. Kobayashi, J. Normand, 
 K. Raghavachari, A. P. Rendell, J. C. Burant, S. S. Iyengar, 
 J. Tomasi, M. Cossi, J. M. Millam, M. Klene, C. Adamo, R. Cammi, 
 J. W. Ochterski, R. L. Martin, K. Morokuma, O. Farkas, 
 J. B. Foresman, and D. J. Fox, Gaussian, Inc., Wallingford CT, 2016.
 
 ******************************************
 Gaussian 16:  ES64L-G16RevA.03 25-Dec-2016
                27-Jun-2022 
 ******************************************
 %mem=10GB
 %chk=4_addons_C84_11_Cl22_rank_2.chk
 %nprocshared=24
 Will use up to   24 processors via shared memory.
 ------------------------------------------------
 #P opt b3lyp/6-31G(d, p) empiricaldispersion=GD3
 ------------------------------------------------
 1/18=20,19=15,26=3,38=1/1,3;
 2/9=110,12=2,17=6,18=5,40=1/2;
 3/5=1,6=6,7=101,11=2,25=1,30=1,71=1,74=-5,124=31/1,2,3;
 4//1;
 5/5=2,38=5/2;
 6/7=2,8=2,9=2,10=2,28=1/1;
 7//1,2,3,16;
 1/18=20,19=15,26=3/3(2);
 2/9=110/2;
 99//99;
 2/9=110/2;
 3/5=1,6=6,7=101,11=2,25=1,30=1,71=1,74=-5,124=31/1,2,3;
 4/5=5,16=3,69=1/1;
 5/5=2,38=5/2;
 7//1,2,3,16;
 1/18=20,19=15,26=3/3(-5);
 2/9=110/2;
 6/7=2,8=2,9=2,10=2,19=2,28=1/1;
 99/9=1/99;
 Leave Link    1 at Mon Jun 27 13:20:48 2022, MaxMem=  1342177280 cpu:               0.7 elap:               0.0
 (Enter /home/mkliu/g16/l101.exe)
 -----
 force
 -----
 Symbolic Z-matrix:
 Charge =  0 Multiplicity = 1
 C                     8.48527   18.86807   10.75463 
 C                     12.35018   20.15913   8.95434 
 C                     8.25278   26.86355   10.52906 
 C                     12.46651   25.74525   8.91304 
 C                     8.01462   19.0961   9.44639 
 C                     12.0311   19.51581   10.2046 
 C                     7.94489   26.83777   9.14547 
 C                     11.85783   26.15995   10.21818 
 C                     8.98159   19.19581   8.36822 
 C                     12.3167   20.14129   11.38709 
 C                     12.11599   25.50999   11.379 
 C                     8.93487   26.62966   8.15978 
 C                     10.3358   19.03608   8.68801 
 C                     10.26139   26.65414   8.63029 
 C                     10.79092   18.81382   10.02123 
 C                     10.58169   26.76072   10.00748 
 C                     9.87055   18.74713   11.04962 
 C                     9.57812   26.76064   11.00184 
 C                     10.1462   19.44047   12.27979 
 C                     9.84002   26.04238   12.22178 
 C                     8.9333    20.00685   12.76666 
 C                     8.76292   25.41829   12.8914 
 C                     7.89069   19.53517   11.88893 
 C                     7.42899   25.49992   12.36549 
 C                     6.7457    20.26356   11.73383 
 C                     7.17242   26.21156   11.22354 
 C                     6.12331   20.34979   10.45096 
 C                     6.21892   25.71995   10.26337 
 C                     6.74729   19.77651   9.31863 
 C                     6.65336   26.22369   9.00333 
 C                     6.42178   20.37359   8.09704 
 C                     6.346     25.55237   7.85068 
 C                     7.34427   20.36639   6.99057 
 C                     7.30331   25.4626   6.77728 
 C                     8.66122   19.91931   7.1475 
 C                     8.6369    25.88317   6.9621 
 C                     9.69788   20.60206   6.39717 
 C                     9.69291   25.13893   6.31346 
 C                     11.03998   20.60689   6.90462 
 C                     12.70128   22.19847   7.77873 
 C                     12.72959   23.60491   7.77404 
 C                     11.02626   25.17335   6.86894 
 C                     11.35496   19.80831   8.01961 
 C                     12.90866   21.46394   8.95555 
 C                     12.87681   24.2953   8.95064 
 C                     11.29649   25.94062   7.96411 
 C                     13.14612   22.18303   10.16401 
 C                     13.10026   23.57506   10.15885 
 C                     13.14742   21.3971   11.46573 
 C                     13.05727   24.34072   11.47133 
 C                     12.41404   22.16326   12.53046 
 C                     12.37591   23.51467   12.52307 
 C                     11.33556   20.13819   12.42174 
 C                     11.09499   25.42069   12.37526 
 C                     11.32099   21.41363   13.05796 
 C                     11.23398   24.17693   13.04761 
 C                     8.8819    21.29096   13.33946 
 C                     8.89083   24.14413   13.49125 
 C                     7.63988   22.03023   13.20898 
 C                     7.65309   23.42786   13.31381 
 C                     6.58394   21.50773   12.42647 
 C                     6.75682   24.25346   12.58146 
 C                     5.76665   22.32813   11.60769 
 C                     5.87176   23.72744   11.60957 
 C                     5.47524   21.61039   10.39025 
 C                     5.62026   24.45408   10.3803 
 C                     5.26527   22.2826   9.17843 
 C                     5.30212   23.73297   9.15991 
 C                     5.61938   21.54786   8.01908 
 C                     5.58718   24.34231   7.92496 
 C                     5.94865   22.21033   6.79594 
 C                     5.9322    23.58592   6.74919 
 C                     7.00477   21.47202   6.15403 
 C                     6.97816   24.2886   6.04857 
 C                     7.99629   22.14144   5.46547 
 C                     7.99326   23.58424   5.41625 
 C                     9.34173   21.69271   5.57692 
 C                     9.33198   24.04372   5.5026 
 C                     11.8582   21.73926   6.72125 
 C                     12.05614   24.12799   6.5225 
 C                     10.17399   22.86049   5.46088 
 C                     11.42249   22.87292   6.00122 
 C                     10.12427   22.01801   13.49404 
 C                     10.11605   23.45686   13.53469 
 Cl                    13.87605   26.77196   8.43937 
 Cl                    13.2637   24.81724   5.3631 
 Cl                    14.73566   24.82692   11.92134 
 Cl                    14.86285   21.02834   11.91555 
 
 ITRead=  0  0  0  0  0  0  0  0  0  0  0  0  0  0  0  0  0  0  0  0
 ITRead=  0  0  0  0  0  0  0  0  0  0  0  0  0  0  0  0  0  0  0  0
 ITRead=  0  0  0  0  0  0  0  0  0  0  0  0  0  0  0  0  0  0  0  0
 ITRead=  0  0  0  0  0  0  0  0  0  0  0  0  0  0  0  0  0  0  0  0
 ITRead=  0  0  0  0  0  0  0  0
 MicOpt= -1 -1 -1 -1 -1 -1 -1 -1 -1 -1 -1 -1 -1 -1 -1 -1 -1 -1 -1 -1
 MicOpt= -1 -1 -1 -1 -1 -1 -1 -1 -1 -1 -1 -1 -1 -1 -1 -1 -1 -1 -1 -1
 MicOpt= -1 -1 -1 -1 -1 -1 -1 -1 -1 -1 -1 -1 -1 -1 -1 -1 -1 -1 -1 -1
 MicOpt= -1 -1 -1 -1 -1 -1 -1 -1 -1 -1 -1 -1 -1 -1 -1 -1 -1 -1 -1 -1
 MicOpt= -1 -1 -1 -1 -1 -1 -1 -1
 NAtoms=     88 NQM=       88 NQMF=       0 NMMI=      0 NMMIF=      0
                NMic=       0 NMicF=      0.
                    Isotopes and Nuclear Properties:
 (Nuclear quadrupole moments (NQMom) in fm**2, nuclear magnetic moments (NMagM)
  in nuclear magnetons)

  Atom         1           2           3           4           5           6           7           8           9          10
 IAtWgt=          12          12          12          12          12          12          12          12          12          12
 AtmWgt=  12.0000000  12.0000000  12.0000000  12.0000000  12.0000000  12.0000000  12.0000000  12.0000000  12.0000000  12.0000000
 NucSpn=           0           0           0           0           0           0           0           0           0           0
 AtZEff=  -0.0000000  -0.0000000  -0.0000000  -0.0000000  -0.0000000  -0.0000000  -0.0000000  -0.0000000  -0.0000000  -0.0000000
 NQMom=    0.0000000   0.0000000   0.0000000   0.0000000   0.0000000   0.0000000   0.0000000   0.0000000   0.0000000   0.0000000
 NMagM=    0.0000000   0.0000000   0.0000000   0.0000000   0.0000000   0.0000000   0.0000000   0.0000000   0.0000000   0.0000000
 AtZNuc=   6.0000000   6.0000000   6.0000000   6.0000000   6.0000000   6.0000000   6.0000000   6.0000000   6.0000000   6.0000000

  Atom        11          12          13          14          15          16          17          18          19          20
 IAtWgt=          12          12          12          12          12          12          12          12          12          12
 AtmWgt=  12.0000000  12.0000000  12.0000000  12.0000000  12.0000000  12.0000000  12.0000000  12.0000000  12.0000000  12.0000000
 NucSpn=           0           0           0           0           0           0           0           0           0           0
 AtZEff=  -0.0000000  -0.0000000  -0.0000000  -0.0000000  -0.0000000  -0.0000000  -0.0000000  -0.0000000  -0.0000000  -0.0000000
 NQMom=    0.0000000   0.0000000   0.0000000   0.0000000   0.0000000   0.0000000   0.0000000   0.0000000   0.0000000   0.0000000
 NMagM=    0.0000000   0.0000000   0.0000000   0.0000000   0.0000000   0.0000000   0.0000000   0.0000000   0.0000000   0.0000000
 AtZNuc=   6.0000000   6.0000000   6.0000000   6.0000000   6.0000000   6.0000000   6.0000000   6.0000000   6.0000000   6.0000000

  Atom        21          22          23          24          25          26          27          28          29          30
 IAtWgt=          12          12          12          12          12          12          12          12          12          12
 AtmWgt=  12.0000000  12.0000000  12.0000000  12.0000000  12.0000000  12.0000000  12.0000000  12.0000000  12.0000000  12.0000000
 NucSpn=           0           0           0           0           0           0           0           0           0           0
 AtZEff=  -0.0000000  -0.0000000  -0.0000000  -0.0000000  -0.0000000  -0.0000000  -0.0000000  -0.0000000  -0.0000000  -0.0000000
 NQMom=    0.0000000   0.0000000   0.0000000   0.0000000   0.0000000   0.0000000   0.0000000   0.0000000   0.0000000   0.0000000
 NMagM=    0.0000000   0.0000000   0.0000000   0.0000000   0.0000000   0.0000000   0.0000000   0.0000000   0.0000000   0.0000000
 AtZNuc=   6.0000000   6.0000000   6.0000000   6.0000000   6.0000000   6.0000000   6.0000000   6.0000000   6.0000000   6.0000000

  Atom        31          32          33          34          35          36          37          38          39          40
 IAtWgt=          12          12          12          12          12          12          12          12          12          12
 AtmWgt=  12.0000000  12.0000000  12.0000000  12.0000000  12.0000000  12.0000000  12.0000000  12.0000000  12.0000000  12.0000000
 NucSpn=           0           0           0           0           0           0           0           0           0           0
 AtZEff=  -0.0000000  -0.0000000  -0.0000000  -0.0000000  -0.0000000  -0.0000000  -0.0000000  -0.0000000  -0.0000000  -0.0000000
 NQMom=    0.0000000   0.0000000   0.0000000   0.0000000   0.0000000   0.0000000   0.0000000   0.0000000   0.0000000   0.0000000
 NMagM=    0.0000000   0.0000000   0.0000000   0.0000000   0.0000000   0.0000000   0.0000000   0.0000000   0.0000000   0.0000000
 AtZNuc=   6.0000000   6.0000000   6.0000000   6.0000000   6.0000000   6.0000000   6.0000000   6.0000000   6.0000000   6.0000000

  Atom        41          42          43          44          45          46          47          48          49          50
 IAtWgt=          12          12          12          12          12          12          12          12          12          12
 AtmWgt=  12.0000000  12.0000000  12.0000000  12.0000000  12.0000000  12.0000000  12.0000000  12.0000000  12.0000000  12.0000000
 NucSpn=           0           0           0           0           0           0           0           0           0           0
 AtZEff=  -0.0000000  -0.0000000  -0.0000000  -0.0000000  -0.0000000  -0.0000000  -0.0000000  -0.0000000  -0.0000000  -0.0000000
 NQMom=    0.0000000   0.0000000   0.0000000   0.0000000   0.0000000   0.0000000   0.0000000   0.0000000   0.0000000   0.0000000
 NMagM=    0.0000000   0.0000000   0.0000000   0.0000000   0.0000000   0.0000000   0.0000000   0.0000000   0.0000000   0.0000000
 AtZNuc=   6.0000000   6.0000000   6.0000000   6.0000000   6.0000000   6.0000000   6.0000000   6.0000000   6.0000000   6.0000000

  Atom        51          52          53          54          55          56          57          58          59          60
 IAtWgt=          12          12          12          12          12          12          12          12          12          12
 AtmWgt=  12.0000000  12.0000000  12.0000000  12.0000000  12.0000000  12.0000000  12.0000000  12.0000000  12.0000000  12.0000000
 NucSpn=           0           0           0           0           0           0           0           0           0           0
 AtZEff=  -0.0000000  -0.0000000  -0.0000000  -0.0000000  -0.0000000  -0.0000000  -0.0000000  -0.0000000  -0.0000000  -0.0000000
 NQMom=    0.0000000   0.0000000   0.0000000   0.0000000   0.0000000   0.0000000   0.0000000   0.0000000   0.0000000   0.0000000
 NMagM=    0.0000000   0.0000000   0.0000000   0.0000000   0.0000000   0.0000000   0.0000000   0.0000000   0.0000000   0.0000000
 AtZNuc=   6.0000000   6.0000000   6.0000000   6.0000000   6.0000000   6.0000000   6.0000000   6.0000000   6.0000000   6.0000000

  Atom        61          62          63          64          65          66          67          68          69          70
 IAtWgt=          12          12          12          12          12          12          12          12          12          12
 AtmWgt=  12.0000000  12.0000000  12.0000000  12.0000000  12.0000000  12.0000000  12.0000000  12.0000000  12.0000000  12.0000000
 NucSpn=           0           0           0           0           0           0           0           0           0           0
 AtZEff=  -0.0000000  -0.0000000  -0.0000000  -0.0000000  -0.0000000  -0.0000000  -0.0000000  -0.0000000  -0.0000000  -0.0000000
 NQMom=    0.0000000   0.0000000   0.0000000   0.0000000   0.0000000   0.0000000   0.0000000   0.0000000   0.0000000   0.0000000
 NMagM=    0.0000000   0.0000000   0.0000000   0.0000000   0.0000000   0.0000000   0.0000000   0.0000000   0.0000000   0.0000000
 AtZNuc=   6.0000000   6.0000000   6.0000000   6.0000000   6.0000000   6.0000000   6.0000000   6.0000000   6.0000000   6.0000000

  Atom        71          72          73          74          75          76          77          78          79          80
 IAtWgt=          12          12          12          12          12          12          12          12          12          12
 AtmWgt=  12.0000000  12.0000000  12.0000000  12.0000000  12.0000000  12.0000000  12.0000000  12.0000000  12.0000000  12.0000000
 NucSpn=           0           0           0           0           0           0           0           0           0           0
 AtZEff=  -0.0000000  -0.0000000  -0.0000000  -0.0000000  -0.0000000  -0.0000000  -0.0000000  -0.0000000  -0.0000000  -0.0000000
 NQMom=    0.0000000   0.0000000   0.0000000   0.0000000   0.0000000   0.0000000   0.0000000   0.0000000   0.0000000   0.0000000
 NMagM=    0.0000000   0.0000000   0.0000000   0.0000000   0.0000000   0.0000000   0.0000000   0.0000000   0.0000000   0.0000000
 AtZNuc=   6.0000000   6.0000000   6.0000000   6.0000000   6.0000000   6.0000000   6.0000000   6.0000000   6.0000000   6.0000000

  Atom        81          82          83          84          85          86          87          88
 IAtWgt=          12          12          12          12          35          35          35          35
 AtmWgt=  12.0000000  12.0000000  12.0000000  12.0000000  34.9688527  34.9688527  34.9688527  34.9688527
 NucSpn=           0           0           0           0           3           3           3           3
 AtZEff=  -0.0000000  -0.0000000  -0.0000000  -0.0000000  -0.0000000  -0.0000000  -0.0000000  -0.0000000
 NQMom=    0.0000000   0.0000000   0.0000000   0.0000000  -8.1650000  -8.1650000  -8.1650000  -8.1650000
 NMagM=    0.0000000   0.0000000   0.0000000   0.0000000   0.8218740   0.8218740   0.8218740   0.8218740
 AtZNuc=   6.0000000   6.0000000   6.0000000   6.0000000  17.0000000  17.0000000  17.0000000  17.0000000
 Leave Link  101 at Mon Jun 27 13:20:48 2022, MaxMem=  1342177280 cpu:               6.4 elap:               0.3
 (Enter /home/mkliu/g16/l103.exe)

 GradGradGradGradGradGradGradGradGradGradGradGradGradGradGradGradGradGrad
 Berny optimization.
 Initialization pass.
                           ----------------------------
                           !    Initial Parameters    !
                           ! (Angstroms and Degrees)  !
 --------------------------                            --------------------------
 ! Name  Definition              Value          Derivative Info.                !
 --------------------------------------------------------------------------------
 ! R1    R(1,5)                  1.4089         estimate D2E/DX2                !
 ! R2    R(1,17)                 1.4215         estimate D2E/DX2                !
 ! R3    R(1,23)                 1.444          estimate D2E/DX2                !
 ! R4    R(2,6)                  1.4418         estimate D2E/DX2                !
 ! R5    R(2,43)                 1.4097         estimate D2E/DX2                !
 ! R6    R(2,44)                 1.4193         estimate D2E/DX2                !
 ! R7    R(3,7)                  1.4177         estimate D2E/DX2                !
 ! R8    R(3,18)                 1.4109         estimate D2E/DX2                !
 ! R9    R(3,26)                 1.4403         estimate D2E/DX2                !
 ! R10   R(4,8)                  1.4986         estimate D2E/DX2                !
 ! R11   R(4,45)                 1.5074         estimate D2E/DX2                !
 ! R12   R(4,46)                 1.5191         estimate D2E/DX2                !
 ! R13   R(4,85)                 1.807          estimate D2E/DX2                !
 ! R14   R(5,9)                  1.4517         estimate D2E/DX2                !
 ! R15   R(5,29)                 1.4441         estimate D2E/DX2                !
 ! R16   R(6,10)                 1.3679         estimate D2E/DX2                !
 ! R17   R(6,15)                 1.4368         estimate D2E/DX2                !
 ! R18   R(7,12)                 1.4124         estimate D2E/DX2                !
 ! R19   R(7,30)                 1.4371         estimate D2E/DX2                !
 ! R20   R(8,11)                 1.3552         estimate D2E/DX2                !
 ! R21   R(8,16)                 1.4261         estimate D2E/DX2                !
 ! R22   R(9,13)                 1.4006         estimate D2E/DX2                !
 ! R23   R(9,35)                 1.4547         estimate D2E/DX2                !
 ! R24   R(10,49)                1.5078         estimate D2E/DX2                !
 ! R25   R(10,53)                1.4259         estimate D2E/DX2                !
 ! R26   R(11,50)                1.5039         estimate D2E/DX2                !
 ! R27   R(11,54)                1.4293         estimate D2E/DX2                !
 ! R28   R(12,14)                1.4077         estimate D2E/DX2                !
 ! R29   R(12,36)                1.4424         estimate D2E/DX2                !
 ! R30   R(13,15)                1.4262         estimate D2E/DX2                !
 ! R31   R(13,43)                1.4428         estimate D2E/DX2                !
 ! R32   R(14,16)                1.418          estimate D2E/DX2                !
 ! R33   R(14,46)                1.4228         estimate D2E/DX2                !
 ! R34   R(15,17)                1.3817         estimate D2E/DX2                !
 ! R35   R(16,18)                1.4128         estimate D2E/DX2                !
 ! R36   R(17,19)                1.4388         estimate D2E/DX2                !
 ! R37   R(18,20)                1.4397         estimate D2E/DX2                !
 ! R38   R(19,21)                1.4244         estimate D2E/DX2                !
 ! R39   R(19,53)                1.3862         estimate D2E/DX2                !
 ! R40   R(20,22)                1.4135         estimate D2E/DX2                !
 ! R41   R(20,54)                1.4089         estimate D2E/DX2                !
 ! R42   R(21,23)                1.4422         estimate D2E/DX2                !
 ! R43   R(21,57)                1.407          estimate D2E/DX2                !
 ! R44   R(22,24)                1.4362         estimate D2E/DX2                !
 ! R45   R(22,58)                1.4141         estimate D2E/DX2                !
 ! R46   R(23,25)                1.3659         estimate D2E/DX2                !
 ! R47   R(24,26)                1.3698         estimate D2E/DX2                !
 ! R48   R(24,62)                1.4325         estimate D2E/DX2                !
 ! R49   R(25,27)                1.4285         estimate D2E/DX2                !
 ! R50   R(25,61)                1.4331         estimate D2E/DX2                !
 ! R51   R(26,28)                1.4397         estimate D2E/DX2                !
 ! R52   R(27,29)                1.4143         estimate D2E/DX2                !
 ! R53   R(27,65)                1.4187         estimate D2E/DX2                !
 ! R54   R(28,30)                1.4249         estimate D2E/DX2                !
 ! R55   R(28,66)                1.4052         estimate D2E/DX2                !
 ! R56   R(29,31)                1.3981         estimate D2E/DX2                !
 ! R57   R(30,32)                1.3688         estimate D2E/DX2                !
 ! R58   R(31,33)                1.4406         estimate D2E/DX2                !
 ! R59   R(31,69)                1.4244         estimate D2E/DX2                !
 ! R60   R(32,34)                1.4411         estimate D2E/DX2                !
 ! R61   R(32,70)                1.4302         estimate D2E/DX2                !
 ! R62   R(33,35)                1.3996         estimate D2E/DX2                !
 ! R63   R(33,73)                1.4274         estimate D2E/DX2                !
 ! R64   R(34,36)                1.4105         estimate D2E/DX2                !
 ! R65   R(34,74)                1.4195         estimate D2E/DX2                !
 ! R66   R(35,37)                1.4504         estimate D2E/DX2                !
 ! R67   R(36,38)                1.4456         estimate D2E/DX2                !
 ! R68   R(37,39)                1.4348         estimate D2E/DX2                !
 ! R69   R(37,77)                1.4104         estimate D2E/DX2                !
 ! R70   R(38,42)                1.4448         estimate D2E/DX2                !
 ! R71   R(38,78)                1.4097         estimate D2E/DX2                !
 ! R72   R(39,43)                1.4072         estimate D2E/DX2                !
 ! R73   R(39,79)                1.409          estimate D2E/DX2                !
 ! R74   R(40,41)                1.4067         estimate D2E/DX2                !
 ! R75   R(40,44)                1.4027         estimate D2E/DX2                !
 ! R76   R(40,79)                1.4283         estimate D2E/DX2                !
 ! R77   R(41,45)                1.3721         estimate D2E/DX2                !
 ! R78   R(41,80)                1.5144         estimate D2E/DX2                !
 ! R79   R(42,46)                1.3642         estimate D2E/DX2                !
 ! R80   R(42,80)                1.5078         estimate D2E/DX2                !
 ! R81   R(44,47)                1.4261         estimate D2E/DX2                !
 ! R82   R(45,48)                1.4242         estimate D2E/DX2                !
 ! R83   R(47,48)                1.3928         estimate D2E/DX2                !
 ! R84   R(47,49)                1.5206         estimate D2E/DX2                !
 ! R85   R(48,50)                1.5201         estimate D2E/DX2                !
 ! R86   R(49,51)                1.5028         estimate D2E/DX2                !
 ! R87   R(49,88)                1.8114         estimate D2E/DX2                !
 ! R88   R(50,52)                1.5009         estimate D2E/DX2                !
 ! R89   R(50,87)                1.8044         estimate D2E/DX2                !
 ! R90   R(51,52)                1.352          estimate D2E/DX2                !
 ! R91   R(51,55)                1.4265         estimate D2E/DX2                !
 ! R92   R(52,56)                1.4205         estimate D2E/DX2                !
 ! R93   R(53,55)                1.4254         estimate D2E/DX2                !
 ! R94   R(54,56)                1.4207         estimate D2E/DX2                !
 ! R95   R(55,83)                1.4098         estimate D2E/DX2                !
 ! R96   R(56,84)                1.4162         estimate D2E/DX2                !
 ! R97   R(57,59)                1.4513         estimate D2E/DX2                !
 ! R98   R(57,83)                1.4477         estimate D2E/DX2                !
 ! R99   R(58,60)                1.441          estimate D2E/DX2                !
 ! R100  R(58,84)                1.4055         estimate D2E/DX2                !
 ! R101  R(59,60)                1.4016         estimate D2E/DX2                !
 ! R102  R(59,61)                1.4143         estimate D2E/DX2                !
 ! R103  R(60,62)                1.4217         estimate D2E/DX2                !
 ! R104  R(61,63)                1.4182         estimate D2E/DX2                !
 ! R105  R(62,64)                1.4158         estimate D2E/DX2                !
 ! R106  R(63,64)                1.4032         estimate D2E/DX2                !
 ! R107  R(63,65)                1.443          estimate D2E/DX2                !
 ! R108  R(64,66)                1.45           estimate D2E/DX2                !
 ! R109  R(65,67)                1.4016         estimate D2E/DX2                !
 ! R110  R(66,68)                1.4528         estimate D2E/DX2                !
 ! R111  R(67,68)                1.4509         estimate D2E/DX2                !
 ! R112  R(67,69)                1.4175         estimate D2E/DX2                !
 ! R113  R(68,70)                1.4063         estimate D2E/DX2                !
 ! R114  R(69,71)                1.4295         estimate D2E/DX2                !
 ! R115  R(70,72)                1.44           estimate D2E/DX2                !
 ! R116  R(71,72)                1.3765         estimate D2E/DX2                !
 ! R117  R(71,73)                1.4396         estimate D2E/DX2                !
 ! R118  R(72,74)                1.4418         estimate D2E/DX2                !
 ! R119  R(73,75)                1.3803         estimate D2E/DX2                !
 ! R120  R(74,76)                1.3879         estimate D2E/DX2                !
 ! R121  R(75,76)                1.4436         estimate D2E/DX2                !
 ! R122  R(75,77)                1.4227         estimate D2E/DX2                !
 ! R123  R(76,78)                1.418          estimate D2E/DX2                !
 ! R124  R(77,81)                1.4387         estimate D2E/DX2                !
 ! R125  R(78,81)                1.4528         estimate D2E/DX2                !
 ! R126  R(79,82)                1.4119         estimate D2E/DX2                !
 ! R127  R(80,82)                1.4995         estimate D2E/DX2                !
 ! R128  R(80,86)                1.8104         estimate D2E/DX2                !
 ! R129  R(81,82)                1.3605         estimate D2E/DX2                !
 ! R130  R(83,84)                1.4395         estimate D2E/DX2                !
 ! A1    A(5,1,17)             122.1414         estimate D2E/DX2                !
 ! A2    A(5,1,23)             121.1358         estimate D2E/DX2                !
 ! A3    A(17,1,23)            106.1149         estimate D2E/DX2                !
 ! A4    A(6,2,43)             107.9206         estimate D2E/DX2                !
 ! A5    A(6,2,44)             119.7713         estimate D2E/DX2                !
 ! A6    A(43,2,44)            120.4741         estimate D2E/DX2                !
 ! A7    A(7,3,18)             121.9864         estimate D2E/DX2                !
 ! A8    A(7,3,26)             107.4239         estimate D2E/DX2                !
 ! A9    A(18,3,26)            120.6642         estimate D2E/DX2                !
 ! A10   A(8,4,45)             110.7946         estimate D2E/DX2                !
 ! A11   A(8,4,46)             101.2802         estimate D2E/DX2                !
 ! A12   A(8,4,85)             112.8229         estimate D2E/DX2                !
 ! A13   A(45,4,46)            110.4226         estimate D2E/DX2                !
 ! A14   A(45,4,85)            109.9229         estimate D2E/DX2                !
 ! A15   A(46,4,85)            111.3447         estimate D2E/DX2                !
 ! A16   A(1,5,9)              118.57           estimate D2E/DX2                !
 ! A17   A(1,5,29)             116.8447         estimate D2E/DX2                !
 ! A18   A(9,5,29)             119.1103         estimate D2E/DX2                !
 ! A19   A(2,6,10)             119.9595         estimate D2E/DX2                !
 ! A20   A(2,6,15)             107.3582         estimate D2E/DX2                !
 ! A21   A(10,6,15)            120.9272         estimate D2E/DX2                !
 ! A22   A(3,7,12)             122.1102         estimate D2E/DX2                !
 ! A23   A(3,7,30)             107.4262         estimate D2E/DX2                !
 ! A24   A(12,7,30)            119.8617         estimate D2E/DX2                !
 ! A25   A(4,8,11)             122.4042         estimate D2E/DX2                !
 ! A26   A(4,8,16)             110.5699         estimate D2E/DX2                !
 ! A27   A(11,8,16)            119.9366         estimate D2E/DX2                !
 ! A28   A(5,9,13)             117.8158         estimate D2E/DX2                !
 ! A29   A(5,9,35)             120.71           estimate D2E/DX2                !
 ! A30   A(13,9,35)            117.4678         estimate D2E/DX2                !
 ! A31   A(6,10,49)            122.7501         estimate D2E/DX2                !
 ! A32   A(6,10,53)            118.8564         estimate D2E/DX2                !
 ! A33   A(49,10,53)           110.0649         estimate D2E/DX2                !
 ! A34   A(8,11,50)            123.004          estimate D2E/DX2                !
 ! A35   A(8,11,54)            119.4016         estimate D2E/DX2                !
 ! A36   A(50,11,54)           110.8379         estimate D2E/DX2                !
 ! A37   A(7,12,14)            115.1297         estimate D2E/DX2                !
 ! A38   A(7,12,36)            120.7264         estimate D2E/DX2                !
 ! A39   A(14,12,36)           118.7636         estimate D2E/DX2                !
 ! A40   A(9,13,15)            122.6675         estimate D2E/DX2                !
 ! A41   A(9,13,43)            121.0745         estimate D2E/DX2                !
 ! A42   A(15,13,43)           106.9211         estimate D2E/DX2                !
 ! A43   A(12,14,16)           122.6015         estimate D2E/DX2                !
 ! A44   A(12,14,46)           121.355          estimate D2E/DX2                !
 ! A45   A(16,14,46)           109.1543         estimate D2E/DX2                !
 ! A46   A(6,15,13)            108.5789         estimate D2E/DX2                !
 ! A47   A(6,15,17)            120.2347         estimate D2E/DX2                !
 ! A48   A(13,15,17)           119.3881         estimate D2E/DX2                !
 ! A49   A(8,16,14)            108.298          estimate D2E/DX2                !
 ! A50   A(8,16,18)            122.1164         estimate D2E/DX2                !
 ! A51   A(14,16,18)           121.5428         estimate D2E/DX2                !
 ! A52   A(1,17,15)            119.3789         estimate D2E/DX2                !
 ! A53   A(1,17,19)            108.853          estimate D2E/DX2                !
 ! A54   A(15,17,19)           119.0453         estimate D2E/DX2                !
 ! A55   A(3,18,16)            115.5586         estimate D2E/DX2                !
 ! A56   A(3,18,20)            119.4201         estimate D2E/DX2                !
 ! A57   A(16,18,20)           117.8529         estimate D2E/DX2                !
 ! A58   A(17,19,21)           108.7069         estimate D2E/DX2                !
 ! A59   A(17,19,53)           119.6366         estimate D2E/DX2                !
 ! A60   A(21,19,53)           119.6997         estimate D2E/DX2                !
 ! A61   A(18,20,22)           118.8859         estimate D2E/DX2                !
 ! A62   A(18,20,54)           118.3259         estimate D2E/DX2                !
 ! A63   A(22,20,54)           115.6151         estimate D2E/DX2                !
 ! A64   A(19,21,23)           106.1119         estimate D2E/DX2                !
 ! A65   A(19,21,57)           122.2186         estimate D2E/DX2                !
 ! A66   A(23,21,57)           121.3217         estimate D2E/DX2                !
 ! A67   A(20,22,24)           120.6095         estimate D2E/DX2                !
 ! A68   A(20,22,58)           121.9952         estimate D2E/DX2                !
 ! A69   A(24,22,58)           106.8912         estimate D2E/DX2                !
 ! A70   A(1,23,21)            109.3589         estimate D2E/DX2                !
 ! A71   A(1,23,25)            120.155          estimate D2E/DX2                !
 ! A72   A(21,23,25)           120.0477         estimate D2E/DX2                !
 ! A73   A(22,24,26)           120.5825         estimate D2E/DX2                !
 ! A74   A(22,24,62)           109.3391         estimate D2E/DX2                !
 ! A75   A(26,24,62)           119.3302         estimate D2E/DX2                !
 ! A76   A(23,25,27)           119.9608         estimate D2E/DX2                !
 ! A77   A(23,25,61)           120.1789         estimate D2E/DX2                !
 ! A78   A(27,25,61)           109.4177         estimate D2E/DX2                !
 ! A79   A(3,26,24)            119.7782         estimate D2E/DX2                !
 ! A80   A(3,26,28)            109.2551         estimate D2E/DX2                !
 ! A81   A(24,26,28)           120.1748         estimate D2E/DX2                !
 ! A82   A(25,27,29)           120.1543         estimate D2E/DX2                !
 ! A83   A(25,27,65)           106.9238         estimate D2E/DX2                !
 ! A84   A(29,27,65)           121.833          estimate D2E/DX2                !
 ! A85   A(26,28,30)           105.4927         estimate D2E/DX2                !
 ! A86   A(26,28,66)           122.2951         estimate D2E/DX2                !
 ! A87   A(30,28,66)           121.4655         estimate D2E/DX2                !
 ! A88   A(5,29,27)            120.4876         estimate D2E/DX2                !
 ! A89   A(5,29,31)            118.8707         estimate D2E/DX2                !
 ! A90   A(27,29,31)           115.0702         estimate D2E/DX2                !
 ! A91   A(7,30,28)            109.7317         estimate D2E/DX2                !
 ! A92   A(7,30,32)            119.6459         estimate D2E/DX2                !
 ! A93   A(28,30,32)           120.186          estimate D2E/DX2                !
 ! A94   A(29,31,33)           121.3233         estimate D2E/DX2                !
 ! A95   A(29,31,69)           122.0759         estimate D2E/DX2                !
 ! A96   A(33,31,69)           108.8336         estimate D2E/DX2                !
 ! A97   A(30,32,34)           120.571          estimate D2E/DX2                !
 ! A98   A(30,32,70)           119.3622         estimate D2E/DX2                !
 ! A99   A(34,32,70)           109.7811         estimate D2E/DX2                !
 ! A100  A(31,33,35)           121.1997         estimate D2E/DX2                !
 ! A101  A(31,33,73)           107.0947         estimate D2E/DX2                !
 ! A102  A(35,33,73)           122.4754         estimate D2E/DX2                !
 ! A103  A(32,34,36)           120.791          estimate D2E/DX2                !
 ! A104  A(32,34,74)           106.3636         estimate D2E/DX2                !
 ! A105  A(36,34,74)           122.035          estimate D2E/DX2                !
 ! A106  A(9,35,33)            117.3985         estimate D2E/DX2                !
 ! A107  A(9,35,37)            120.7172         estimate D2E/DX2                !
 ! A108  A(33,35,37)           117.6549         estimate D2E/DX2                !
 ! A109  A(12,36,34)           117.2859         estimate D2E/DX2                !
 ! A110  A(12,36,38)           119.2167         estimate D2E/DX2                !
 ! A111  A(34,36,38)           118.5788         estimate D2E/DX2                !
 ! A112  A(35,37,39)           119.1536         estimate D2E/DX2                !
 ! A113  A(35,37,77)           118.9725         estimate D2E/DX2                !
 ! A114  A(39,37,77)           116.0573         estimate D2E/DX2                !
 ! A115  A(36,38,42)           119.2983         estimate D2E/DX2                !
 ! A116  A(36,38,78)           118.1015         estimate D2E/DX2                !
 ! A117  A(42,38,78)           118.4198         estimate D2E/DX2                !
 ! A118  A(37,39,43)           119.1887         estimate D2E/DX2                !
 ! A119  A(37,39,79)           119.9898         estimate D2E/DX2                !
 ! A120  A(43,39,79)           115.4177         estimate D2E/DX2                !
 ! A121  A(41,40,44)           121.559          estimate D2E/DX2                !
 ! A122  A(41,40,79)           109.3211         estimate D2E/DX2                !
 ! A123  A(44,40,79)           122.6903         estimate D2E/DX2                !
 ! A124  A(40,41,45)           120.156          estimate D2E/DX2                !
 ! A125  A(40,41,80)           109.8237         estimate D2E/DX2                !
 ! A126  A(45,41,80)           125.6322         estimate D2E/DX2                !
 ! A127  A(38,42,46)           120.3203         estimate D2E/DX2                !
 ! A128  A(38,42,80)           121.7001         estimate D2E/DX2                !
 ! A129  A(46,42,80)           116.0451         estimate D2E/DX2                !
 ! A130  A(2,43,13)            108.9472         estimate D2E/DX2                !
 ! A131  A(2,43,39)            122.8322         estimate D2E/DX2                !
 ! A132  A(13,43,39)           120.8433         estimate D2E/DX2                !
 ! A133  A(2,44,40)            114.9944         estimate D2E/DX2                !
 ! A134  A(2,44,47)            121.9909         estimate D2E/DX2                !
 ! A135  A(40,44,47)           118.1327         estimate D2E/DX2                !
 ! A136  A(4,45,41)            115.6838         estimate D2E/DX2                !
 ! A137  A(4,45,48)            123.3882         estimate D2E/DX2                !
 ! A138  A(41,45,48)           119.3292         estimate D2E/DX2                !
 ! A139  A(4,46,14)            109.4117         estimate D2E/DX2                !
 ! A140  A(4,46,42)            125.5713         estimate D2E/DX2                !
 ! A141  A(14,46,42)           120.9183         estimate D2E/DX2                !
 ! A142  A(44,47,48)           119.6907         estimate D2E/DX2                !
 ! A143  A(44,47,49)           117.706          estimate D2E/DX2                !
 ! A144  A(48,47,49)           121.3178         estimate D2E/DX2                !
 ! A145  A(45,48,47)           120.9133         estimate D2E/DX2                !
 ! A146  A(45,48,50)           118.2485         estimate D2E/DX2                !
 ! A147  A(47,48,50)           120.0759         estimate D2E/DX2                !
 ! A148  A(10,49,47)           112.6671         estimate D2E/DX2                !
 ! A149  A(10,49,51)           101.1102         estimate D2E/DX2                !
 ! A150  A(10,49,88)           111.4186         estimate D2E/DX2                !
 ! A151  A(47,49,51)           110.0346         estimate D2E/DX2                !
 ! A152  A(47,49,88)           108.5796         estimate D2E/DX2                !
 ! A153  A(51,49,88)           112.9549         estimate D2E/DX2                !
 ! A154  A(11,50,48)           110.874          estimate D2E/DX2                !
 ! A155  A(11,50,52)           100.7654         estimate D2E/DX2                !
 ! A156  A(11,50,87)           112.8299         estimate D2E/DX2                !
 ! A157  A(48,50,52)           109.9164         estimate D2E/DX2                !
 ! A158  A(48,50,87)           108.9502         estimate D2E/DX2                !
 ! A159  A(52,50,87)           113.3153         estimate D2E/DX2                !
 ! A160  A(49,51,52)           121.2982         estimate D2E/DX2                !
 ! A161  A(49,51,55)           111.5925         estimate D2E/DX2                !
 ! A162  A(52,51,55)           120.3773         estimate D2E/DX2                !
 ! A163  A(50,52,51)           122.7626         estimate D2E/DX2                !
 ! A164  A(50,52,56)           111.5376         estimate D2E/DX2                !
 ! A165  A(51,52,56)           119.123          estimate D2E/DX2                !
 ! A166  A(10,53,19)           121.1431         estimate D2E/DX2                !
 ! A167  A(10,53,55)           109.2061         estimate D2E/DX2                !
 ! A168  A(19,53,55)           119.1648         estimate D2E/DX2                !
 ! A169  A(11,54,20)           122.1937         estimate D2E/DX2                !
 ! A170  A(11,54,56)           108.3417         estimate D2E/DX2                !
 ! A171  A(20,54,56)           121.6688         estimate D2E/DX2                !
 ! A172  A(51,55,53)           107.2975         estimate D2E/DX2                !
 ! A173  A(51,55,83)           122.651          estimate D2E/DX2                !
 ! A174  A(53,55,83)           122.028          estimate D2E/DX2                !
 ! A175  A(52,56,54)           108.1831         estimate D2E/DX2                !
 ! A176  A(52,56,84)           121.6389         estimate D2E/DX2                !
 ! A177  A(54,56,84)           122.0522         estimate D2E/DX2                !
 ! A178  A(21,57,59)           117.3586         estimate D2E/DX2                !
 ! A179  A(21,57,83)           118.0631         estimate D2E/DX2                !
 ! A180  A(59,57,83)           119.2226         estimate D2E/DX2                !
 ! A181  A(22,58,60)           108.5389         estimate D2E/DX2                !
 ! A182  A(22,58,84)           122.1787         estimate D2E/DX2                !
 ! A183  A(60,58,84)           120.632          estimate D2E/DX2                !
 ! A184  A(57,59,60)           119.5481         estimate D2E/DX2                !
 ! A185  A(57,59,61)           120.0343         estimate D2E/DX2                !
 ! A186  A(60,59,61)           114.6325         estimate D2E/DX2                !
 ! A187  A(58,60,59)           120.8603         estimate D2E/DX2                !
 ! A188  A(58,60,62)           108.4375         estimate D2E/DX2                !
 ! A189  A(59,60,62)           122.3161         estimate D2E/DX2                !
 ! A190  A(25,61,59)           120.255          estimate D2E/DX2                !
 ! A191  A(25,61,63)           106.7509         estimate D2E/DX2                !
 ! A192  A(59,61,63)           122.4088         estimate D2E/DX2                !
 ! A193  A(24,62,60)           106.6866         estimate D2E/DX2                !
 ! A194  A(24,62,64)           120.8707         estimate D2E/DX2                !
 ! A195  A(60,62,64)           122.136          estimate D2E/DX2                !
 ! A196  A(61,63,64)           122.2012         estimate D2E/DX2                !
 ! A197  A(61,63,65)           108.405          estimate D2E/DX2                !
 ! A198  A(64,63,65)           120.8145         estimate D2E/DX2                !
 ! A199  A(62,64,63)           114.7229         estimate D2E/DX2                !
 ! A200  A(62,64,66)           120.2784         estimate D2E/DX2                !
 ! A201  A(63,64,66)           119.0524         estimate D2E/DX2                !
 ! A202  A(27,65,63)           108.2763         estimate D2E/DX2                !
 ! A203  A(27,65,67)           122.1127         estimate D2E/DX2                !
 ! A204  A(63,65,67)           121.4096         estimate D2E/DX2                !
 ! A205  A(28,66,64)           116.6231         estimate D2E/DX2                !
 ! A206  A(28,66,68)           118.0706         estimate D2E/DX2                !
 ! A207  A(64,66,68)           120.0934         estimate D2E/DX2                !
 ! A208  A(65,67,68)           119.1201         estimate D2E/DX2                !
 ! A209  A(65,67,69)           114.9049         estimate D2E/DX2                !
 ! A210  A(68,67,69)           120.0893         estimate D2E/DX2                !
 ! A211  A(66,68,67)           119.4073         estimate D2E/DX2                !
 ! A212  A(66,68,70)           118.5694         estimate D2E/DX2                !
 ! A213  A(67,68,70)           116.7098         estimate D2E/DX2                !
 ! A214  A(31,69,67)           121.5531         estimate D2E/DX2                !
 ! A215  A(31,69,71)           107.4057         estimate D2E/DX2                !
 ! A216  A(67,69,71)           121.1413         estimate D2E/DX2                !
 ! A217  A(32,70,68)           121.3152         estimate D2E/DX2                !
 ! A218  A(32,70,72)           105.9551         estimate D2E/DX2                !
 ! A219  A(68,70,72)           122.5475         estimate D2E/DX2                !
 ! A220  A(69,71,72)           119.3048         estimate D2E/DX2                !
 ! A221  A(69,71,73)           108.2303         estimate D2E/DX2                !
 ! A222  A(72,71,73)           120.4067         estimate D2E/DX2                !
 ! A223  A(70,72,71)           120.0036         estimate D2E/DX2                !
 ! A224  A(70,72,74)           108.3364         estimate D2E/DX2                !
 ! A225  A(71,72,74)           119.6632         estimate D2E/DX2                !
 ! A226  A(33,73,71)           108.0837         estimate D2E/DX2                !
 ! A227  A(33,73,75)           119.8111         estimate D2E/DX2                !
 ! A228  A(71,73,75)           120.0442         estimate D2E/DX2                !
 ! A229  A(34,74,72)           108.651          estimate D2E/DX2                !
 ! A230  A(34,74,76)           119.0816         estimate D2E/DX2                !
 ! A231  A(72,74,76)           120.3075         estimate D2E/DX2                !
 ! A232  A(73,75,76)           120.0121         estimate D2E/DX2                !
 ! A233  A(73,75,77)           119.1617         estimate D2E/DX2                !
 ! A234  A(76,75,77)           108.6558         estimate D2E/DX2                !
 ! A235  A(74,76,75)           119.5507         estimate D2E/DX2                !
 ! A236  A(74,76,78)           119.8873         estimate D2E/DX2                !
 ! A237  A(75,76,78)           108.6501         estimate D2E/DX2                !
 ! A238  A(37,77,75)           121.8892         estimate D2E/DX2                !
 ! A239  A(37,77,81)           121.9058         estimate D2E/DX2                !
 ! A240  A(75,77,81)           106.5433         estimate D2E/DX2                !
 ! A241  A(38,78,76)           121.9032         estimate D2E/DX2                !
 ! A242  A(38,78,81)           120.0572         estimate D2E/DX2                !
 ! A243  A(76,78,81)           106.3501         estimate D2E/DX2                !
 ! A244  A(39,79,40)           120.3186         estimate D2E/DX2                !
 ! A245  A(39,79,82)           122.1705         estimate D2E/DX2                !
 ! A246  A(40,79,82)           107.5531         estimate D2E/DX2                !
 ! A247  A(41,80,42)           110.6906         estimate D2E/DX2                !
 ! A248  A(41,80,82)           100.7262         estimate D2E/DX2                !
 ! A249  A(41,80,86)           111.3541         estimate D2E/DX2                !
 ! A250  A(42,80,82)           111.8105         estimate D2E/DX2                !
 ! A251  A(42,80,86)           109.8029         estimate D2E/DX2                !
 ! A252  A(82,80,86)           112.2035         estimate D2E/DX2                !
 ! A253  A(77,81,78)           108.8738         estimate D2E/DX2                !
 ! A254  A(77,81,82)           120.4148         estimate D2E/DX2                !
 ! A255  A(78,81,82)           120.8648         estimate D2E/DX2                !
 ! A256  A(79,82,80)           111.368          estimate D2E/DX2                !
 ! A257  A(79,82,81)           118.5816         estimate D2E/DX2                !
 ! A258  A(80,82,81)           122.2439         estimate D2E/DX2                !
 ! A259  A(55,83,57)           118.6931         estimate D2E/DX2                !
 ! A260  A(55,83,84)           116.2377         estimate D2E/DX2                !
 ! A261  A(57,83,84)           120.0065         estimate D2E/DX2                !
 ! A262  A(56,84,58)           115.3976         estimate D2E/DX2                !
 ! A263  A(56,84,83)           119.606          estimate D2E/DX2                !
 ! A264  A(58,84,83)           119.5307         estimate D2E/DX2                !
 ! D1    D(17,1,5,9)             0.6461         estimate D2E/DX2                !
 ! D2    D(17,1,5,29)         -153.0493         estimate D2E/DX2                !
 ! D3    D(23,1,5,9)           140.3337         estimate D2E/DX2                !
 ! D4    D(23,1,5,29)          -13.3617         estimate D2E/DX2                !
 ! D5    D(5,1,17,15)           -1.9925         estimate D2E/DX2                !
 ! D6    D(5,1,17,19)          139.3576         estimate D2E/DX2                !
 ! D7    D(23,1,17,15)        -146.7944         estimate D2E/DX2                !
 ! D8    D(23,1,17,19)          -5.4443         estimate D2E/DX2                !
 ! D9    D(5,1,23,21)         -136.1421         estimate D2E/DX2                !
 ! D10   D(5,1,23,25)            8.7345         estimate D2E/DX2                !
 ! D11   D(17,1,23,21)           9.0933         estimate D2E/DX2                !
 ! D12   D(17,1,23,25)         153.9699         estimate D2E/DX2                !
 ! D13   D(43,2,6,10)         -145.6697         estimate D2E/DX2                !
 ! D14   D(43,2,6,15)           -2.3776         estimate D2E/DX2                !
 ! D15   D(44,2,6,10)           -2.6307         estimate D2E/DX2                !
 ! D16   D(44,2,6,15)          140.6614         estimate D2E/DX2                !
 ! D17   D(6,2,43,13)            4.8215         estimate D2E/DX2                !
 ! D18   D(6,2,43,39)          154.89           estimate D2E/DX2                !
 ! D19   D(44,2,43,13)        -137.9091         estimate D2E/DX2                !
 ! D20   D(44,2,43,39)          12.1595         estimate D2E/DX2                !
 ! D21   D(6,2,44,40)         -155.9918         estimate D2E/DX2                !
 ! D22   D(6,2,44,47)           -1.2231         estimate D2E/DX2                !
 ! D23   D(43,2,44,40)         -17.5819         estimate D2E/DX2                !
 ! D24   D(43,2,44,47)         137.1868         estimate D2E/DX2                !
 ! D25   D(18,3,7,12)            3.7685         estimate D2E/DX2                !
 ! D26   D(18,3,7,30)          148.1667         estimate D2E/DX2                !
 ! D27   D(26,3,7,12)         -141.9438         estimate D2E/DX2                !
 ! D28   D(26,3,7,30)            2.4543         estimate D2E/DX2                !
 ! D29   D(7,3,18,16)            5.8593         estimate D2E/DX2                !
 ! D30   D(7,3,18,20)         -143.937          estimate D2E/DX2                !
 ! D31   D(26,3,18,16)         147.1864         estimate D2E/DX2                !
 ! D32   D(26,3,18,20)          -2.6099         estimate D2E/DX2                !
 ! D33   D(7,3,26,24)          147.2068         estimate D2E/DX2                !
 ! D34   D(7,3,26,28)            2.787          estimate D2E/DX2                !
 ! D35   D(18,3,26,24)           0.9513         estimate D2E/DX2                !
 ! D36   D(18,3,26,28)        -143.4685         estimate D2E/DX2                !
 ! D37   D(45,4,8,11)           23.3222         estimate D2E/DX2                !
 ! D38   D(45,4,8,16)         -127.0815         estimate D2E/DX2                !
 ! D39   D(46,4,8,11)          140.4744         estimate D2E/DX2                !
 ! D40   D(46,4,8,16)           -9.9293         estimate D2E/DX2                !
 ! D41   D(85,4,8,11)         -100.4074         estimate D2E/DX2                !
 ! D42   D(85,4,8,16)          109.1889         estimate D2E/DX2                !
 ! D43   D(8,4,45,41)          144.8172         estimate D2E/DX2                !
 ! D44   D(8,4,45,48)          -20.6323         estimate D2E/DX2                !
 ! D45   D(46,4,45,41)          33.4298         estimate D2E/DX2                !
 ! D46   D(46,4,45,48)        -132.0197         estimate D2E/DX2                !
 ! D47   D(85,4,45,41)         -89.8049         estimate D2E/DX2                !
 ! D48   D(85,4,45,48)         104.7456         estimate D2E/DX2                !
 ! D49   D(8,4,46,14)           11.2885         estimate D2E/DX2                !
 ! D50   D(8,4,46,42)         -145.8996         estimate D2E/DX2                !
 ! D51   D(45,4,46,14)         128.7118         estimate D2E/DX2                !
 ! D52   D(45,4,46,42)         -28.4762         estimate D2E/DX2                !
 ! D53   D(85,4,46,14)        -108.8836         estimate D2E/DX2                !
 ! D54   D(85,4,46,42)          93.9283         estimate D2E/DX2                !
 ! D55   D(1,5,9,13)             1.0644         estimate D2E/DX2                !
 ! D56   D(1,5,9,35)          -155.8557         estimate D2E/DX2                !
 ! D57   D(29,5,9,13)          154.1569         estimate D2E/DX2                !
 ! D58   D(29,5,9,35)           -2.7632         estimate D2E/DX2                !
 ! D59   D(1,5,29,27)            8.9281         estimate D2E/DX2                !
 ! D60   D(1,5,29,31)          161.3177         estimate D2E/DX2                !
 ! D61   D(9,5,29,27)         -144.6197         estimate D2E/DX2                !
 ! D62   D(9,5,29,31)            7.7699         estimate D2E/DX2                !
 ! D63   D(2,6,10,49)           -9.5799         estimate D2E/DX2                !
 ! D64   D(2,6,10,53)          135.5252         estimate D2E/DX2                !
 ! D65   D(15,6,10,49)        -147.892          estimate D2E/DX2                !
 ! D66   D(15,6,10,53)          -2.7869         estimate D2E/DX2                !
 ! D67   D(2,6,15,13)           -0.9794         estimate D2E/DX2                !
 ! D68   D(2,6,15,17)         -143.6459         estimate D2E/DX2                !
 ! D69   D(10,6,15,13)         141.8853         estimate D2E/DX2                !
 ! D70   D(10,6,15,17)          -0.7811         estimate D2E/DX2                !
 ! D71   D(3,7,12,14)           -9.2397         estimate D2E/DX2                !
 ! D72   D(3,7,12,36)          144.5408         estimate D2E/DX2                !
 ! D73   D(30,7,12,14)        -149.4131         estimate D2E/DX2                !
 ! D74   D(30,7,12,36)           4.3674         estimate D2E/DX2                !
 ! D75   D(3,7,30,28)           -6.9239         estimate D2E/DX2                !
 ! D76   D(3,7,30,32)         -151.8853         estimate D2E/DX2                !
 ! D77   D(12,7,30,28)         138.4243         estimate D2E/DX2                !
 ! D78   D(12,7,30,32)          -6.5371         estimate D2E/DX2                !
 ! D79   D(4,8,11,50)            1.5396         estimate D2E/DX2                !
 ! D80   D(4,8,11,54)         -146.9872         estimate D2E/DX2                !
 ! D81   D(16,8,11,50)         149.2913         estimate D2E/DX2                !
 ! D82   D(16,8,11,54)           0.7644         estimate D2E/DX2                !
 ! D83   D(4,8,16,14)            5.2201         estimate D2E/DX2                !
 ! D84   D(4,8,16,18)          154.326          estimate D2E/DX2                !
 ! D85   D(11,8,16,14)        -146.0173         estimate D2E/DX2                !
 ! D86   D(11,8,16,18)           3.0886         estimate D2E/DX2                !
 ! D87   D(5,9,13,15)           -1.5021         estimate D2E/DX2                !
 ! D88   D(5,9,13,43)         -143.6946         estimate D2E/DX2                !
 ! D89   D(35,9,13,15)         156.1728         estimate D2E/DX2                !
 ! D90   D(35,9,13,43)          13.9803         estimate D2E/DX2                !
 ! D91   D(5,9,35,33)           -7.6309         estimate D2E/DX2                !
 ! D92   D(5,9,35,37)          148.7272         estimate D2E/DX2                !
 ! D93   D(13,9,35,33)        -164.6285         estimate D2E/DX2                !
 ! D94   D(13,9,35,37)          -8.2704         estimate D2E/DX2                !
 ! D95   D(6,10,49,47)          23.3789         estimate D2E/DX2                !
 ! D96   D(6,10,49,51)         140.7898         estimate D2E/DX2                !
 ! D97   D(6,10,49,88)         -98.947          estimate D2E/DX2                !
 ! D98   D(53,10,49,47)       -124.3846         estimate D2E/DX2                !
 ! D99   D(53,10,49,51)         -6.9737         estimate D2E/DX2                !
 ! D100  D(53,10,49,88)        113.2895         estimate D2E/DX2                !
 ! D101  D(6,10,53,19)           4.3756         estimate D2E/DX2                !
 ! D102  D(6,10,53,55)        -140.058          estimate D2E/DX2                !
 ! D103  D(49,10,53,19)        153.5635         estimate D2E/DX2                !
 ! D104  D(49,10,53,55)          9.1299         estimate D2E/DX2                !
 ! D105  D(8,11,50,48)         -28.7958         estimate D2E/DX2                !
 ! D106  D(8,11,50,52)        -145.1305         estimate D2E/DX2                !
 ! D107  D(8,11,50,87)          93.727          estimate D2E/DX2                !
 ! D108  D(54,11,50,48)        122.0813         estimate D2E/DX2                !
 ! D109  D(54,11,50,52)          5.7465         estimate D2E/DX2                !
 ! D110  D(54,11,50,87)       -115.396          estimate D2E/DX2                !
 ! D111  D(8,11,54,20)          -3.0996         estimate D2E/DX2                !
 ! D112  D(8,11,54,56)         146.4786         estimate D2E/DX2                !
 ! D113  D(50,11,54,20)       -155.1631         estimate D2E/DX2                !
 ! D114  D(50,11,54,56)         -5.5849         estimate D2E/DX2                !
 ! D115  D(7,12,14,16)           5.3623         estimate D2E/DX2                !
 ! D116  D(7,12,14,46)         153.119          estimate D2E/DX2                !
 ! D117  D(36,12,14,16)       -148.964          estimate D2E/DX2                !
 ! D118  D(36,12,14,46)         -1.2073         estimate D2E/DX2                !
 ! D119  D(7,12,36,34)           4.5651         estimate D2E/DX2                !
 ! D120  D(7,12,36,38)        -150.2851         estimate D2E/DX2                !
 ! D121  D(14,12,36,34)        157.4169         estimate D2E/DX2                !
 ! D122  D(14,12,36,38)          2.5667         estimate D2E/DX2                !
 ! D123  D(9,13,15,6)         -142.8491         estimate D2E/DX2                !
 ! D124  D(9,13,15,17)           0.1849         estimate D2E/DX2                !
 ! D125  D(43,13,15,6)           3.8661         estimate D2E/DX2                !
 ! D126  D(43,13,15,17)        146.9            estimate D2E/DX2                !
 ! D127  D(9,13,43,2)          141.9605         estimate D2E/DX2                !
 ! D128  D(9,13,43,39)          -8.8092         estimate D2E/DX2                !
 ! D129  D(15,13,43,2)          -5.397          estimate D2E/DX2                !
 ! D130  D(15,13,43,39)       -156.1667         estimate D2E/DX2                !
 ! D131  D(12,14,16,8)         153.5496         estimate D2E/DX2                !
 ! D132  D(12,14,16,18)          4.2316         estimate D2E/DX2                !
 ! D133  D(46,14,16,8)           2.3855         estimate D2E/DX2                !
 ! D134  D(46,14,16,18)       -146.9326         estimate D2E/DX2                !
 ! D135  D(12,14,46,4)        -160.5419         estimate D2E/DX2                !
 ! D136  D(12,14,46,42)         -2.1091         estimate D2E/DX2                !
 ! D137  D(16,14,46,4)          -8.953          estimate D2E/DX2                !
 ! D138  D(16,14,46,42)        149.4797         estimate D2E/DX2                !
 ! D139  D(6,15,17,1)          140.275          estimate D2E/DX2                !
 ! D140  D(6,15,17,19)           2.813          estimate D2E/DX2                !
 ! D141  D(13,15,17,1)           1.5557         estimate D2E/DX2                !
 ! D142  D(13,15,17,19)       -135.9063         estimate D2E/DX2                !
 ! D143  D(8,16,18,3)         -154.8103         estimate D2E/DX2                !
 ! D144  D(8,16,18,20)          -4.5208         estimate D2E/DX2                !
 ! D145  D(14,16,18,3)          -9.7005         estimate D2E/DX2                !
 ! D146  D(14,16,18,20)        140.589          estimate D2E/DX2                !
 ! D147  D(1,17,19,21)          -0.1484         estimate D2E/DX2                !
 ! D148  D(1,17,19,53)        -142.7531         estimate D2E/DX2                !
 ! D149  D(15,17,19,21)        141.3506         estimate D2E/DX2                !
 ! D150  D(15,17,19,53)         -1.2542         estimate D2E/DX2                !
 ! D151  D(3,18,20,22)           2.1417         estimate D2E/DX2                !
 ! D152  D(3,18,20,54)         151.2684         estimate D2E/DX2                !
 ! D153  D(16,18,20,22)       -146.9734         estimate D2E/DX2                !
 ! D154  D(16,18,20,54)          2.1532         estimate D2E/DX2                !
 ! D155  D(17,19,21,23)          5.6846         estimate D2E/DX2                !
 ! D156  D(17,19,21,57)       -139.5622         estimate D2E/DX2                !
 ! D157  D(53,19,21,23)        148.2618         estimate D2E/DX2                !
 ! D158  D(53,19,21,57)          3.0151         estimate D2E/DX2                !
 ! D159  D(17,19,53,10)         -2.3556         estimate D2E/DX2                !
 ! D160  D(17,19,53,55)        138.6667         estimate D2E/DX2                !
 ! D161  D(21,19,53,10)       -140.8862         estimate D2E/DX2                !
 ! D162  D(21,19,53,55)          0.1361         estimate D2E/DX2                !
 ! D163  D(18,20,22,24)         -0.0715         estimate D2E/DX2                !
 ! D164  D(18,20,22,58)        140.0748         estimate D2E/DX2                !
 ! D165  D(54,20,22,24)       -150.0099         estimate D2E/DX2                !
 ! D166  D(54,20,22,58)         -9.8635         estimate D2E/DX2                !
 ! D167  D(18,20,54,11)          1.5682         estimate D2E/DX2                !
 ! D168  D(18,20,54,56)       -144.0484         estimate D2E/DX2                !
 ! D169  D(22,20,54,11)        151.6827         estimate D2E/DX2                !
 ! D170  D(22,20,54,56)          6.0661         estimate D2E/DX2                !
 ! D171  D(19,21,23,1)          -9.18           estimate D2E/DX2                !
 ! D172  D(19,21,23,25)       -154.1002         estimate D2E/DX2                !
 ! D173  D(57,21,23,1)         136.4494         estimate D2E/DX2                !
 ! D174  D(57,21,23,25)         -8.4709         estimate D2E/DX2                !
 ! D175  D(19,21,57,59)        150.7432         estimate D2E/DX2                !
 ! D176  D(19,21,57,83)         -3.2552         estimate D2E/DX2                !
 ! D177  D(23,21,57,59)         10.6158         estimate D2E/DX2                !
 ! D178  D(23,21,57,83)       -143.3825         estimate D2E/DX2                !
 ! D179  D(20,22,24,26)         -1.6104         estimate D2E/DX2                !
 ! D180  D(20,22,24,62)        142.5275         estimate D2E/DX2                !
 ! D181  D(58,22,24,26)       -147.0005         estimate D2E/DX2                !
 ! D182  D(58,22,24,62)         -2.8626         estimate D2E/DX2                !
 ! D183  D(20,22,58,60)       -143.5966         estimate D2E/DX2                !
 ! D184  D(20,22,58,84)          4.1773         estimate D2E/DX2                !
 ! D185  D(24,22,58,60)          1.2056         estimate D2E/DX2                !
 ! D186  D(24,22,58,84)        148.9795         estimate D2E/DX2                !
 ! D187  D(1,23,25,27)           0.9331         estimate D2E/DX2                !
 ! D188  D(1,23,25,61)        -140.2458         estimate D2E/DX2                !
 ! D189  D(21,23,25,27)        142.0977         estimate D2E/DX2                !
 ! D190  D(21,23,25,61)          0.9188         estimate D2E/DX2                !
 ! D191  D(22,24,26,3)           1.1675         estimate D2E/DX2                !
 ! D192  D(22,24,26,28)        141.7184         estimate D2E/DX2                !
 ! D193  D(62,24,26,3)        -139.4822         estimate D2E/DX2                !
 ! D194  D(62,24,26,28)          1.0687         estimate D2E/DX2                !
 ! D195  D(22,24,62,60)          3.3921         estimate D2E/DX2                !
 ! D196  D(22,24,62,64)       -142.3149         estimate D2E/DX2                !
 ! D197  D(26,24,62,60)        148.0468         estimate D2E/DX2                !
 ! D198  D(26,24,62,64)          2.3398         estimate D2E/DX2                !
 ! D199  D(23,25,27,29)         -5.2602         estimate D2E/DX2                !
 ! D200  D(23,25,27,65)       -149.7856         estimate D2E/DX2                !
 ! D201  D(61,25,27,29)        139.6678         estimate D2E/DX2                !
 ! D202  D(61,25,27,65)         -4.8576         estimate D2E/DX2                !
 ! D203  D(23,25,61,59)          3.9227         estimate D2E/DX2                !
 ! D204  D(23,25,61,63)        149.3624         estimate D2E/DX2                !
 ! D205  D(27,25,61,59)       -140.9165         estimate D2E/DX2                !
 ! D206  D(27,25,61,63)          4.5232         estimate D2E/DX2                !
 ! D207  D(3,26,28,30)          -6.8736         estimate D2E/DX2                !
 ! D208  D(3,26,28,66)         137.8118         estimate D2E/DX2                !
 ! D209  D(24,26,28,30)       -151.1292         estimate D2E/DX2                !
 ! D210  D(24,26,28,66)         -6.4438         estimate D2E/DX2                !
 ! D211  D(25,27,29,5)           0.1873         estimate D2E/DX2                !
 ! D212  D(25,27,29,31)       -153.1929         estimate D2E/DX2                !
 ! D213  D(65,27,29,5)         139.3811         estimate D2E/DX2                !
 ! D214  D(65,27,29,31)        -13.9991         estimate D2E/DX2                !
 ! D215  D(25,27,65,63)          3.2842         estimate D2E/DX2                !
 ! D216  D(25,27,65,67)        152.0714         estimate D2E/DX2                !
 ! D217  D(29,27,65,63)       -140.5129         estimate D2E/DX2                !
 ! D218  D(29,27,65,67)          8.2744         estimate D2E/DX2                !
 ! D219  D(26,28,30,7)           8.4475         estimate D2E/DX2                !
 ! D220  D(26,28,30,32)        153.19           estimate D2E/DX2                !
 ! D221  D(66,28,30,7)        -136.6011         estimate D2E/DX2                !
 ! D222  D(66,28,30,32)          8.1415         estimate D2E/DX2                !
 ! D223  D(26,28,66,64)          7.8596         estimate D2E/DX2                !
 ! D224  D(26,28,66,68)       -146.692          estimate D2E/DX2                !
 ! D225  D(30,28,66,64)        147.0841         estimate D2E/DX2                !
 ! D226  D(30,28,66,68)         -7.4674         estimate D2E/DX2                !
 ! D227  D(5,29,31,33)          -2.4594         estimate D2E/DX2                !
 ! D228  D(5,29,31,69)        -148.2899         estimate D2E/DX2                !
 ! D229  D(27,29,31,33)        151.3782         estimate D2E/DX2                !
 ! D230  D(27,29,31,69)          5.5477         estimate D2E/DX2                !
 ! D231  D(7,30,32,34)          -0.3263         estimate D2E/DX2                !
 ! D232  D(7,30,32,70)         141.2409         estimate D2E/DX2                !
 ! D233  D(28,30,32,34)       -141.6297         estimate D2E/DX2                !
 ! D234  D(28,30,32,70)         -0.0626         estimate D2E/DX2                !
 ! D235  D(29,31,33,35)         -8.4544         estimate D2E/DX2                !
 ! D236  D(29,31,33,73)       -155.912          estimate D2E/DX2                !
 ! D237  D(69,31,33,35)        141.3584         estimate D2E/DX2                !
 ! D238  D(69,31,33,73)         -6.0992         estimate D2E/DX2                !
 ! D239  D(29,31,69,67)          9.1002         estimate D2E/DX2                !
 ! D240  D(29,31,69,71)        155.0452         estimate D2E/DX2                !
 ! D241  D(33,31,69,67)       -140.4408         estimate D2E/DX2                !
 ! D242  D(33,31,69,71)          5.5043         estimate D2E/DX2                !
 ! D243  D(30,32,34,36)          9.6234         estimate D2E/DX2                !
 ! D244  D(30,32,34,74)        154.5602         estimate D2E/DX2                !
 ! D245  D(70,32,34,36)       -135.2267         estimate D2E/DX2                !
 ! D246  D(70,32,34,74)          9.7101         estimate D2E/DX2                !
 ! D247  D(30,32,70,68)         -8.5519         estimate D2E/DX2                !
 ! D248  D(30,32,70,72)       -154.5378         estimate D2E/DX2                !
 ! D249  D(34,32,70,68)        136.7846         estimate D2E/DX2                !
 ! D250  D(34,32,70,72)         -9.2013         estimate D2E/DX2                !
 ! D251  D(31,33,35,9)          13.1896         estimate D2E/DX2                !
 ! D252  D(31,33,35,37)       -143.9044         estimate D2E/DX2                !
 ! D253  D(73,33,35,9)         155.6387         estimate D2E/DX2                !
 ! D254  D(73,33,35,37)         -1.4553         estimate D2E/DX2                !
 ! D255  D(31,33,73,71)          4.3042         estimate D2E/DX2                !
 ! D256  D(31,33,73,75)        146.8748         estimate D2E/DX2                !
 ! D257  D(35,33,73,71)       -142.6429         estimate D2E/DX2                !
 ! D258  D(35,33,73,75)         -0.0723         estimate D2E/DX2                !
 ! D259  D(32,34,36,12)        -11.4805         estimate D2E/DX2                !
 ! D260  D(32,34,36,38)        143.5344         estimate D2E/DX2                !
 ! D261  D(74,34,36,12)       -150.9221         estimate D2E/DX2                !
 ! D262  D(74,34,36,38)          4.0929         estimate D2E/DX2                !
 ! D263  D(32,34,74,72)         -6.2876         estimate D2E/DX2                !
 ! D264  D(32,34,74,76)       -149.1481         estimate D2E/DX2                !
 ! D265  D(36,34,74,72)        138.1106         estimate D2E/DX2                !
 ! D266  D(36,34,74,76)         -4.75           estimate D2E/DX2                !
 ! D267  D(9,35,37,39)          -2.7454         estimate D2E/DX2                !
 ! D268  D(9,35,37,77)        -154.8491         estimate D2E/DX2                !
 ! D269  D(33,35,37,39)        153.5541         estimate D2E/DX2                !
 ! D270  D(33,35,37,77)          1.4504         estimate D2E/DX2                !
 ! D271  D(12,36,38,42)         -0.8            estimate D2E/DX2                !
 ! D272  D(12,36,38,78)        155.8797         estimate D2E/DX2                !
 ! D273  D(34,36,38,42)       -155.326          estimate D2E/DX2                !
 ! D274  D(34,36,38,78)          1.3536         estimate D2E/DX2                !
 ! D275  D(35,37,39,43)          8.2002         estimate D2E/DX2                !
 ! D276  D(35,37,39,79)       -144.6771         estimate D2E/DX2                !
 ! D277  D(77,37,39,43)        161.0946         estimate D2E/DX2                !
 ! D278  D(77,37,39,79)          8.2173         estimate D2E/DX2                !
 ! D279  D(35,37,77,75)          0.0211         estimate D2E/DX2                !
 ! D280  D(35,37,77,81)        141.5019         estimate D2E/DX2                !
 ! D281  D(39,37,77,75)       -152.9248         estimate D2E/DX2                !
 ! D282  D(39,37,77,81)        -11.4439         estimate D2E/DX2                !
 ! D283  D(36,38,42,46)         -2.4779         estimate D2E/DX2                !
 ! D284  D(36,38,42,80)        161.0674         estimate D2E/DX2                !
 ! D285  D(78,38,42,46)       -159.0837         estimate D2E/DX2                !
 ! D286  D(78,38,42,80)          4.4616         estimate D2E/DX2                !
 ! D287  D(36,38,78,76)         -6.2296         estimate D2E/DX2                !
 ! D288  D(36,38,78,81)       -144.2479         estimate D2E/DX2                !
 ! D289  D(42,38,78,76)        150.6578         estimate D2E/DX2                !
 ! D290  D(42,38,78,81)         12.6395         estimate D2E/DX2                !
 ! D291  D(37,39,43,2)        -149.3795         estimate D2E/DX2                !
 ! D292  D(37,39,43,13)         -2.7236         estimate D2E/DX2                !
 ! D293  D(79,39,43,2)           4.6966         estimate D2E/DX2                !
 ! D294  D(79,39,43,13)        151.3525         estimate D2E/DX2                !
 ! D295  D(37,39,79,40)        138.8228         estimate D2E/DX2                !
 ! D296  D(37,39,79,82)         -2.4912         estimate D2E/DX2                !
 ! D297  D(43,39,79,40)        -15.0311         estimate D2E/DX2                !
 ! D298  D(43,39,79,82)       -156.3451         estimate D2E/DX2                !
 ! D299  D(44,40,41,45)         -4.2593         estimate D2E/DX2                !
 ! D300  D(44,40,41,80)       -162.0254         estimate D2E/DX2                !
 ! D301  D(79,40,41,45)        148.2421         estimate D2E/DX2                !
 ! D302  D(79,40,41,80)         -9.5241         estimate D2E/DX2                !
 ! D303  D(41,40,44,2)         156.0693         estimate D2E/DX2                !
 ! D304  D(41,40,44,47)          0.2724         estimate D2E/DX2                !
 ! D305  D(79,40,44,2)           7.2494         estimate D2E/DX2                !
 ! D306  D(79,40,44,47)       -148.5476         estimate D2E/DX2                !
 ! D307  D(41,40,79,39)       -142.7672         estimate D2E/DX2                !
 ! D308  D(41,40,79,82)          3.5272         estimate D2E/DX2                !
 ! D309  D(44,40,79,39)          9.3614         estimate D2E/DX2                !
 ! D310  D(44,40,79,82)        155.6559         estimate D2E/DX2                !
 ! D311  D(40,41,45,4)        -161.4157         estimate D2E/DX2                !
 ! D312  D(40,41,45,48)          4.6616         estimate D2E/DX2                !
 ! D313  D(80,41,45,4)          -7.3897         estimate D2E/DX2                !
 ! D314  D(80,41,45,48)        158.6877         estimate D2E/DX2                !
 ! D315  D(40,41,80,42)        129.4191         estimate D2E/DX2                !
 ! D316  D(40,41,80,82)         11.0104         estimate D2E/DX2                !
 ! D317  D(40,41,80,86)       -108.1351         estimate D2E/DX2                !
 ! D318  D(45,41,80,42)        -26.8436         estimate D2E/DX2                !
 ! D319  D(45,41,80,82)       -145.2524         estimate D2E/DX2                !
 ! D320  D(45,41,80,86)         95.6021         estimate D2E/DX2                !
 ! D321  D(38,42,46,4)         158.7091         estimate D2E/DX2                !
 ! D322  D(38,42,46,14)          3.9381         estimate D2E/DX2                !
 ! D323  D(80,42,46,4)          -5.7314         estimate D2E/DX2                !
 ! D324  D(80,42,46,14)       -160.5025         estimate D2E/DX2                !
 ! D325  D(38,42,80,41)       -132.157          estimate D2E/DX2                !
 ! D326  D(38,42,80,82)        -20.723          estimate D2E/DX2                !
 ! D327  D(38,42,80,86)        104.4969         estimate D2E/DX2                !
 ! D328  D(46,42,80,41)         32.0508         estimate D2E/DX2                !
 ! D329  D(46,42,80,82)        143.4848         estimate D2E/DX2                !
 ! D330  D(46,42,80,86)        -91.2954         estimate D2E/DX2                !
 ! D331  D(2,44,47,48)        -150.8479         estimate D2E/DX2                !
 ! D332  D(2,44,47,49)          16.3786         estimate D2E/DX2                !
 ! D333  D(40,44,47,48)          3.1686         estimate D2E/DX2                !
 ! D334  D(40,44,47,49)        170.395          estimate D2E/DX2                !
 ! D335  D(4,45,48,47)         163.7488         estimate D2E/DX2                !
 ! D336  D(4,45,48,50)          -6.257          estimate D2E/DX2                !
[...]
 Alpha virt. eigenvalues --    1.19429   1.19743   1.19940   1.20211   1.20493
 Alpha virt. eigenvalues --    1.20692   1.21217   1.21560   1.21770   1.22354
 Alpha virt. eigenvalues --    1.22447   1.22559   1.23225   1.23329   1.23467
 Alpha virt. eigenvalues --    1.23737   1.24239   1.24323   1.24400   1.24733
 Alpha virt. eigenvalues --    1.25294   1.25600   1.26030   1.26267   1.26520
 Alpha virt. eigenvalues --    1.26677   1.27073   1.27179   1.27406   1.27726
 Alpha virt. eigenvalues --    1.28234   1.28436   1.28947   1.29057   1.29651
 Alpha virt. eigenvalues --    1.29798   1.30299   1.30419   1.30911   1.31224
 Alpha virt. eigenvalues --    1.31525   1.31866   1.32119   1.32552   1.33033
 Alpha virt. eigenvalues --    1.33238   1.33462   1.33946   1.34442   1.34934
 Alpha virt. eigenvalues --    1.35217   1.35529   1.36025   1.36299   1.36651
 Alpha virt. eigenvalues --    1.37119   1.37319   1.38350   1.38543   1.38881
 Alpha virt. eigenvalues --    1.39605   1.39912   1.40176   1.40684   1.41261
 Alpha virt. eigenvalues --    1.41547   1.42552   1.42866   1.44172   1.44655
 Alpha virt. eigenvalues --    1.45074   1.45245   1.46271   1.46324   1.46849
 Alpha virt. eigenvalues --    1.47350   1.47623   1.47924   1.48184   1.48811
 Alpha virt. eigenvalues --    1.49579   1.49909   1.51293   1.51684   1.51933
 Alpha virt. eigenvalues --    1.52483   1.52930   1.53607   1.54005   1.54192
 Alpha virt. eigenvalues --    1.54397   1.55156   1.55370   1.55781   1.56475
 Alpha virt. eigenvalues --    1.56720   1.57216   1.57505   1.58057   1.59158
 Alpha virt. eigenvalues --    1.59326   1.59979   1.60368   1.60732   1.61517
 Alpha virt. eigenvalues --    1.61847   1.62282   1.63222   1.63406   1.63708
 Alpha virt. eigenvalues --    1.63943   1.64302   1.64531   1.64817   1.65096
 Alpha virt. eigenvalues --    1.65256   1.65624   1.65956   1.66538   1.66761
 Alpha virt. eigenvalues --    1.66912   1.67140   1.67497   1.67726   1.67994
 Alpha virt. eigenvalues --    1.68259   1.68374   1.68542   1.69135   1.69459
 Alpha virt. eigenvalues --    1.69618   1.70052   1.70185   1.70654   1.70727
 Alpha virt. eigenvalues --    1.70989   1.71159   1.71240   1.71455   1.71669
 Alpha virt. eigenvalues --    1.71940   1.71961   1.72267   1.72575   1.72730
 Alpha virt. eigenvalues --    1.72932   1.73111   1.73292   1.73645   1.74105
 Alpha virt. eigenvalues --    1.74154   1.74380   1.74722   1.74965   1.75139
 Alpha virt. eigenvalues --    1.75322   1.75837   1.76326   1.76491   1.76547
 Alpha virt. eigenvalues --    1.76657   1.76851   1.77088   1.77316   1.77650
 Alpha virt. eigenvalues --    1.77893   1.78102   1.78147   1.78487   1.78660
 Alpha virt. eigenvalues --    1.79108   1.79187   1.79479   1.79926   1.80304
 Alpha virt. eigenvalues --    1.80684   1.81136   1.82005   1.82209   1.82436
 Alpha virt. eigenvalues --    1.82851   1.83380   1.83497   1.83975   1.84424
 Alpha virt. eigenvalues --    1.84795   1.85527   1.85917   1.86241   1.86678
 Alpha virt. eigenvalues --    1.87258   1.87576   1.88335   1.88837   1.89204
 Alpha virt. eigenvalues --    1.89855   1.90157   1.90281   1.90868   1.91152
 Alpha virt. eigenvalues --    1.91402   1.92674   1.93079   1.93283   1.93842
 Alpha virt. eigenvalues --    1.93967   1.94291   1.94738   1.94937   1.95212
 Alpha virt. eigenvalues --    1.95607   1.95712   1.95990   1.96223   1.96482
 Alpha virt. eigenvalues --    1.96886   1.97073   1.97373   1.97864   1.97930
 Alpha virt. eigenvalues --    1.98292   1.98518   1.98816   1.99066   1.99133
 Alpha virt. eigenvalues --    1.99482   1.99674   1.99963   2.00130   2.00451
 Alpha virt. eigenvalues --    2.00632   2.00723   2.00787   2.01154   2.01436
 Alpha virt. eigenvalues --    2.01620   2.01808   2.02070   2.02242   2.02552
 Alpha virt. eigenvalues --    2.02863   2.03177   2.03328   2.03394   2.03698
 Alpha virt. eigenvalues --    2.04090   2.04604   2.04677   2.05036   2.05551
 Alpha virt. eigenvalues --    2.05695   2.05852   2.06373   2.06790   2.06849
 Alpha virt. eigenvalues --    2.07929   2.08136   2.08293   2.08976   2.09382
 Alpha virt. eigenvalues --    2.10062   2.10600   2.11017   2.11050   2.11191
 Alpha virt. eigenvalues --    2.12031   2.12452   2.12761   2.12879   2.13303
 Alpha virt. eigenvalues --    2.14143   2.14212   2.14909   2.15356   2.16199
 Alpha virt. eigenvalues --    2.16475   2.16691   2.17282   2.17966   2.18340
 Alpha virt. eigenvalues --    2.18964   2.19313   2.19706   2.20006   2.20485
 Alpha virt. eigenvalues --    2.20938   2.21169   2.21879   2.22060   2.22227
 Alpha virt. eigenvalues --    2.22677   2.23107   2.23348   2.24075   2.24290
 Alpha virt. eigenvalues --    2.24557   2.24676   2.25309   2.25576   2.26012
 Alpha virt. eigenvalues --    2.26430   2.27290   2.27300   2.27664   2.28122
 Alpha virt. eigenvalues --    2.28539   2.28870   2.29238   2.29560   2.29811
 Alpha virt. eigenvalues --    2.29979   2.30765   2.31189   2.31503   2.31953
 Alpha virt. eigenvalues --    2.32321   2.32357   2.33539   2.33718   2.33944
 Alpha virt. eigenvalues --    2.34830   2.35475   2.35989   2.37163   2.37729
 Alpha virt. eigenvalues --    2.38105   2.38700   2.38906   2.39496   2.39991
 Alpha virt. eigenvalues --    2.40574   2.41091   2.41794   2.42571   2.43044
 Alpha virt. eigenvalues --    2.43128   2.43619   2.43998   2.44183   2.45443
 Alpha virt. eigenvalues --    2.45708   2.46565   2.46727   2.47313   2.47597
 Alpha virt. eigenvalues --    2.48259   2.48473   2.49596   2.50003   2.50504
 Alpha virt. eigenvalues --    2.51071   2.51332   2.51609   2.52414   2.53416
 Alpha virt. eigenvalues --    2.53613   2.53743   2.54199   2.54620   2.54782
 Alpha virt. eigenvalues --    2.55082   2.55380   2.55701   2.56067   2.56576
 Alpha virt. eigenvalues --    2.56650   2.57200   2.57401   2.57712   2.58002
 Alpha virt. eigenvalues --    2.58366   2.58475   2.58765   2.58933   2.59261
 Alpha virt. eigenvalues --    2.59414   2.59865   2.59973   2.60347   2.60742
 Alpha virt. eigenvalues --    2.61443   2.61547   2.62172   2.62760   2.63038
 Alpha virt. eigenvalues --    2.63112   2.63754   2.63950   2.64178   2.64378
 Alpha virt. eigenvalues --    2.64944   2.65078   2.65460   2.65674   2.66119
 Alpha virt. eigenvalues --    2.66298   2.66808   2.67233   2.67438   2.67742
 Alpha virt. eigenvalues --    2.67954   2.68270   2.68777   2.69251   2.69562
 Alpha virt. eigenvalues --    2.69671   2.70314   2.70494   2.71299   2.71422
 Alpha virt. eigenvalues --    2.71584   2.72220   2.72608   2.72872   2.73951
 Alpha virt. eigenvalues --    2.74004   2.74476   2.74832   2.75576   2.76389
 Alpha virt. eigenvalues --    2.76705   2.77554   2.77754   2.77993   2.78609
 Alpha virt. eigenvalues --    2.79085   2.79425   2.79760   2.80485   2.80762
 Alpha virt. eigenvalues --    2.80898   2.81499   2.81926   2.82307   2.82485
 Alpha virt. eigenvalues --    2.82983   2.83246   2.83966   2.84365   2.85095
 Alpha virt. eigenvalues --    2.85719   2.85841   2.86273   2.86327   2.87501
 Alpha virt. eigenvalues --    2.88157   2.88460   2.88812   2.89376   2.89803
 Alpha virt. eigenvalues --    2.89989   2.90683   2.90874   2.91167   2.91602
 Alpha virt. eigenvalues --    2.91932   2.92335   2.92455   2.92950   2.93317
 Alpha virt. eigenvalues --    2.93932   2.94534   2.94740   2.95268   2.96130
 Alpha virt. eigenvalues --    2.96315   2.97564   2.98191   2.98318   2.99161
 Alpha virt. eigenvalues --    2.99507   2.99967   3.03042   3.03586   3.03886
 Alpha virt. eigenvalues --    3.04812   3.06105   3.08226   3.09379   3.10168
 Alpha virt. eigenvalues --    3.11251   3.12916   3.14972   3.15232   3.16178
 Alpha virt. eigenvalues --    3.18077   3.19685   3.21011   3.22104   3.23953
 Alpha virt. eigenvalues --    3.24520   3.26549   3.27924   3.29452   3.32111
 Alpha virt. eigenvalues --    3.32508   3.34519   3.35515   3.37613   3.37670
 Alpha virt. eigenvalues --    3.38654   3.42310   3.43631   3.44788   3.46024
 Alpha virt. eigenvalues --    3.47447   3.49742   3.51907   3.53547   3.56554
 Alpha virt. eigenvalues --    3.58807   3.60801   4.00862   4.01314   4.01707
 Alpha virt. eigenvalues --    4.02194   4.03407   4.04022   4.04403   4.04938
 Alpha virt. eigenvalues --    4.05449   4.06236   4.06433   4.06873   4.07472
 Alpha virt. eigenvalues --    4.07802   4.08637   4.08761   4.09877   4.10685
 Alpha virt. eigenvalues --    4.10846   4.12008   4.12072   4.12655   4.14074
 Alpha virt. eigenvalues --    4.15359   4.16377   4.17292   4.17811   4.19402
 Alpha virt. eigenvalues --    4.20144   4.20437   4.21434   4.21686   4.22307
 Alpha virt. eigenvalues --    4.22689   4.24059   4.25020   4.26677   4.27746
 Alpha virt. eigenvalues --    4.28144   4.28401   4.29125   4.29559   4.30227
 Alpha virt. eigenvalues --    4.31960   4.33000   4.33553   4.35017   4.37015
 Alpha virt. eigenvalues --    4.39214   4.40192   4.41402   4.41619   4.44010
 Alpha virt. eigenvalues --    4.44496   4.46612   4.47696   4.48770   4.49565
 Alpha virt. eigenvalues --    4.51650   4.53481   4.55838   4.56731   4.57718
 Alpha virt. eigenvalues --    4.58352   4.60127   4.62717   4.64058   4.65819
 Alpha virt. eigenvalues --    4.67870   4.67994   4.68914   4.73435   4.78503
 Alpha virt. eigenvalues --    4.81920   4.83453   4.84595   4.85308   4.88845
 Alpha virt. eigenvalues --    4.92099   4.94601   4.96752   5.03719   5.08063
 Alpha virt. eigenvalues --    5.11348   5.13465   5.18570   5.21377   5.25879
          Condensed to atoms (all electrons):
 Mulliken charges:
               1
     1  C   -0.027977
     2  C   -0.037239
     3  C   -0.021791
     4  C   -0.377839
     5  C    0.047989
     6  C    0.006867
     7  C   -0.016743
     8  C    0.087269
     9  C    0.043257
    10  C    0.078825
    11  C    0.086478
    12  C    0.048320
    13  C   -0.027658
    14  C    0.005326
    15  C   -0.008960
    16  C    0.008105
    17  C   -0.002469
    18  C    0.049522
    19  C   -0.012822
    20  C    0.048690
    21  C   -0.023569
    22  C   -0.022674
    23  C   -0.001416
    24  C   -0.016354
    25  C   -0.019856
    26  C   -0.000777
    27  C   -0.020293
    28  C   -0.024167
    29  C    0.049713
    30  C   -0.016599
    31  C   -0.032472
    32  C   -0.008344
    33  C   -0.030345
    34  C   -0.022237
    35  C    0.041258
    36  C    0.040478
    37  C    0.046508
    38  C    0.069907
    39  C    0.041556
    40  C   -0.000149
    41  C    0.080985
    42  C    0.118296
    43  C   -0.022450
    44  C    0.077028
    45  C    0.145822
    46  C    0.075583
    47  C    0.102951
    48  C    0.126941
    49  C   -0.355833
    50  C   -0.374131
    51  C    0.089409
    52  C    0.088276
    53  C    0.025242
    54  C    0.002631
    55  C   -0.000037
    56  C    0.007131
    57  C    0.048476
    58  C   -0.030111
    59  C    0.056253
    60  C   -0.033160
    61  C   -0.020723
    62  C   -0.022139
    63  C   -0.031003
    64  C    0.053482
    65  C   -0.030377
    66  C    0.047452
    67  C    0.050350
    68  C    0.047109
    69  C   -0.019276
    70  C   -0.023613
    71  C   -0.009183
    72  C    0.002656
    73  C   -0.007781
    74  C   -0.007159
    75  C   -0.001517
    76  C    0.000818
    77  C   -0.023965
    78  C   -0.044245
    79  C    0.012733
    80  C   -0.366155
    81  C    0.005689
    82  C    0.072574
    83  C    0.035841
    84  C    0.047173
    85  Cl  -0.000850
    86  Cl  -0.012219
    87  Cl   0.000858
    88  Cl  -0.013147
 Sum of Mulliken charges =  -0.00000
 Mulliken charges with hydrogens summed into heavy atoms:
               1
     1  C   -0.027977
     2  C   -0.037239
     3  C   -0.021791
     4  C   -0.377839
     5  C    0.047989
     6  C    0.006867
     7  C   -0.016743
     8  C    0.087269
     9  C    0.043257
    10  C    0.078825
    11  C    0.086478
    12  C    0.048320
    13  C   -0.027658
    14  C    0.005326
    15  C   -0.008960
    16  C    0.008105
    17  C   -0.002469
    18  C    0.049522
    19  C   -0.012822
    20  C    0.048690
    21  C   -0.023569
    22  C   -0.022674
    23  C   -0.001416
    24  C   -0.016354
    25  C   -0.019856
    26  C   -0.000777
    27  C   -0.020293
    28  C   -0.024167
    29  C    0.049713
    30  C   -0.016599
    31  C   -0.032472
    32  C   -0.008344
    33  C   -0.030345
    34  C   -0.022237
    35  C    0.041258
    36  C    0.040478
    37  C    0.046508
    38  C    0.069907
    39  C    0.041556
    40  C   -0.000149
    41  C    0.080985
    42  C    0.118296
    43  C   -0.022450
    44  C    0.077028
    45  C    0.145822
    46  C    0.075583
    47  C    0.102951
    48  C    0.126941
    49  C   -0.355833
    50  C   -0.374131
    51  C    0.089409
    52  C    0.088276
    53  C    0.025242
    54  C    0.002631
    55  C   -0.000037
    56  C    0.007131
    57  C    0.048476
    58  C   -0.030111
    59  C    0.056253
    60  C   -0.033160
    61  C   -0.020723
    62  C   -0.022139
    63  C   -0.031003
    64  C    0.053482
    65  C   -0.030377
    66  C    0.047452
    67  C    0.050350
    68  C    0.047109
    69  C   -0.019276
    70  C   -0.023613
    71  C   -0.009183
    72  C    0.002656
    73  C   -0.007781
    74  C   -0.007159
    75  C   -0.001517
    76  C    0.000818
    77  C   -0.023965
    78  C   -0.044245
    79  C    0.012733
    80  C   -0.366155
    81  C    0.005689
    82  C    0.072574
    83  C    0.035841
    84  C    0.047173
    85  Cl  -0.000850
    86  Cl  -0.012219
    87  Cl   0.000858
    88  Cl  -0.013147
 Electronic spatial extent (au):  <R**2>=          41920.7796
 Charge=             -0.0000 electrons
 Dipole moment (field-independent basis, Debye):
    X=             -5.4521    Y=             -1.2035    Z=              0.4452  Tot=              5.6011
 Quadrupole moment (field-independent basis, Debye-Ang):
   XX=           -530.7575   YY=           -511.5463   ZZ=           -500.8475
   XY=             -5.2730   XZ=              1.3497   YZ=              2.6053
 Traceless Quadrupole moment (field-independent basis, Debye-Ang):
   XX=            -16.3738   YY=              2.8375   ZZ=             13.5363
   XY=             -5.2730   XZ=              1.3497   YZ=              2.6053
 Octapole moment (field-independent basis, Debye-Ang**2):
  XXX=            -16.6535  YYY=            -14.6207  ZZZ=             -6.0516  XYY=            -16.0439
  XXY=             12.9898  XXZ=             -5.3260  XZZ=             30.4633  YZZ=              7.2124
  YYZ=             17.5792  XYZ=             -3.9961
 Hexadecapole moment (field-independent basis, Debye-Ang**3):
 XXXX=         -24421.6785 YYYY=         -20473.8933 ZZZZ=         -16752.7224 XXXY=             79.7215
 XXXZ=            -53.1908 YYYX=            -37.4520 YYYZ=             42.7945 ZZZX=             16.1243
 ZZZY=             18.3044 XXYY=          -7576.5052 XXZZ=          -6825.2773 YYZZ=          -6227.7911
 XXYZ=            -26.8853 YYXZ=             63.3080 ZZXY=              1.7815
 N-N= 1.717541963016D+04 E-N=-4.612962816278D+04  KE= 5.006222014242D+03
 No NMR shielding tensors so no spin-rotation constants.
 Leave Link  601 at Mon Jun 27 14:22:14 2022, MaxMem=  1342177280 cpu:              22.7 elap:               1.2
 (Enter /home/mkliu/g16/l9999.exe)
 1\1\GINC-NODE02\FOpt\RB3LYP\6-31G(d,p)\C84Cl4\MKLIU\27-Jun-2022\0\\#P 
 opt b3lyp/6-31G(d, p) empiricaldispersion=GD3\\force\\0,1\C,8.47574036
 94,18.8410477134,10.7663428101\C,12.3698084423,20.1392200943,8.9469030
 894\C,8.2430945403,26.8884308421,10.5359129332\C,12.4864997223,25.7575
 87753,8.9066809935\C,8.0018849261,19.0708339684,9.4490969122\C,12.0412
 152823,19.4981400451,10.2070132894\C,7.9295865398,26.8626550229,9.1477
 371041\C,11.8723933803,26.1733574797,10.220581218\C,8.9825143297,19.16
 69000413,8.3591540898\C,12.3198494183,20.1256574326,11.392158701\C,12.
 13021285,25.5253778279,11.3835556339\C,8.9300901839,26.6591345454,8.15
 50727743\C,10.3434687502,19.0065366244,8.6831785166\C,10.2660588771,26
 .6822721809,8.6211466923\C,10.7921188187,18.7890971771,10.0251089153\C
 ,10.5897129178,26.7796593427,10.0058442908\C,9.8673302479,18.725184404
 ,11.0569435417\C,9.5788895042,26.7800470834,11.0048823173\C,10.1438913
 807,19.4240104519,12.2988845905\C,9.8433147108,26.0553292748,12.239908
 4471\C,8.9247815727,19.9872003079,12.7919984568\C,8.7560975135,25.4357
 97025,12.9205746726\C,7.8711387114,19.5180011456,11.9058429841\C,7.413
 6577437,25.5151003863,12.3855448278\C,6.7246958227,20.2459880076,11.74
 96144978\C,7.1583399578,26.2256985119,11.239654244\C,6.0939664922,20.3
 30058653,10.4612427655\C,6.1957262307,25.7381617195,10.2711449937\C,6.
 7216564535,19.7577914513,9.3148579674\C,6.6292967048,26.2414267199,9.0
 022627177\C,6.396980811,20.3500423127,8.0842860356\C,6.3207175432,25.5
 692271678,7.8479866555\C,7.3294658632,20.3464229642,6.9665540354\C,7.2
 823655191,25.4783381826,6.7600067181\C,8.6530646946,19.8974145972,7.12
 37981433\C,8.6257083381,25.9064008922,6.9433649746\C,9.7042234565,20.5
 913960786,6.3706030245\C,9.6927297357,25.1593514016,6.2833170769\C,11.
 0578519711,20.5930648997,6.8869002209\C,12.7409279332,22.1928296579,7.
 7553621122\C,12.7753899556,23.6056935595,7.7514168099\C,11.0415205136,
 25.1959651516,6.8450437278\C,11.375972166,19.7842982488,8.0051605151\C
 ,12.9430213172,21.4509943925,8.9368509105\C,12.9252679247,24.302905612
 ,8.9297288815\C,11.3054255009,25.9633518668,7.9458749712\C,13.18383327
 47,22.1741670313,10.157192157\C,13.1437713194,23.5767131279,10.1517815
 953\C,13.1660273124,21.3880927984,11.4747596547\C,13.0769757407,24.344
 1844539,11.4779445918\C,12.4373238259,22.1616183262,12.5564301446\C,12
 .3963060378,23.5139455434,12.5466661842\C,11.3372020543,20.1248294299,
 12.4389052131\C,11.1071770792,25.4358152359,12.3922201573\C,11.3346624
 837,21.4044726536,13.0812202305\C,11.2493376642,24.1866041624,13.06945
 00689\C,8.8747626809,21.2809220952,13.3662839493\C,8.8854617911,24.158
 7287306,13.5271007206\C,7.6188439481,22.0317919621,13.2350446801\C,7.6
 355723856,23.434871106,13.3498619045\C,6.5570033564,21.4965078627,12.4
 47989503\C,6.7344792609,24.2651739737,12.6122564319\C,5.7323326333,22.
 3208680459,11.6280090547\C,5.845918576,23.7267501705,11.6338144645\C,5
 .4381932305,21.5943060478,10.399191812\C,5.5931826823,24.4640139654,10
 .3916297693\C,5.2351586973,22.266747897,9.1782321085\C,5.2716143052,23
 .7338398545,9.1577673812\C,5.5930593661,21.5336226579,8.0049070153\C,5
 .5612697852,24.3502477017,7.9161961761\C,5.9320819485,22.2072809944,6.
 7811361931\C,5.9139835457,23.5862645677,6.7338446324\C,6.9957830834,21
 .4640194781,6.1309680887\C,6.9655479287,24.3003895177,6.0269460081\C,7
 .9913114031,22.1369697522,5.4418744566\C,7.9872483075,23.5942216357,5.
 3913274389\C,9.3425951474,21.6873184379,5.5430947297\C,9.3311855268,24
 .0538619383,5.4699148676\C,11.8735145284,21.7359411153,6.7018540474\C,
 12.0719350444,24.1339919541,6.4971121517\C,10.1849743676,22.8613947305
 ,5.4279403133\C,11.4301947489,22.8694284575,5.9758907419\C,10.13092704
 15,22.0155104468,13.5233093315\C,10.1197196112,23.4691184178,13.564622
 6208\Cl,13.9032063304,26.8586960066,8.4486052328\Cl,13.2964865936,24.8
 020948162,5.2708912385\Cl,14.7752572086,24.8753774153,11.9762682401\Cl
 ,14.9064272083,20.9615254741,11.9630311092\\Version=ES64L-G16RevA.03\S
 tate=1-A\HF=-5041.8283715\RMSD=4.311e-09\RMSF=7.673e-05\Dipole=-2.1145
 19,-0.6072466,0.1268534\Quadrupole=-11.1186795,7.2041833,3.9144962,-6.
 4515736,0.4154113,3.1418524\PG=C01 [X(C84Cl4)]\\@


 LAWS OF PROGRAMMING DEFINITION:  A WORKING PROGRAM
                                  IS ONE THAT HAS
                                  ONLY UNOBSERVED
                                  BUGS.
 Job cpu time:       1 days  0 hours 26 minutes  4.7 seconds.
 Elapsed time:       0 days  1 hours  1 minutes 11.3 seconds.
 File lengths (MBytes):  RWF=   1098 Int=      0 D2E=      0 Chk=    138 Scr=      1
 Normal termination of Gaussian 16 at Mon Jun 27 14:22:16 2022.
