 Entering Gaussian System, Link 0=g16
 Input=4_addons_C84_11_Cl22_rank_3.gjf
 Output=4_addons_C84_11_Cl22_rank_3.log
 Initial command:
 /home/mkliu/g16/l1.exe "/data/scratch/Gau-119295.inp" -scrdir="/data/scratch/"
 Entering Link 1 = /home/mkliu/g16/l1.exe PID=    119296.
  
 Copyright (c) 1988,1990,1992,1993,1995,1998,2003,2009,2016,
            Gaussian, Inc.  All Rights Reserved.
  
 This is part of the Gaussian(R) 16 program.  It is based on
 the Gaussian(R) 09 system (copyright 2009, Gaussian, Inc.),
 the Gaussian(R) 03 system (copyright 2003, Gaussian, Inc.),
 the Gaussian(R) 98 system (copyright 1998, Gaussian, Inc.),
 the Gaussian(R) 94 system (copyright 1995, Gaussian, Inc.),
 the Gaussian 92(TM) system (copyright 1992, Gaussian, Inc.),
 the Gaussian 90(TM) system (copyright 1990, Gaussian, Inc.),
 the Gaussian 88(TM) system (copyright 1988, Gaussian, Inc.),
 the Gaussian 86(TM) system (copyright 1986, Carnegie Mellon
 University), and the Gaussian 82(TM) system (copyright 1983,
 Carnegie Mellon University). Gaussian is a federally registered
 trademark of Gaussian, Inc.
  
 This software contains proprietary and confidential information,
 including trade secrets, belonging to Gaussian, Inc.
  
 This software is provided under written license and may be
 used, copied, transmitted, or stored only in accord with that
 written license.
  
 The following legend is applicable only to US Government
 contracts under FAR:
  
                    RESTRICTED RIGHTS LEGEND
  
 Use, reproduction and disclosure by the US Government is
 subject to restrictions as set forth in subparagraphs (a)
 and (c) of the Commercial Computer Software - Restricted
 Rights clause in FAR 52.227-19.
  
 Gaussian, Inc.
 340 Quinnipiac St., Bldg. 40, Wallingford CT 06492
  
  
 ---------------------------------------------------------------
 Warning -- This program may not be used in any manner that
 competes with the business of Gaussian, Inc. or will provide
 assistance to any competitor of Gaussian, Inc.  The licensee
 of this program is prohibited from giving any competitor of
 Gaussian, Inc. access to this program.  By using this program,
 the user acknowledges that Gaussian, Inc. is engaged in the
 business of creating and licensing software in the field of
 computational chemistry and represents and warrants to the
 licensee that it is not a competitor of Gaussian, Inc. and that
 it will not use this program in any manner prohibited above.
 ---------------------------------------------------------------
  

 Cite this work as:
 Gaussian 16, Revision A.03,
 M. J. Frisch, G. W. Trucks, H. B. Schlegel, G. E. Scuseria, 
 M. A. Robb, J. R. Cheeseman, G. Scalmani, V. Barone, 
 G. A. Petersson, H. Nakatsuji, X. Li, M. Caricato, A. V. Marenich, 
 J. Bloino, B. G. Janesko, R. Gomperts, B. Mennucci, H. P. Hratchian, 
 J. V. Ortiz, A. F. Izmaylov, J. L. Sonnenberg, D. Williams-Young, 
 F. Ding, F. Lipparini, F. Egidi, J. Goings, B. Peng, A. Petrone, 
 T. Henderson, D. Ranasinghe, V. G. Zakrzewski, J. Gao, N. Rega, 
 G. Zheng, W. Liang, M. Hada, M. Ehara, K. Toyota, R. Fukuda, 
 J. Hasegawa, M. Ishida, T. Nakajima, Y. Honda, O. Kitao, H. Nakai, 
 T. Vreven, K. Throssell, J. A. Montgomery, Jr., J. E. Peralta, 
 F. Ogliaro, M. J. Bearpark, J. J. Heyd, E. N. Brothers, K. N. Kudin, 
 V. N. Staroverov, T. A. Keith, R. Kobayashi, J. Normand, 
 K. Raghavachari, A. P. Rendell, J. C. Burant, S. S. Iyengar, 
 J. Tomasi, M. Cossi, J. M. Millam, M. Klene, C. Adamo, R. Cammi, 
 J. W. Ochterski, R. L. Martin, K. Morokuma, O. Farkas, 
 J. B. Foresman, and D. J. Fox, Gaussian, Inc., Wallingford CT, 2016.
 
 ******************************************
 Gaussian 16:  ES64L-G16RevA.03 25-Dec-2016
                26-Jun-2022 
 ******************************************
 %mem=10GB
 %chk=4_addons_C84_11_Cl22_rank_3.chk
 %nprocshared=24
 Will use up to   24 processors via shared memory.
 ------------------------------------------------
 #P opt b3lyp/6-31G(d, p) empiricaldispersion=GD3
 ------------------------------------------------
 1/18=20,19=15,26=3,38=1/1,3;
 2/9=110,12=2,17=6,18=5,40=1/2;
 3/5=1,6=6,7=101,11=2,25=1,30=1,71=1,74=-5,124=31/1,2,3;
 4//1;
 5/5=2,38=5/2;
 6/7=2,8=2,9=2,10=2,28=1/1;
 7//1,2,3,16;
 1/18=20,19=15,26=3/3(2);
 2/9=110/2;
 99//99;
 2/9=110/2;
 3/5=1,6=6,7=101,11=2,25=1,30=1,71=1,74=-5,124=31/1,2,3;
 4/5=5,16=3,69=1/1;
 5/5=2,38=5/2;
 7//1,2,3,16;
 1/18=20,19=15,26=3/3(-5);
 2/9=110/2;
 6/7=2,8=2,9=2,10=2,19=2,28=1/1;
 99/9=1/99;
 Leave Link    1 at Sun Jun 26 13:54:12 2022, MaxMem=  1342177280 cpu:               0.7 elap:               0.1
 (Enter /home/mkliu/g16/l101.exe)
 -----
 force
 -----
 Symbolic Z-matrix:
 Charge =  0 Multiplicity = 1
 C                     8.50093   18.86379   10.7713 
 C                     12.35985   20.15036   8.96244 
 C                     8.26677   26.85895   10.52437 
 C                     12.47501   25.73794   8.91571 
 C                     8.0213    19.08384   9.46474 
 C                     12.04214   19.50574   10.19875 
 C                     7.95644   26.83504   9.15344 
 C                     11.86936   26.16939   10.22068 
 C                     8.98209   19.18217   8.38308 
 C                     12.3178   20.15252   11.38283 
 C                     12.11601   25.49671   11.37721 
 C                     8.94457   26.58212   8.17163 
 C                     10.34039   19.02212   8.69521 
 C                     10.26858   26.62254   8.64248 
 C                     10.80147   18.7957   10.02592 
 C                     10.59808   26.77456   10.02226 
 C                     9.88795   18.74061   11.06012 
 C                     9.59763   26.77055   11.01218 
 C                     10.16744   19.42822   12.29955 
 C                     9.85773   26.06067   12.24146 
 C                     8.95488   20.00269   12.78238 
 C                     8.78178   25.42104   12.89875 
 C                     7.91066   19.53155   11.90597 
 C                     7.44655   25.49364   12.36235 
 C                     6.76232   20.25581   11.75423 
 C                     7.1869    26.20091   11.2217 
 C                     6.13321   20.33681   10.4731 
 C                     6.2388    25.70081   10.25999 
 C                     6.7499    19.76095   9.34031 
 C                     6.65875   26.20634   9.00103 
 C                     6.41824   20.3532   8.11643 
 C                     6.3422    25.54917   7.85076 
 C                     7.33992   20.35073   7.01224 
 C                     7.20579   25.62563   6.61603 
 C                     8.65992   19.9121   7.1712 
 C                     8.66535   25.82384   6.99135 
 C                     9.69235   20.61077   6.43356 
 C                     9.68107   25.10297   6.37572 
 C                     11.03606   20.604    6.93006 
 C                     12.73412   22.18207   7.77317 
 C                     12.76626   23.6044   7.76741 
 C                     11.01043   25.13415   6.89543 
 C                     11.35441   19.79147   8.02386 
 C                     12.95595   21.4351   8.94214 
 C                     12.92975   24.29926   8.93086 
 C                     11.29397   25.91549   7.98485 
 C                     13.20607   22.14304   10.16998 
 C                     13.16367   23.58855   10.16495 
 C                     12.92473   21.4554   11.37178 
 C                     12.84421   24.24382   11.36904 
 C                     12.41222   22.14586   12.50479 
 C                     12.37305   23.52089   12.49168 
 C                     11.35367   20.11581   12.45703 
 C                     11.1131   25.4433   12.40936 
 C                     11.3425   21.38881   13.10225 
 C                     11.25347   24.20035   13.08329 
 C                     8.90718   21.28927   13.35271 
 C                     8.91445   24.14726   13.49615 
 C                     7.66464   22.02762   13.21685 
 C                     7.67656   23.42582   13.31523 
 C                     6.60546   21.50092   12.44185 
 C                     6.77776   24.24588   12.58478 
 C                     5.78236   22.3182   11.62235 
 C                     5.88635   23.7168   11.62029 
 C                     5.48459   21.59818   10.41131 
 C                     5.63564   24.43618   10.38814 
 C                     5.27584   22.26821   9.1959 
 C                     5.32893   23.71625   9.17519 
 C                     5.61907   21.53099   8.03881 
 C                     5.63532   24.32902   7.93842 
 C                     5.9571    22.19261   6.817 
 C                     5.97013   23.57148   6.76473 
 C                     7.00232   21.45945   6.1808 
 C                     6.97121   24.26954   6.02047 
 C                     7.99382   22.1524   5.50642 
 C                     7.96434   23.57537   5.40039 
 C                     9.33909   21.71243   5.62597 
 C                     9.3633    24.10919   5.26635 
 C                     11.8554   21.74155   6.74942 
 C                     12.06295   24.12141   6.52447 
 C                     10.17784   22.85595   5.46179 
 C                     11.41206   22.87255   6.01887 
 C                     10.15291   22.0121   13.51941 
 C                     10.14382   23.46484   13.55607 
 Cl                    13.85557   26.80894   8.43482 
 Cl                    13.23066   24.84145   5.35135 
 Cl                    9.66918   24.91109   3.67838 
 Cl                    6.70628   26.97445   5.51634 
 
 ITRead=  0  0  0  0  0  0  0  0  0  0  0  0  0  0  0  0  0  0  0  0
 ITRead=  0  0  0  0  0  0  0  0  0  0  0  0  0  0  0  0  0  0  0  0
 ITRead=  0  0  0  0  0  0  0  0  0  0  0  0  0  0  0  0  0  0  0  0
 ITRead=  0  0  0  0  0  0  0  0  0  0  0  0  0  0  0  0  0  0  0  0
 ITRead=  0  0  0  0  0  0  0  0
 MicOpt= -1 -1 -1 -1 -1 -1 -1 -1 -1 -1 -1 -1 -1 -1 -1 -1 -1 -1 -1 -1
 MicOpt= -1 -1 -1 -1 -1 -1 -1 -1 -1 -1 -1 -1 -1 -1 -1 -1 -1 -1 -1 -1
 MicOpt= -1 -1 -1 -1 -1 -1 -1 -1 -1 -1 -1 -1 -1 -1 -1 -1 -1 -1 -1 -1
 MicOpt= -1 -1 -1 -1 -1 -1 -1 -1 -1 -1 -1 -1 -1 -1 -1 -1 -1 -1 -1 -1
 MicOpt= -1 -1 -1 -1 -1 -1 -1 -1
 NAtoms=     88 NQM=       88 NQMF=       0 NMMI=      0 NMMIF=      0
                NMic=       0 NMicF=      0.
                    Isotopes and Nuclear Properties:
 (Nuclear quadrupole moments (NQMom) in fm**2, nuclear magnetic moments (NMagM)
  in nuclear magnetons)

  Atom         1           2           3           4           5           6           7           8           9          10
 IAtWgt=          12          12          12          12          12          12          12          12          12          12
 AtmWgt=  12.0000000  12.0000000  12.0000000  12.0000000  12.0000000  12.0000000  12.0000000  12.0000000  12.0000000  12.0000000
 NucSpn=           0           0           0           0           0           0           0           0           0           0
 AtZEff=  -0.0000000  -0.0000000  -0.0000000  -0.0000000  -0.0000000  -0.0000000  -0.0000000  -0.0000000  -0.0000000  -0.0000000
 NQMom=    0.0000000   0.0000000   0.0000000   0.0000000   0.0000000   0.0000000   0.0000000   0.0000000   0.0000000   0.0000000
 NMagM=    0.0000000   0.0000000   0.0000000   0.0000000   0.0000000   0.0000000   0.0000000   0.0000000   0.0000000   0.0000000
 AtZNuc=   6.0000000   6.0000000   6.0000000   6.0000000   6.0000000   6.0000000   6.0000000   6.0000000   6.0000000   6.0000000

  Atom        11          12          13          14          15          16          17          18          19          20
 IAtWgt=          12          12          12          12          12          12          12          12          12          12
 AtmWgt=  12.0000000  12.0000000  12.0000000  12.0000000  12.0000000  12.0000000  12.0000000  12.0000000  12.0000000  12.0000000
 NucSpn=           0           0           0           0           0           0           0           0           0           0
 AtZEff=  -0.0000000  -0.0000000  -0.0000000  -0.0000000  -0.0000000  -0.0000000  -0.0000000  -0.0000000  -0.0000000  -0.0000000
 NQMom=    0.0000000   0.0000000   0.0000000   0.0000000   0.0000000   0.0000000   0.0000000   0.0000000   0.0000000   0.0000000
 NMagM=    0.0000000   0.0000000   0.0000000   0.0000000   0.0000000   0.0000000   0.0000000   0.0000000   0.0000000   0.0000000
 AtZNuc=   6.0000000   6.0000000   6.0000000   6.0000000   6.0000000   6.0000000   6.0000000   6.0000000   6.0000000   6.0000000

  Atom        21          22          23          24          25          26          27          28          29          30
 IAtWgt=          12          12          12          12          12          12          12          12          12          12
 AtmWgt=  12.0000000  12.0000000  12.0000000  12.0000000  12.0000000  12.0000000  12.0000000  12.0000000  12.0000000  12.0000000
 NucSpn=           0           0           0           0           0           0           0           0           0           0
 AtZEff=  -0.0000000  -0.0000000  -0.0000000  -0.0000000  -0.0000000  -0.0000000  -0.0000000  -0.0000000  -0.0000000  -0.0000000
 NQMom=    0.0000000   0.0000000   0.0000000   0.0000000   0.0000000   0.0000000   0.0000000   0.0000000   0.0000000   0.0000000
 NMagM=    0.0000000   0.0000000   0.0000000   0.0000000   0.0000000   0.0000000   0.0000000   0.0000000   0.0000000   0.0000000
 AtZNuc=   6.0000000   6.0000000   6.0000000   6.0000000   6.0000000   6.0000000   6.0000000   6.0000000   6.0000000   6.0000000

  Atom        31          32          33          34          35          36          37          38          39          40
 IAtWgt=          12          12          12          12          12          12          12          12          12          12
 AtmWgt=  12.0000000  12.0000000  12.0000000  12.0000000  12.0000000  12.0000000  12.0000000  12.0000000  12.0000000  12.0000000
 NucSpn=           0           0           0           0           0           0           0           0           0           0
 AtZEff=  -0.0000000  -0.0000000  -0.0000000  -0.0000000  -0.0000000  -0.0000000  -0.0000000  -0.0000000  -0.0000000  -0.0000000
 NQMom=    0.0000000   0.0000000   0.0000000   0.0000000   0.0000000   0.0000000   0.0000000   0.0000000   0.0000000   0.0000000
 NMagM=    0.0000000   0.0000000   0.0000000   0.0000000   0.0000000   0.0000000   0.0000000   0.0000000   0.0000000   0.0000000
 AtZNuc=   6.0000000   6.0000000   6.0000000   6.0000000   6.0000000   6.0000000   6.0000000   6.0000000   6.0000000   6.0000000

  Atom        41          42          43          44          45          46          47          48          49          50
 IAtWgt=          12          12          12          12          12          12          12          12          12          12
 AtmWgt=  12.0000000  12.0000000  12.0000000  12.0000000  12.0000000  12.0000000  12.0000000  12.0000000  12.0000000  12.0000000
 NucSpn=           0           0           0           0           0           0           0           0           0           0
 AtZEff=  -0.0000000  -0.0000000  -0.0000000  -0.0000000  -0.0000000  -0.0000000  -0.0000000  -0.0000000  -0.0000000  -0.0000000
 NQMom=    0.0000000   0.0000000   0.0000000   0.0000000   0.0000000   0.0000000   0.0000000   0.0000000   0.0000000   0.0000000
 NMagM=    0.0000000   0.0000000   0.0000000   0.0000000   0.0000000   0.0000000   0.0000000   0.0000000   0.0000000   0.0000000
 AtZNuc=   6.0000000   6.0000000   6.0000000   6.0000000   6.0000000   6.0000000   6.0000000   6.0000000   6.0000000   6.0000000

  Atom        51          52          53          54          55          56          57          58          59          60
 IAtWgt=          12          12          12          12          12          12          12          12          12          12
 AtmWgt=  12.0000000  12.0000000  12.0000000  12.0000000  12.0000000  12.0000000  12.0000000  12.0000000  12.0000000  12.0000000
 NucSpn=           0           0           0           0           0           0           0           0           0           0
 AtZEff=  -0.0000000  -0.0000000  -0.0000000  -0.0000000  -0.0000000  -0.0000000  -0.0000000  -0.0000000  -0.0000000  -0.0000000
 NQMom=    0.0000000   0.0000000   0.0000000   0.0000000   0.0000000   0.0000000   0.0000000   0.0000000   0.0000000   0.0000000
 NMagM=    0.0000000   0.0000000   0.0000000   0.0000000   0.0000000   0.0000000   0.0000000   0.0000000   0.0000000   0.0000000
 AtZNuc=   6.0000000   6.0000000   6.0000000   6.0000000   6.0000000   6.0000000   6.0000000   6.0000000   6.0000000   6.0000000

  Atom        61          62          63          64          65          66          67          68          69          70
 IAtWgt=          12          12          12          12          12          12          12          12          12          12
 AtmWgt=  12.0000000  12.0000000  12.0000000  12.0000000  12.0000000  12.0000000  12.0000000  12.0000000  12.0000000  12.0000000
 NucSpn=           0           0           0           0           0           0           0           0           0           0
 AtZEff=  -0.0000000  -0.0000000  -0.0000000  -0.0000000  -0.0000000  -0.0000000  -0.0000000  -0.0000000  -0.0000000  -0.0000000
 NQMom=    0.0000000   0.0000000   0.0000000   0.0000000   0.0000000   0.0000000   0.0000000   0.0000000   0.0000000   0.0000000
 NMagM=    0.0000000   0.0000000   0.0000000   0.0000000   0.0000000   0.0000000   0.0000000   0.0000000   0.0000000   0.0000000
 AtZNuc=   6.0000000   6.0000000   6.0000000   6.0000000   6.0000000   6.0000000   6.0000000   6.0000000   6.0000000   6.0000000

  Atom        71          72          73          74          75          76          77          78          79          80
 IAtWgt=          12          12          12          12          12          12          12          12          12          12
 AtmWgt=  12.0000000  12.0000000  12.0000000  12.0000000  12.0000000  12.0000000  12.0000000  12.0000000  12.0000000  12.0000000
 NucSpn=           0           0           0           0           0           0           0           0           0           0
 AtZEff=  -0.0000000  -0.0000000  -0.0000000  -0.0000000  -0.0000000  -0.0000000  -0.0000000  -0.0000000  -0.0000000  -0.0000000
 NQMom=    0.0000000   0.0000000   0.0000000   0.0000000   0.0000000   0.0000000   0.0000000   0.0000000   0.0000000   0.0000000
 NMagM=    0.0000000   0.0000000   0.0000000   0.0000000   0.0000000   0.0000000   0.0000000   0.0000000   0.0000000   0.0000000
 AtZNuc=   6.0000000   6.0000000   6.0000000   6.0000000   6.0000000   6.0000000   6.0000000   6.0000000   6.0000000   6.0000000

  Atom        81          82          83          84          85          86          87          88
 IAtWgt=          12          12          12          12          35          35          35          35
 AtmWgt=  12.0000000  12.0000000  12.0000000  12.0000000  34.9688527  34.9688527  34.9688527  34.9688527
 NucSpn=           0           0           0           0           3           3           3           3
 AtZEff=  -0.0000000  -0.0000000  -0.0000000  -0.0000000  -0.0000000  -0.0000000  -0.0000000  -0.0000000
 NQMom=    0.0000000   0.0000000   0.0000000   0.0000000  -8.1650000  -8.1650000  -8.1650000  -8.1650000
 NMagM=    0.0000000   0.0000000   0.0000000   0.0000000   0.8218740   0.8218740   0.8218740   0.8218740
 AtZNuc=   6.0000000   6.0000000   6.0000000   6.0000000  17.0000000  17.0000000  17.0000000  17.0000000
 Leave Link  101 at Sun Jun 26 13:54:12 2022, MaxMem=  1342177280 cpu:               6.6 elap:               0.3
 (Enter /home/mkliu/g16/l103.exe)

 GradGradGradGradGradGradGradGradGradGradGradGradGradGradGradGradGradGrad
 Berny optimization.
 Initialization pass.
                           ----------------------------
                           !    Initial Parameters    !
                           ! (Angstroms and Degrees)  !
 --------------------------                            --------------------------
 ! Name  Definition              Value          Derivative Info.                !
 --------------------------------------------------------------------------------
 ! R1    R(1,5)                  1.4091         estimate D2E/DX2                !
 ! R2    R(1,17)                 1.4221         estimate D2E/DX2                !
 ! R3    R(1,23)                 1.4428         estimate D2E/DX2                !
 ! R4    R(2,6)                  1.43           estimate D2E/DX2                !
 ! R5    R(2,43)                 1.4215         estimate D2E/DX2                !
 ! R6    R(2,44)                 1.4164         estimate D2E/DX2                !
 ! R7    R(3,7)                  1.4058         estimate D2E/DX2                !
 ! R8    R(3,18)                 1.4202         estimate D2E/DX2                !
 ! R9    R(3,26)                 1.4441         estimate D2E/DX2                !
 ! R10   R(4,8)                  1.502          estimate D2E/DX2                !
 ! R11   R(4,45)                 1.5089         estimate D2E/DX2                !
 ! R12   R(4,46)                 1.5142         estimate D2E/DX2                !
 ! R13   R(4,85)                 1.8123         estimate D2E/DX2                !
 ! R14   R(5,9)                  1.4501         estimate D2E/DX2                !
 ! R15   R(5,29)                 1.4458         estimate D2E/DX2                !
 ! R16   R(6,10)                 1.3771         estimate D2E/DX2                !
 ! R17   R(6,15)                 1.4399         estimate D2E/DX2                !
 ! R18   R(7,12)                 1.4157         estimate D2E/DX2                !
 ! R19   R(7,30)                 1.45           estimate D2E/DX2                !
 ! R20   R(8,11)                 1.3605         estimate D2E/DX2                !
 ! R21   R(8,16)                 1.4219         estimate D2E/DX2                !
 ! R22   R(9,13)                 1.4029         estimate D2E/DX2                !
 ! R23   R(9,35)                 1.4509         estimate D2E/DX2                !
 ! R24   R(10,49)                1.4373         estimate D2E/DX2                !
 ! R25   R(10,53)                1.4439         estimate D2E/DX2                !
 ! R26   R(11,50)                1.4492         estimate D2E/DX2                !
 ! R27   R(11,54)                1.4401         estimate D2E/DX2                !
 ! R28   R(12,14)                1.4058         estimate D2E/DX2                !
 ! R29   R(12,36)                1.4304         estimate D2E/DX2                !
 ! R30   R(13,15)                1.4264         estimate D2E/DX2                !
 ! R31   R(13,43)                1.439          estimate D2E/DX2                !
 ! R32   R(14,16)                1.4267         estimate D2E/DX2                !
 ! R33   R(14,46)                1.4085         estimate D2E/DX2                !
 ! R34   R(15,17)                1.381          estimate D2E/DX2                !
 ! R35   R(16,18)                1.4074         estimate D2E/DX2                !
 ! R36   R(17,19)                1.4447         estimate D2E/DX2                !
 ! R37   R(18,20)                1.4432         estimate D2E/DX2                !
 ! R38   R(19,21)                1.426          estimate D2E/DX2                !
 ! R39   R(19,53)                1.3801         estimate D2E/DX2                !
 ! R40   R(20,22)                1.4138         estimate D2E/DX2                !
 ! R41   R(20,54)                1.409          estimate D2E/DX2                !
 ! R42   R(21,23)                1.4424         estimate D2E/DX2                !
 ! R43   R(21,57)                1.4081         estimate D2E/DX2                !
 ! R44   R(22,24)                1.4408         estimate D2E/DX2                !
 ! R45   R(22,58)                1.4131         estimate D2E/DX2                !
 ! R46   R(23,25)                1.3661         estimate D2E/DX2                !
 ! R47   R(24,26)                1.367          estimate D2E/DX2                !
 ! R48   R(24,62)                1.4331         estimate D2E/DX2                !
 ! R49   R(25,27)                1.4296         estimate D2E/DX2                !
 ! R50   R(25,61)                1.431          estimate D2E/DX2                !
 ! R51   R(26,28)                1.4401         estimate D2E/DX2                !
 ! R52   R(27,29)                1.4125         estimate D2E/DX2                !
 ! R53   R(27,65)                1.4197         estimate D2E/DX2                !
 ! R54   R(28,30)                1.4202         estimate D2E/DX2                !
 ! R55   R(28,66)                1.407          estimate D2E/DX2                !
 ! R56   R(29,31)                1.3995         estimate D2E/DX2                !
 ! R57   R(30,32)                1.3621         estimate D2E/DX2                !
 ! R58   R(31,33)                1.4383         estimate D2E/DX2                !
 ! R59   R(31,69)                1.4254         estimate D2E/DX2                !
 ! R60   R(32,34)                1.5087         estimate D2E/DX2                !
 ! R61   R(32,70)                1.4128         estimate D2E/DX2                !
 ! R62   R(33,35)                1.4            estimate D2E/DX2                !
 ! R63   R(33,73)                1.4264         estimate D2E/DX2                !
 ! R64   R(34,36)                1.52           estimate D2E/DX2                !
 ! R65   R(34,74)                1.4996         estimate D2E/DX2                !
 ! R66   R(34,88)                1.8106         estimate D2E/DX2                !
 ! R67   R(35,37)                1.4485         estimate D2E/DX2                !
 ! R68   R(36,38)                1.3894         estimate D2E/DX2                !
 ! R69   R(37,39)                1.4325         estimate D2E/DX2                !
 ! R70   R(37,77)                1.4109         estimate D2E/DX2                !
 ! R71   R(38,42)                1.4277         estimate D2E/DX2                !
 ! R72   R(38,78)                1.5229         estimate D2E/DX2                !
 ! R73   R(39,43)                1.3993         estimate D2E/DX2                !
 ! R74   R(39,79)                1.4135         estimate D2E/DX2                !
 ! R75   R(40,41)                1.4227         estimate D2E/DX2                !
 ! R76   R(40,44)                1.4049         estimate D2E/DX2                !
 ! R77   R(40,79)                1.4192         estimate D2E/DX2                !
 ! R78   R(41,45)                1.365          estimate D2E/DX2                !
 ! R79   R(41,80)                1.5188         estimate D2E/DX2                !
 ! R80   R(42,46)                1.3703         estimate D2E/DX2                !
 ! R81   R(42,80)                1.507          estimate D2E/DX2                !
 ! R82   R(44,47)                1.4392         estimate D2E/DX2                !
 ! R83   R(45,48)                1.4432         estimate D2E/DX2                !
 ! R84   R(47,48)                1.4461         estimate D2E/DX2                !
 ! R85   R(47,49)                1.4129         estimate D2E/DX2                !
 ! R86   R(48,50)                1.4076         estimate D2E/DX2                !
 ! R87   R(49,51)                1.4224         estimate D2E/DX2                !
 ! R88   R(50,52)                1.416          estimate D2E/DX2                !
 ! R89   R(51,52)                1.3756         estimate D2E/DX2                !
 ! R90   R(51,55)                1.4403         estimate D2E/DX2                !
 ! R91   R(52,56)                1.4371         estimate D2E/DX2                !
 ! R92   R(53,55)                1.4272         estimate D2E/DX2                !
 ! R93   R(54,56)                1.4208         estimate D2E/DX2                !
 ! R94   R(55,83)                1.4063         estimate D2E/DX2                !
 ! R95   R(56,84)                1.4127         estimate D2E/DX2                !
 ! R96   R(57,59)                1.4517         estimate D2E/DX2                !
 ! R97   R(57,83)                1.4499         estimate D2E/DX2                !
 ! R98   R(58,60)                1.4442         estimate D2E/DX2                !
 ! R99   R(58,84)                1.4074         estimate D2E/DX2                !
 ! R100  R(59,60)                1.4017         estimate D2E/DX2                !
 ! R101  R(59,61)                1.4142         estimate D2E/DX2                !
 ! R102  R(60,62)                1.4191         estimate D2E/DX2                !
 ! R103  R(61,63)                1.4202         estimate D2E/DX2                !
 ! R104  R(62,64)                1.4159         estimate D2E/DX2                !
 ! R105  R(63,64)                1.4025         estimate D2E/DX2                !
 ! R106  R(63,65)                1.44           estimate D2E/DX2                !
 ! R107  R(64,66)                1.4486         estimate D2E/DX2                !
 ! R108  R(65,67)                1.4035         estimate D2E/DX2                !
 ! R109  R(66,68)                1.4435         estimate D2E/DX2                !
 ! R110  R(67,68)                1.4492         estimate D2E/DX2                !
 ! R111  R(67,69)                1.4143         estimate D2E/DX2                !
 ! R112  R(68,70)                1.4138         estimate D2E/DX2                !
 ! R113  R(69,71)                1.43           estimate D2E/DX2                !
 ! R114  R(70,72)                1.4365         estimate D2E/DX2                !
 ! R115  R(71,72)                1.3799         estimate D2E/DX2                !
 ! R116  R(71,73)                1.4264         estimate D2E/DX2                !
 ! R117  R(72,74)                1.4295         estimate D2E/DX2                !
 ! R118  R(73,75)                1.3849         estimate D2E/DX2                !
 ! R119  R(74,76)                1.3611         estimate D2E/DX2                !
 ! R120  R(75,76)                1.4272         estimate D2E/DX2                !
 ! R121  R(75,77)                1.4204         estimate D2E/DX2                !
 ! R122  R(76,78)                1.5033         estimate D2E/DX2                !
 ! R123  R(77,81)                1.4276         estimate D2E/DX2                !
 ! R124  R(78,81)                1.5074         estimate D2E/DX2                !
 ! R125  R(78,87)                1.8051         estimate D2E/DX2                !
 ! R126  R(79,82)                1.4175         estimate D2E/DX2                !
 ! R127  R(80,82)                1.4963         estimate D2E/DX2                !
 ! R128  R(80,86)                1.8051         estimate D2E/DX2                !
 ! R129  R(81,82)                1.3542         estimate D2E/DX2                !
 ! R130  R(83,84)                1.4532         estimate D2E/DX2                !
 ! A1    A(5,1,17)             122.2637         estimate D2E/DX2                !
 ! A2    A(5,1,23)             121.1756         estimate D2E/DX2                !
 ! A3    A(17,1,23)            106.2233         estimate D2E/DX2                !
 ! A4    A(6,2,43)             107.4507         estimate D2E/DX2                !
 ! A5    A(6,2,44)             120.9815         estimate D2E/DX2                !
 ! A6    A(43,2,44)            121.1446         estimate D2E/DX2                !
 ! A7    A(7,3,18)             122.7353         estimate D2E/DX2                !
 ! A8    A(7,3,26)             107.3426         estimate D2E/DX2                !
 ! A9    A(18,3,26)            120.4319         estimate D2E/DX2                !
 ! A10   A(8,4,45)             112.7488         estimate D2E/DX2                !
 ! A11   A(8,4,46)             100.7148         estimate D2E/DX2                !
 ! A12   A(8,4,85)             111.5905         estimate D2E/DX2                !
 ! A13   A(45,4,46)            110.6727         estimate D2E/DX2                !
 ! A14   A(45,4,85)            109.6669         estimate D2E/DX2                !
 ! A15   A(46,4,85)            111.2076         estimate D2E/DX2                !
 ! A16   A(1,5,9)              118.4708         estimate D2E/DX2                !
 ! A17   A(1,5,29)             116.8877         estimate D2E/DX2                !
 ! A18   A(9,5,29)             119.1232         estimate D2E/DX2                !
 ! A19   A(2,6,10)             119.1552         estimate D2E/DX2                !
 ! A20   A(2,6,15)             108.0563         estimate D2E/DX2                !
 ! A21   A(10,6,15)            120.4839         estimate D2E/DX2                !
 ! A22   A(3,7,12)             121.6853         estimate D2E/DX2                !
 ! A23   A(3,7,30)             107.9049         estimate D2E/DX2                !
 ! A24   A(12,7,30)            118.313          estimate D2E/DX2                !
 ! A25   A(4,8,11)             121.5642         estimate D2E/DX2                !
 ! A26   A(4,8,16)             111.1948         estimate D2E/DX2                !
 ! A27   A(11,8,16)            119.4175         estimate D2E/DX2                !
 ! A28   A(5,9,13)             117.8928         estimate D2E/DX2                !
 ! A29   A(5,9,35)             120.6646         estimate D2E/DX2                !
 ! A30   A(13,9,35)            117.2727         estimate D2E/DX2                !
 ! A31   A(6,10,49)            120.2419         estimate D2E/DX2                !
 ! A32   A(6,10,53)            119.6095         estimate D2E/DX2                !
 ! A33   A(49,10,53)           108.1031         estimate D2E/DX2                !
 ! A34   A(8,11,50)            120.9164         estimate D2E/DX2                !
 ! A35   A(8,11,54)            120.0888         estimate D2E/DX2                !
 ! A36   A(50,11,54)           108.7787         estimate D2E/DX2                !
 ! A37   A(7,12,14)            114.8304         estimate D2E/DX2                !
 ! A38   A(7,12,36)            122.0528         estimate D2E/DX2                !
 ! A39   A(14,12,36)           118.3885         estimate D2E/DX2                !
 ! A40   A(9,13,15)            122.5923         estimate D2E/DX2                !
 ! A41   A(9,13,43)            121.1628         estimate D2E/DX2                !
 ! A42   A(15,13,43)           106.9963         estimate D2E/DX2                !
 ! A43   A(12,14,16)           122.9898         estimate D2E/DX2                !
 ! A44   A(12,14,46)           120.9865         estimate D2E/DX2                !
 ! A45   A(16,14,46)           109.688          estimate D2E/DX2                !
 ! A46   A(6,15,13)            108.1933         estimate D2E/DX2                !
 ! A47   A(6,15,17)            119.9838         estimate D2E/DX2                !
 ! A48   A(13,15,17)           119.4163         estimate D2E/DX2                !
 ! A49   A(8,16,14)            107.2237         estimate D2E/DX2                !
 ! A50   A(8,16,18)            122.4237         estimate D2E/DX2                !
 ! A51   A(14,16,18)           121.0473         estimate D2E/DX2                !
 ! A52   A(1,17,15)            119.3156         estimate D2E/DX2                !
 ! A53   A(1,17,19)            108.7656         estimate D2E/DX2                !
 ! A54   A(15,17,19)           119.7044         estimate D2E/DX2                !
 ! A55   A(3,18,16)            115.1098         estimate D2E/DX2                !
 ! A56   A(3,18,20)            119.478          estimate D2E/DX2                !
 ! A57   A(16,18,20)           118.1902         estimate D2E/DX2                !
 ! A58   A(17,19,21)           108.5253         estimate D2E/DX2                !
 ! A59   A(17,19,53)           120.0869         estimate D2E/DX2                !
 ! A60   A(21,19,53)           119.4411         estimate D2E/DX2                !
 ! A61   A(18,20,22)           118.776          estimate D2E/DX2                !
 ! A62   A(18,20,54)           118.5298         estimate D2E/DX2                !
 ! A63   A(22,20,54)           115.1139         estimate D2E/DX2                !
 ! A64   A(19,21,23)           106.1579         estimate D2E/DX2                !
 ! A65   A(19,21,57)           122.2776         estimate D2E/DX2                !
 ! A66   A(23,21,57)           121.3336         estimate D2E/DX2                !
 ! A67   A(20,22,24)           120.6242         estimate D2E/DX2                !
 ! A68   A(20,22,58)           122.2007         estimate D2E/DX2                !
 ! A69   A(24,22,58)           106.8471         estimate D2E/DX2                !
 ! A70   A(1,23,21)            109.4406         estimate D2E/DX2                !
 ! A71   A(1,23,25)            120.1256         estimate D2E/DX2                !
 ! A72   A(21,23,25)           120.1901         estimate D2E/DX2                !
 ! A73   A(22,24,26)           120.8466         estimate D2E/DX2                !
 ! A74   A(22,24,62)           109.3195         estimate D2E/DX2                !
 ! A75   A(26,24,62)           119.4298         estimate D2E/DX2                !
 ! A76   A(23,25,27)           119.9671         estimate D2E/DX2                !
 ! A77   A(23,25,61)           120.0041         estimate D2E/DX2                !
 ! A78   A(27,25,61)           109.4568         estimate D2E/DX2                !
 ! A79   A(3,26,24)            119.7791         estimate D2E/DX2                !
 ! A80   A(3,26,28)            109.1519         estimate D2E/DX2                !
 ! A81   A(24,26,28)           120.1725         estimate D2E/DX2                !
 ! A82   A(25,27,29)           120.2304         estimate D2E/DX2                !
 ! A83   A(25,27,65)           106.8818         estimate D2E/DX2                !
 ! A84   A(29,27,65)           121.7882         estimate D2E/DX2                !
 ! A85   A(26,28,30)           105.8851         estimate D2E/DX2                !
 ! A86   A(26,28,66)           122.2454         estimate D2E/DX2                !
 ! A87   A(30,28,66)           121.8343         estimate D2E/DX2                !
 ! A88   A(5,29,27)            120.3869         estimate D2E/DX2                !
 ! A89   A(5,29,31)            118.8052         estimate D2E/DX2                !
 ! A90   A(27,29,31)           115.1724         estimate D2E/DX2                !
 ! A91   A(7,30,28)            109.0142         estimate D2E/DX2                !
 ! A92   A(7,30,32)            120.3951         estimate D2E/DX2                !
 ! A93   A(28,30,32)           120.5426         estimate D2E/DX2                !
 ! A94   A(29,31,33)           121.2497         estimate D2E/DX2                !
 ! A95   A(29,31,69)           122.0147         estimate D2E/DX2                !
 ! A96   A(33,31,69)           108.5955         estimate D2E/DX2                !
 ! A97   A(30,32,34)           122.2537         estimate D2E/DX2                !
 ! A98   A(30,32,70)           118.7215         estimate D2E/DX2                !
 ! A99   A(34,32,70)           112.3918         estimate D2E/DX2                !
 ! A100  A(31,33,35)           121.1685         estimate D2E/DX2                !
 ! A101  A(31,33,73)           107.1271         estimate D2E/DX2                !
 ! A102  A(35,33,73)           122.1997         estimate D2E/DX2                !
 ! A103  A(32,34,36)           110.7425         estimate D2E/DX2                !
 ! A104  A(32,34,74)           100.9328         estimate D2E/DX2                !
 ! A105  A(32,34,88)           112.1426         estimate D2E/DX2                !
 ! A106  A(36,34,74)           111.4809         estimate D2E/DX2                !
 ! A107  A(36,34,88)           108.5263         estimate D2E/DX2                !
 ! A108  A(74,34,88)           112.9122         estimate D2E/DX2                !
 ! A109  A(9,35,33)            117.5033         estimate D2E/DX2                !
 ! A110  A(9,35,37)            120.6454         estimate D2E/DX2                !
 ! A111  A(33,35,37)           117.5861         estimate D2E/DX2                !
 ! A112  A(12,36,34)           117.4069         estimate D2E/DX2                !
 ! A113  A(12,36,38)           119.8655         estimate D2E/DX2                !
 ! A114  A(34,36,38)           121.6633         estimate D2E/DX2                !
 ! A115  A(35,37,39)           119.3268         estimate D2E/DX2                !
 ! A116  A(35,37,77)           119.3169         estimate D2E/DX2                !
 ! A117  A(39,37,77)           115.9085         estimate D2E/DX2                !
 ! A118  A(36,38,42)           120.537          estimate D2E/DX2                !
 ! A119  A(36,38,78)           120.5842         estimate D2E/DX2                !
 ! A120  A(42,38,78)           118.2755         estimate D2E/DX2                !
 ! A121  A(37,39,43)           119.1488         estimate D2E/DX2                !
 ! A122  A(37,39,79)           119.7107         estimate D2E/DX2                !
 ! A123  A(43,39,79)           115.8068         estimate D2E/DX2                !
 ! A124  A(41,40,44)           122.0975         estimate D2E/DX2                !
 ! A125  A(41,40,79)           108.7464         estimate D2E/DX2                !
 ! A126  A(44,40,79)           122.2039         estimate D2E/DX2                !
 ! A127  A(40,41,45)           120.5427         estimate D2E/DX2                !
 ! A128  A(40,41,80)           109.4607         estimate D2E/DX2                !
 ! A129  A(45,41,80)           125.43           estimate D2E/DX2                !
 ! A130  A(38,42,46)           119.6384         estimate D2E/DX2                !
 ! A131  A(38,42,80)           123.0959         estimate D2E/DX2                !
 ! A132  A(46,42,80)           115.7454         estimate D2E/DX2                !
 ! A133  A(2,43,13)            108.9868         estimate D2E/DX2                !
 ! A134  A(2,43,39)            122.0362         estimate D2E/DX2                !
 ! A135  A(13,43,39)           120.9847         estimate D2E/DX2                !
 ! A136  A(2,44,40)            115.3242         estimate D2E/DX2                !
 ! A137  A(2,44,47)            120.4685         estimate D2E/DX2                !
 ! A138  A(40,44,47)           118.4102         estimate D2E/DX2                !
 ! A139  A(4,45,41)            116.1494         estimate D2E/DX2                !
 ! A140  A(4,45,48)            121.8006         estimate D2E/DX2                !
 ! A141  A(41,45,48)           119.8402         estimate D2E/DX2                !
 ! A142  A(4,46,14)            109.8562         estimate D2E/DX2                !
 ! A143  A(4,46,42)            125.6802         estimate D2E/DX2                !
 ! A144  A(14,46,42)           120.4507         estimate D2E/DX2                !
 ! A145  A(44,47,48)           118.9217         estimate D2E/DX2                !
 ! A146  A(44,47,49)           116.8504         estimate D2E/DX2                !
 ! A147  A(48,47,49)           118.92           estimate D2E/DX2                !
 ! A148  A(45,48,47)           119.9981         estimate D2E/DX2                !
 ! A149  A(45,48,50)           117.7394         estimate D2E/DX2                !
 ! A150  A(47,48,50)           117.9701         estimate D2E/DX2                !
 ! A151  A(10,49,47)           122.125          estimate D2E/DX2                !
 ! A152  A(10,49,51)           106.3643         estimate D2E/DX2                !
 ! A153  A(47,49,51)           120.8666         estimate D2E/DX2                !
 ! A154  A(11,50,48)           121.4229         estimate D2E/DX2                !
 ! A155  A(11,50,52)           105.6486         estimate D2E/DX2                !
 ! A156  A(48,50,52)           121.0687         estimate D2E/DX2                !
 ! A157  A(49,51,52)           119.2018         estimate D2E/DX2                !
 ! A158  A(49,51,55)           110.0532         estimate D2E/DX2                !
 ! A159  A(52,51,55)           120.5442         estimate D2E/DX2                !
 ! A160  A(50,52,51)           120.5581         estimate D2E/DX2                !
 ! A161  A(50,52,56)           110.1351         estimate D2E/DX2                !
 ! A162  A(51,52,56)           119.3973         estimate D2E/DX2                !
 ! A163  A(10,53,19)           120.1125         estimate D2E/DX2                !
 ! A164  A(10,53,55)           108.5947         estimate D2E/DX2                !
 ! A165  A(19,53,55)           119.2906         estimate D2E/DX2                !
 ! A166  A(11,54,20)           121.2521         estimate D2E/DX2                !
 ! A167  A(11,54,56)           107.6729         estimate D2E/DX2                !
 ! A168  A(20,54,56)           121.8599         estimate D2E/DX2                !
 ! A169  A(51,55,53)           105.9915         estimate D2E/DX2                !
 ! A170  A(51,55,83)           121.2223         estimate D2E/DX2                !
 ! A171  A(53,55,83)           122.4148         estimate D2E/DX2                !
 ! A172  A(52,56,54)           107.1767         estimate D2E/DX2                !
 ! A173  A(52,56,84)           120.2349         estimate D2E/DX2                !
 ! A174  A(54,56,84)           122.4511         estimate D2E/DX2                !
 ! A175  A(21,57,59)           117.1154         estimate D2E/DX2                !
 ! A176  A(21,57,83)           118.2278         estimate D2E/DX2                !
 ! A177  A(59,57,83)           119.5107         estimate D2E/DX2                !
 ! A178  A(22,58,60)           108.4725         estimate D2E/DX2                !
 ! A179  A(22,58,84)           122.4854         estimate D2E/DX2                !
 ! A180  A(60,58,84)           120.7883         estimate D2E/DX2                !
 ! A181  A(57,59,60)           119.5697         estimate D2E/DX2                !
 ! A182  A(57,59,61)           120.1926         estimate D2E/DX2                !
 ! A183  A(60,59,61)           114.604          estimate D2E/DX2                !
 ! A184  A(58,60,59)           120.9568         estimate D2E/DX2                !
 ! A185  A(58,60,62)           108.5841         estimate D2E/DX2                !
 ! A186  A(59,60,62)           122.3376         estimate D2E/DX2                !
 ! A187  A(25,61,59)           120.3515         estimate D2E/DX2                !
 ! A188  A(25,61,63)           106.6764         estimate D2E/DX2                !
 ! A189  A(59,61,63)           122.4095         estimate D2E/DX2                !
 ! A190  A(24,62,60)           106.7061         estimate D2E/DX2                !
 ! A191  A(24,62,64)           120.893          estimate D2E/DX2                !
 ! A192  A(60,62,64)           122.2373         estimate D2E/DX2                !
 ! A193  A(61,63,64)           122.1239         estimate D2E/DX2                !
 ! A194  A(61,63,65)           108.5043         estimate D2E/DX2                !
 ! A195  A(64,63,65)           120.8452         estimate D2E/DX2                !
 ! A196  A(62,64,63)           114.7287         estimate D2E/DX2                !
 ! A197  A(62,64,66)           120.1842         estimate D2E/DX2                !
 ! A198  A(63,64,66)           118.9231         estimate D2E/DX2                !
 ! A199  A(27,65,63)           108.2497         estimate D2E/DX2                !
 ! A200  A(27,65,67)           121.9923         estimate D2E/DX2                !
 ! A201  A(63,65,67)           121.3553         estimate D2E/DX2                !
 ! A202  A(28,66,64)           116.7203         estimate D2E/DX2                !
 ! A203  A(28,66,68)           117.5711         estimate D2E/DX2                !
 ! A204  A(64,66,68)           120.2535         estimate D2E/DX2                !
 ! A205  A(65,67,68)           118.9446         estimate D2E/DX2                !
 ! A206  A(65,67,69)           115.0602         estimate D2E/DX2                !
 ! A207  A(68,67,69)           120.0189         estimate D2E/DX2                !
 ! A208  A(66,68,67)           119.6126         estimate D2E/DX2                !
 ! A209  A(66,68,70)           118.2194         estimate D2E/DX2                !
 ! A210  A(67,68,70)           116.9692         estimate D2E/DX2                !
 ! A211  A(31,69,67)           121.4816         estimate D2E/DX2                !
 ! A212  A(31,69,71)           107.2345         estimate D2E/DX2                !
 ! A213  A(67,69,71)           121.0141         estimate D2E/DX2                !
 ! A214  A(32,70,68)           122.4794         estimate D2E/DX2                !
 ! A215  A(32,70,72)           106.7452         estimate D2E/DX2                !
 ! A216  A(68,70,72)           122.4574         estimate D2E/DX2                !
 ! A217  A(69,71,72)           119.796          estimate D2E/DX2                !
 ! A218  A(69,71,73)           108.4508         estimate D2E/DX2                !
 ! A219  A(72,71,73)           119.3256         estimate D2E/DX2                !
 ! A220  A(70,72,71)           119.5909         estimate D2E/DX2                !
 ! A221  A(70,72,74)           109.3362         estimate D2E/DX2                !
 ! A222  A(71,72,74)           120.9503         estimate D2E/DX2                !
 ! A223  A(33,73,71)           108.2379         estimate D2E/DX2                !
 ! A224  A(33,73,75)           120.2194         estimate D2E/DX2                !
 ! A225  A(71,73,75)           118.986          estimate D2E/DX2                !
 ! A226  A(34,74,72)           110.1439         estimate D2E/DX2                !
 ! A227  A(34,74,76)           121.8701         estimate D2E/DX2                !
 ! A228  A(72,74,76)           119.9418         estimate D2E/DX2                !
 ! A229  A(73,75,76)           121.3487         estimate D2E/DX2                !
 ! A230  A(73,75,77)           118.8209         estimate D2E/DX2                !
 ! A231  A(76,75,77)           109.5509         estimate D2E/DX2                !
 ! A232  A(74,76,75)           119.3212         estimate D2E/DX2                !
 ! A233  A(74,76,78)           122.5817         estimate D2E/DX2                !
 ! A234  A(75,76,78)           109.964          estimate D2E/DX2                !
 ! A235  A(37,77,75)           121.8142         estimate D2E/DX2                !
 ! A236  A(37,77,81)           122.967          estimate D2E/DX2                !
 ! A237  A(75,77,81)           107.3761         estimate D2E/DX2                !
 ! A238  A(38,78,76)           111.1576         estimate D2E/DX2                !
 ! A239  A(38,78,81)           109.5924         estimate D2E/DX2                !
 ! A240  A(38,78,87)           108.3958         estimate D2E/DX2                !
 ! A241  A(76,78,81)           101.3069         estimate D2E/DX2                !
 ! A242  A(76,78,87)           113.1961         estimate D2E/DX2                !
 ! A243  A(81,78,87)           113.0691         estimate D2E/DX2                !
 ! A244  A(39,79,40)           121.0982         estimate D2E/DX2                !
 ! A245  A(39,79,82)           121.7815         estimate D2E/DX2                !
 ! A246  A(40,79,82)           108.526          estimate D2E/DX2                !
 ! A247  A(41,80,42)           110.5316         estimate D2E/DX2                !
 ! A248  A(41,80,82)           101.177          estimate D2E/DX2                !
 ! A249  A(41,80,86)           111.5973         estimate D2E/DX2                !
 ! A250  A(42,80,82)           109.8925         estimate D2E/DX2                !
 ! A251  A(42,80,86)           110.1043         estimate D2E/DX2                !
 ! A252  A(82,80,86)           113.2493         estimate D2E/DX2                !
 ! A253  A(77,81,78)           111.3081         estimate D2E/DX2                !
 ! A254  A(77,81,82)           119.8658         estimate D2E/DX2                !
 ! A255  A(78,81,82)           122.3858         estimate D2E/DX2                !
 ! A256  A(79,82,80)           110.8385         estimate D2E/DX2                !
 ! A257  A(79,82,81)           119.1604         estimate D2E/DX2                !
 ! A258  A(80,82,81)           123.071          estimate D2E/DX2                !
 ! A259  A(55,83,57)           118.1471         estimate D2E/DX2                !
 ! A260  A(55,83,84)           117.1187         estimate D2E/DX2                !
 ! A261  A(57,83,84)           119.73           estimate D2E/DX2                !
 ! A262  A(56,84,58)           114.7984         estimate D2E/DX2                !
 ! A263  A(56,84,83)           120.4709         estimate D2E/DX2                !
 ! A264  A(58,84,83)           119.2828         estimate D2E/DX2                !
 ! D1    D(17,1,5,9)             0.2147         estimate D2E/DX2                !
 ! D2    D(17,1,5,29)         -153.3878         estimate D2E/DX2                !
 ! D3    D(23,1,5,9)           140.3997         estimate D2E/DX2                !
 ! D4    D(23,1,5,29)          -13.2027         estimate D2E/DX2                !
 ! D5    D(5,1,17,15)           -2.0607         estimate D2E/DX2                !
 ! D6    D(5,1,17,19)          140.2179         estimate D2E/DX2                !
 ! D7    D(23,1,17,15)        -147.2715         estimate D2E/DX2                !
 ! D8    D(23,1,17,19)          -4.9929         estimate D2E/DX2                !
 ! D9    D(5,1,23,21)         -136.6317         estimate D2E/DX2                !
 ! D10   D(5,1,23,25)            8.5899         estimate D2E/DX2                !
 ! D11   D(17,1,23,21)           9.0423         estimate D2E/DX2                !
 ! D12   D(17,1,23,25)         154.2639         estimate D2E/DX2                !
 ! D13   D(43,2,6,10)         -144.9239         estimate D2E/DX2                !
 ! D14   D(43,2,6,15)           -2.4715         estimate D2E/DX2                !
 ! D15   D(44,2,6,10)            0.2725         estimate D2E/DX2                !
 ! D16   D(44,2,6,15)          142.7248         estimate D2E/DX2                !
 ! D17   D(6,2,43,13)            5.1366         estimate D2E/DX2                !
 ! D18   D(6,2,43,39)          154.1776         estimate D2E/DX2                !
 ! D19   D(44,2,43,13)        -139.9914         estimate D2E/DX2                !
 ! D20   D(44,2,43,39)           9.0496         estimate D2E/DX2                !
 ! D21   D(6,2,44,40)         -155.2543         estimate D2E/DX2                !
 ! D22   D(6,2,44,47)           -2.4953         estimate D2E/DX2                !
 ! D23   D(43,2,44,40)         -14.7629         estimate D2E/DX2                !
 ! D24   D(43,2,44,47)         137.996          estimate D2E/DX2                !
 ! D25   D(18,3,7,12)            6.6335         estimate D2E/DX2                !
 ! D26   D(18,3,7,30)          148.369          estimate D2E/DX2                !
 ! D27   D(26,3,7,12)         -139.6278         estimate D2E/DX2                !
 ! D28   D(26,3,7,30)            2.1077         estimate D2E/DX2                !
 ! D29   D(7,3,18,16)            5.3155         estimate D2E/DX2                !
 ! D30   D(7,3,18,20)         -144.4748         estimate D2E/DX2                !
 ! D31   D(26,3,18,16)         147.3734         estimate D2E/DX2                !
 ! D32   D(26,3,18,20)          -2.417          estimate D2E/DX2                !
 ! D33   D(7,3,26,24)          147.5057         estimate D2E/DX2                !
 ! D34   D(7,3,26,28)            3.2403         estimate D2E/DX2                !
 ! D35   D(18,3,26,24)           0.315          estimate D2E/DX2                !
 ! D36   D(18,3,26,28)        -143.9505         estimate D2E/DX2                !
 ! D37   D(45,4,8,11)           20.2897         estimate D2E/DX2                !
 ! D38   D(45,4,8,16)         -128.636          estimate D2E/DX2                !
 ! D39   D(46,4,8,11)          138.2554         estimate D2E/DX2                !
 ! D40   D(46,4,8,16)          -10.6703         estimate D2E/DX2                !
 ! D41   D(85,4,8,11)         -103.6565         estimate D2E/DX2                !
 ! D42   D(85,4,8,16)          107.4179         estimate D2E/DX2                !
 ! D43   D(8,4,45,41)          143.8069         estimate D2E/DX2                !
 ! D44   D(8,4,45,48)          -19.2598         estimate D2E/DX2                !
 ! D45   D(46,4,45,41)          31.8633         estimate D2E/DX2                !
 ! D46   D(46,4,45,48)        -131.2034         estimate D2E/DX2                !
 ! D47   D(85,4,45,41)         -91.1921         estimate D2E/DX2                !
 ! D48   D(85,4,45,48)         105.7412         estimate D2E/DX2                !
 ! D49   D(8,4,46,14)           11.191          estimate D2E/DX2                !
 ! D50   D(8,4,46,42)         -146.1273         estimate D2E/DX2                !
 ! D51   D(45,4,46,14)         130.6654         estimate D2E/DX2                !
 ! D52   D(45,4,46,42)         -26.6529         estimate D2E/DX2                !
 ! D53   D(85,4,46,14)        -107.1767         estimate D2E/DX2                !
 ! D54   D(85,4,46,42)          95.505          estimate D2E/DX2                !
 ! D55   D(1,5,9,13)             1.4003         estimate D2E/DX2                !
 ! D56   D(1,5,9,35)          -155.0307         estimate D2E/DX2                !
 ! D57   D(29,5,9,13)          154.4049         estimate D2E/DX2                !
 ! D58   D(29,5,9,35)           -2.0261         estimate D2E/DX2                !
 ! D59   D(1,5,29,27)            8.9014         estimate D2E/DX2                !
 ! D60   D(1,5,29,31)          161.1707         estimate D2E/DX2                !
 ! D61   D(9,5,29,27)         -144.5223         estimate D2E/DX2                !
 ! D62   D(9,5,29,31)            7.7469         estimate D2E/DX2                !
 ! D63   D(2,6,10,49)           -0.3789         estimate D2E/DX2                !
 ! D64   D(2,6,10,53)          137.7816         estimate D2E/DX2                !
 ! D65   D(15,6,10,49)        -138.1305         estimate D2E/DX2                !
 ! D66   D(15,6,10,53)           0.0299         estimate D2E/DX2                !
 ! D67   D(2,6,15,13)           -1.1185         estimate D2E/DX2                !
 ! D68   D(2,6,15,17)         -142.9784         estimate D2E/DX2                !
 ! D69   D(10,6,15,13)         140.7422         estimate D2E/DX2                !
 ! D70   D(10,6,15,17)          -1.1177         estimate D2E/DX2                !
 ! D71   D(3,7,12,14)          -11.9387         estimate D2E/DX2                !
 ! D72   D(3,7,12,36)          143.2682         estimate D2E/DX2                !
 ! D73   D(30,7,12,14)        -149.9197         estimate D2E/DX2                !
 ! D74   D(30,7,12,36)           5.2872         estimate D2E/DX2                !
 ! D75   D(3,7,30,28)           -6.8015         estimate D2E/DX2                !
 ! D76   D(3,7,30,32)         -152.4197         estimate D2E/DX2                !
 ! D77   D(12,7,30,28)         136.4292         estimate D2E/DX2                !
 ! D78   D(12,7,30,32)          -9.189          estimate D2E/DX2                !
 ! D79   D(4,8,11,50)           -7.4515         estimate D2E/DX2                !
 ! D80   D(4,8,11,54)         -148.7729         estimate D2E/DX2                !
 ! D81   D(16,8,11,50)         139.012          estimate D2E/DX2                !
 ! D82   D(16,8,11,54)          -2.3095         estimate D2E/DX2                !
 ! D83   D(4,8,16,14)            6.5138         estimate D2E/DX2                !
 ! D84   D(4,8,16,18)          153.2963         estimate D2E/DX2                !
 ! D85   D(11,8,16,14)        -143.1624         estimate D2E/DX2                !
 ! D86   D(11,8,16,18)           3.6201         estimate D2E/DX2                !
 ! D87   D(5,9,13,15)           -1.2585         estimate D2E/DX2                !
 ! D88   D(5,9,13,43)         -143.639          estimate D2E/DX2                !
 ! D89   D(35,9,13,15)         155.9762         estimate D2E/DX2                !
 ! D90   D(35,9,13,43)          13.5957         estimate D2E/DX2                !
 ! D91   D(5,9,35,33)           -8.6459         estimate D2E/DX2                !
 ! D92   D(5,9,35,37)          147.6025         estimate D2E/DX2                !
 ! D93   D(13,9,35,33)        -165.2177         estimate D2E/DX2                !
 ! D94   D(13,9,35,37)          -8.9693         estimate D2E/DX2                !
 ! D95   D(6,10,49,47)           2.8122         estimate D2E/DX2                !
 ! D96   D(6,10,49,51)         147.4736         estimate D2E/DX2                !
 ! D97   D(53,10,49,47)       -139.5881         estimate D2E/DX2                !
 ! D98   D(53,10,49,51)          5.0734         estimate D2E/DX2                !
 ! D99   D(6,10,53,19)           0.4499         estimate D2E/DX2                !
 ! D100  D(6,10,53,55)        -141.9077         estimate D2E/DX2                !
 ! D101  D(49,10,53,19)        143.1291         estimate D2E/DX2                !
 ! D102  D(49,10,53,55)          0.7714         estimate D2E/DX2                !
 ! D103  D(8,11,50,48)          -8.6697         estimate D2E/DX2                !
 ! D104  D(8,11,50,52)        -151.7211         estimate D2E/DX2                !
 ! D105  D(54,11,50,48)        136.5005         estimate D2E/DX2                !
 ! D106  D(54,11,50,52)         -6.5509         estimate D2E/DX2                !
 ! D107  D(8,11,54,20)           1.0188         estimate D2E/DX2                !
 ! D108  D(8,11,54,56)         148.3051         estimate D2E/DX2                !
 ! D109  D(50,11,54,20)       -144.4885         estimate D2E/DX2                !
 ! D110  D(50,11,54,56)          2.7978         estimate D2E/DX2                !
 ! D111  D(7,12,14,16)           5.9123         estimate D2E/DX2                !
 ! D112  D(7,12,14,46)         155.0456         estimate D2E/DX2                !
 ! D113  D(36,12,14,16)       -150.2592         estimate D2E/DX2                !
 ! D114  D(36,12,14,46)         -1.1258         estimate D2E/DX2                !
 ! D115  D(7,12,36,34)          16.8962         estimate D2E/DX2                !
 ! D116  D(7,12,36,38)        -151.5055         estimate D2E/DX2                !
 ! D117  D(14,12,36,34)        171.2637         estimate D2E/DX2                !
 ! D118  D(14,12,36,38)          2.8619         estimate D2E/DX2                !
 ! D119  D(9,13,15,6)         -142.6806         estimate D2E/DX2                !
 ! D120  D(9,13,15,17)          -0.5677         estimate D2E/DX2                !
 ! D121  D(43,13,15,6)           4.2135         estimate D2E/DX2                !
 ! D122  D(43,13,15,17)        146.3264         estimate D2E/DX2                !
 ! D123  D(9,13,43,2)          141.6536         estimate D2E/DX2                !
 ! D124  D(9,13,43,39)          -7.7711         estimate D2E/DX2                !
 ! D125  D(15,13,43,2)          -5.8139         estimate D2E/DX2                !
 ! D126  D(15,13,43,39)       -155.2386         estimate D2E/DX2                !
 ! D127  D(12,14,16,8)         153.236          estimate D2E/DX2                !
 ! D128  D(12,14,16,18)          5.9019         estimate D2E/DX2                !
 ! D129  D(46,14,16,8)           1.0844         estimate D2E/DX2                !
 ! D130  D(46,14,16,18)       -146.2497         estimate D2E/DX2                !
 ! D131  D(12,14,46,4)        -160.9637         estimate D2E/DX2                !
 ! D132  D(12,14,46,42)         -2.2693         estimate D2E/DX2                !
 ! D133  D(16,14,46,4)          -8.16           estimate D2E/DX2                !
 ! D134  D(16,14,46,42)        150.5344         estimate D2E/DX2                !
 ! D135  D(6,15,17,1)          139.8586         estimate D2E/DX2                !
 ! D136  D(6,15,17,19)           1.6899         estimate D2E/DX2                !
 ! D137  D(13,15,17,1)           2.2003         estimate D2E/DX2                !
 ! D138  D(13,15,17,19)       -135.9683         estimate D2E/DX2                !
 ! D139  D(8,16,18,3)         -153.6185         estimate D2E/DX2                !
 ! D140  D(8,16,18,20)          -3.4188         estimate D2E/DX2                !
 ! D141  D(14,16,18,3)         -11.262          estimate D2E/DX2                !
 ! D142  D(14,16,18,20)        138.9377         estimate D2E/DX2                !
 ! D143  D(1,17,19,21)          -0.8307         estimate D2E/DX2                !
 ! D144  D(1,17,19,53)        -143.321          estimate D2E/DX2                !
 ! D145  D(15,17,19,21)        141.2772         estimate D2E/DX2                !
 ! D146  D(15,17,19,53)         -1.2131         estimate D2E/DX2                !
 ! D147  D(3,18,20,22)           2.6895         estimate D2E/DX2                !
 ! D148  D(3,18,20,54)         150.8695         estimate D2E/DX2                !
 ! D149  D(16,18,20,22)       -146.1839         estimate D2E/DX2                !
 ! D150  D(16,18,20,54)          1.9961         estimate D2E/DX2                !
 ! D151  D(17,19,21,23)          6.3011         estimate D2E/DX2                !
 ! D152  D(17,19,21,57)       -139.1216         estimate D2E/DX2                !
 ! D153  D(53,19,21,23)        149.0735         estimate D2E/DX2                !
 ! D154  D(53,19,21,57)          3.6508         estimate D2E/DX2                !
 ! D155  D(17,19,53,10)          0.13           estimate D2E/DX2                !
 ! D156  D(17,19,53,55)        138.547          estimate D2E/DX2                !
 ! D157  D(21,19,53,10)       -138.3441         estimate D2E/DX2                !
 ! D158  D(21,19,53,55)          0.0729         estimate D2E/DX2                !
 ! D159  D(18,20,22,24)         -0.9397         estimate D2E/DX2                !
 ! D160  D(18,20,22,58)        139.4864         estimate D2E/DX2                !
 ! D161  D(54,20,22,24)       -150.1698         estimate D2E/DX2                !
 ! D162  D(54,20,22,58)         -9.7437         estimate D2E/DX2                !
 ! D163  D(18,20,54,11)         -0.8441         estimate D2E/DX2                !
 ! D164  D(18,20,54,56)       -143.5234         estimate D2E/DX2                !
 ! D165  D(22,20,54,11)        148.466          estimate D2E/DX2                !
 ! D166  D(22,20,54,56)          5.7867         estimate D2E/DX2                !
 ! D167  D(19,21,23,1)          -9.5401         estimate D2E/DX2                !
 ! D168  D(19,21,23,25)       -154.7356         estimate D2E/DX2                !
 ! D169  D(57,21,23,1)         136.2832         estimate D2E/DX2                !
 ! D170  D(57,21,23,25)         -8.9124         estimate D2E/DX2                !
 ! D171  D(19,21,57,59)        150.908          estimate D2E/DX2                !
 ! D172  D(19,21,57,83)         -3.6468         estimate D2E/DX2                !
 ! D173  D(23,21,57,59)         10.5639         estimate D2E/DX2                !
 ! D174  D(23,21,57,83)       -143.9909         estimate D2E/DX2                !
 ! D175  D(20,22,24,26)         -1.1786         estimate D2E/DX2                !
 ! D176  D(20,22,24,62)        143.4916         estimate D2E/DX2                !
 ! D177  D(58,22,24,26)       -146.8974         estimate D2E/DX2                !
 ! D178  D(58,22,24,62)         -2.2271         estimate D2E/DX2                !
 ! D179  D(20,22,58,60)       -144.2381         estimate D2E/DX2                !
 ! D180  D(20,22,58,84)          4.2447         estimate D2E/DX2                !
 ! D181  D(24,22,58,60)          0.816          estimate D2E/DX2                !
 ! D182  D(24,22,58,84)        149.2988         estimate D2E/DX2                !
 ! D183  D(1,23,25,27)           0.903          estimate D2E/DX2                !
 ! D184  D(1,23,25,61)        -140.0788         estimate D2E/DX2                !
 ! D185  D(21,23,25,27)        142.4194         estimate D2E/DX2                !
 ! D186  D(21,23,25,61)          1.4376         estimate D2E/DX2                !
 ! D187  D(22,24,26,3)           1.4888         estimate D2E/DX2                !
 ! D188  D(22,24,26,28)        141.8335         estimate D2E/DX2                !
 ! D189  D(62,24,26,3)        -139.7136         estimate D2E/DX2                !
 ! D190  D(62,24,26,28)          0.6311         estimate D2E/DX2                !
 ! D191  D(22,24,62,60)          2.7626         estimate D2E/DX2                !
 ! D192  D(22,24,62,64)       -143.1912         estimate D2E/DX2                !
 ! D193  D(26,24,62,60)        148.0097         estimate D2E/DX2                !
 ! D194  D(26,24,62,64)          2.0559         estimate D2E/DX2                !
 ! D195  D(23,25,27,29)         -5.0906         estimate D2E/DX2                !
 ! D196  D(23,25,27,65)       -149.5787         estimate D2E/DX2                !
 ! D197  D(61,25,27,29)        139.584          estimate D2E/DX2                !
 ! D198  D(61,25,27,65)         -4.904          estimate D2E/DX2                !
 ! D199  D(23,25,61,59)          3.7741         estimate D2E/DX2                !
 ! D200  D(23,25,61,63)        149.2388         estimate D2E/DX2                !
 ! D201  D(27,25,61,59)       -140.8854         estimate D2E/DX2                !
 ! D202  D(27,25,61,63)          4.5793         estimate D2E/DX2                !
 ! D203  D(3,26,28,30)          -7.3099         estimate D2E/DX2                !
 ! D204  D(3,26,28,66)         138.5771         estimate D2E/DX2                !
 ! D205  D(24,26,28,30)       -151.4116         estimate D2E/DX2                !
 ! D206  D(24,26,28,66)         -5.5246         estimate D2E/DX2                !
 ! D207  D(25,27,29,5)           0.0454         estimate D2E/DX2                !
 ! D208  D(25,27,29,31)       -153.1772         estimate D2E/DX2                !
 ! D209  D(65,27,29,5)         139.207          estimate D2E/DX2                !
 ! D210  D(65,27,29,31)        -14.0156         estimate D2E/DX2                !
 ! D211  D(25,27,65,63)          3.2944         estimate D2E/DX2                !
 ! D212  D(25,27,65,67)        151.7251         estimate D2E/DX2                !
 ! D213  D(29,27,65,63)       -140.5171         estimate D2E/DX2                !
 ! D214  D(29,27,65,67)          7.9136         estimate D2E/DX2                !
 ! D215  D(26,28,30,7)           8.5845         estimate D2E/DX2                !
 ! D216  D(26,28,30,32)        154.1433         estimate D2E/DX2                !
 ! D217  D(66,28,30,7)        -137.4761         estimate D2E/DX2                !
 ! D218  D(66,28,30,32)          8.0826         estimate D2E/DX2                !
 ! D219  D(26,28,66,64)          7.2553         estimate D2E/DX2                !
 ! D220  D(26,28,66,68)       -146.7936         estimate D2E/DX2                !
 ! D221  D(30,28,66,64)        147.8415         estimate D2E/DX2                !
 ! D222  D(30,28,66,68)         -6.2075         estimate D2E/DX2                !
 ! D223  D(5,29,31,33)          -2.8568         estimate D2E/DX2                !
 ! D224  D(5,29,31,69)        -147.8714         estimate D2E/DX2                !
 ! D225  D(27,29,31,33)        150.8148         estimate D2E/DX2                !
 ! D226  D(27,29,31,69)          5.8002         estimate D2E/DX2                !
 ! D227  D(7,30,32,34)         -10.0596         estimate D2E/DX2                !
 ! D228  D(7,30,32,70)         139.1935         estimate D2E/DX2                !
 ! D229  D(28,30,32,34)       -151.7505         estimate D2E/DX2                !
 ! D230  D(28,30,32,70)         -2.4974         estimate D2E/DX2                !
 ! D231  D(29,31,33,35)         -8.3233         estimate D2E/DX2                !
 ! D232  D(29,31,33,73)       -155.2595         estimate D2E/DX2                !
 ! D233  D(69,31,33,35)        140.8165         estimate D2E/DX2                !
 ! D234  D(69,31,33,73)         -6.1197         estimate D2E/DX2                !
 ! D235  D(29,31,69,67)          8.9891         estimate D2E/DX2                !
 ! D236  D(29,31,69,71)        154.3292         estimate D2E/DX2                !
 ! D237  D(33,31,69,67)       -139.8675         estimate D2E/DX2                !
 ! D238  D(33,31,69,71)          5.4726         estimate D2E/DX2                !
 ! D239  D(30,32,34,36)         30.1897         estimate D2E/DX2                !
 ! D240  D(30,32,34,74)        148.3516         estimate D2E/DX2                !
 ! D241  D(30,32,34,88)        -91.2046         estimate D2E/DX2                !
 ! D242  D(70,32,34,36)       -120.8038         estimate D2E/DX2                !
 ! D243  D(70,32,34,74)         -2.642          estimate D2E/DX2                !
 ! D244  D(70,32,34,88)        117.8018         estimate D2E/DX2                !
 ! D245  D(30,32,70,68)         -4.6854         estimate D2E/DX2                !
 ! D246  D(30,32,70,72)       -153.5425         estimate D2E/DX2                !
 ! D247  D(34,32,70,68)        147.435          estimate D2E/DX2                !
 ! D248  D(34,32,70,72)         -1.4222         estimate D2E/DX2                !
 ! D249  D(31,33,35,9)          13.7935         estimate D2E/DX2                !
 ! D250  D(31,33,35,37)       -143.1918         estimate D2E/DX2                !
 ! D251  D(73,33,35,9)         155.7584         estimate D2E/DX2                !
 ! D252  D(73,33,35,37)         -1.2269         estimate D2E/DX2                !
 ! D253  D(31,33,73,71)          4.3833         estimate D2E/DX2                !
 ! D254  D(31,33,73,75)        145.8643         estimate D2E/DX2                !
 ! D255  D(35,33,73,71)       -142.1353         estimate D2E/DX2                !
 ! D256  D(35,33,73,75)         -0.6543         estimate D2E/DX2                !
 ! D257  D(32,34,36,12)        -32.5605         estimate D2E/DX2                !
 ! D258  D(32,34,36,38)        135.6194         estimate D2E/DX2                !
 ! D259  D(74,34,36,12)       -144.0897         estimate D2E/DX2                !
 ! D260  D(74,34,36,38)         24.0902         estimate D2E/DX2                !
 ! D261  D(88,34,36,12)         90.9422         estimate D2E/DX2                !
 ! D262  D(88,34,36,38)       -100.8779         estimate D2E/DX2                !
 ! D263  D(32,34,74,72)          5.8208         estimate D2E/DX2                !
 ! D264  D(32,34,74,76)       -142.8366         estimate D2E/DX2                !
 ! D265  D(36,34,74,72)        123.4441         estimate D2E/DX2                !
 ! D266  D(36,34,74,76)        -25.2133         estimate D2E/DX2                !
 ! D267  D(88,34,74,72)       -114.0738         estimate D2E/DX2                !
 ! D268  D(88,34,74,76)         97.2688         estimate D2E/DX2                !
 ! D269  D(9,35,37,39)          -1.5639         estimate D2E/DX2                !
 ! D270  D(9,35,37,77)        -154.4697         estimate D2E/DX2                !
 ! D271  D(33,35,37,39)        154.6655         estimate D2E/DX2                !
 ! D272  D(33,35,37,77)          1.7597         estimate D2E/DX2                !
 ! D273  D(12,36,38,42)         -1.3065         estimate D2E/DX2                !
 ! D274  D(12,36,38,78)        169.6353         estimate D2E/DX2                !
 ! D275  D(34,36,38,42)       -169.202          estimate D2E/DX2                !
 ! D276  D(34,36,38,78)          1.7399         estimate D2E/DX2                !
 ! D277  D(35,37,39,43)          7.6993         estimate D2E/DX2                !
 ! D278  D(35,37,39,79)       -145.4468         estimate D2E/DX2                !
 ! D279  D(77,37,39,43)        161.5            estimate D2E/DX2                !
 ! D280  D(77,37,39,79)          8.3538         estimate D2E/DX2                !
 ! D281  D(35,37,77,75)         -0.4837         estimate D2E/DX2                !
 ! D282  D(35,37,77,81)        144.727          estimate D2E/DX2                !
 ! D283  D(39,37,77,75)       -154.287          estimate D2E/DX2                !
 ! D284  D(39,37,77,81)         -9.0763         estimate D2E/DX2                !
 ! D285  D(36,38,42,46)         -2.0903         estimate D2E/DX2                !
 ! D286  D(36,38,42,80)        163.2377         estimate D2E/DX2                !
 ! D287  D(78,38,42,46)       -173.2374         estimate D2E/DX2                !
 ! D288  D(78,38,42,80)         -7.9094         estimate D2E/DX2                !
 ! D289  D(36,38,78,76)        -26.3828         estimate D2E/DX2                !
 ! D290  D(36,38,78,81)       -137.5389         estimate D2E/DX2                !
 ! D291  D(36,38,78,87)         98.6335         estimate D2E/DX2                !
 ! D292  D(42,38,78,76)        144.76           estimate D2E/DX2                !
 ! D293  D(42,38,78,81)         33.6038         estimate D2E/DX2                !
 ! D294  D(42,38,78,87)        -90.2238         estimate D2E/DX2                !
 ! D295  D(37,39,43,2)        -148.7205         estimate D2E/DX2                !
 ! D296  D(37,39,43,13)         -3.2898         estimate D2E/DX2                !
 ! D297  D(79,39,43,2)           5.4435         estimate D2E/DX2                !
 ! D298  D(79,39,43,13)        150.8742         estimate D2E/DX2                !
 ! D299  D(37,39,79,40)        140.4323         estimate D2E/DX2                !
 ! D300  D(37,39,79,82)         -3.6869         estimate D2E/DX2                !
 ! D301  D(43,39,79,40)        -13.5777         estimate D2E/DX2                !
 ! D302  D(43,39,79,82)       -157.6969         estimate D2E/DX2                !
 ! D303  D(44,40,41,45)         -4.3478         estimate D2E/DX2                !
 ! D304  D(44,40,41,80)       -161.6239         estimate D2E/DX2                !
 ! D305  D(79,40,41,45)        146.9599         estimate D2E/DX2                !
 ! D306  D(79,40,41,80)        -10.3161         estimate D2E/DX2                !
 ! D307  D(41,40,44,2)         154.1409         estimate D2E/DX2                !
 ! D308  D(41,40,44,47)          0.7914         estimate D2E/DX2                !
 ! D309  D(79,40,44,2)           6.6406         estimate D2E/DX2                !
 ! D310  D(79,40,44,47)       -146.7089         estimate D2E/DX2                !
 ! D311  D(41,40,79,39)       -143.5445         estimate D2E/DX2                !
 ! D312  D(41,40,79,82)          4.7569         estimate D2E/DX2                !
 ! D313  D(44,40,79,39)          7.7266         estimate D2E/DX2                !
 ! D314  D(44,40,79,82)        156.0279         estimate D2E/DX2                !
 ! D315  D(40,41,45,4)        -159.1497         estimate D2E/DX2                !
 ! D316  D(40,41,45,48)          4.2693         estimate D2E/DX2                !
 ! D317  D(80,41,45,4)          -5.7007         estimate D2E/DX2                !
 ! D318  D(80,41,45,48)        157.7182         estimate D2E/DX2                !
 ! D319  D(40,41,80,42)        127.557          estimate D2E/DX2                !
 ! D320  D(40,41,80,82)         11.1745         estimate D2E/DX2                !
 ! D321  D(40,41,80,86)       -109.5536         estimate D2E/DX2                !
 ! D322  D(45,41,80,42)        -28.3449         estimate D2E/DX2                !
 ! D323  D(45,41,80,82)       -144.7273         estimate D2E/DX2                !
 ! D324  D(45,41,80,86)         94.5446         estimate D2E/DX2                !
 ! D325  D(38,42,46,4)         158.9816         estimate D2E/DX2                !
 ! D326  D(38,42,46,14)          3.8614         estimate D2E/DX2                !
 ! D327  D(80,42,46,4)          -7.3928         estimate D2E/DX2                !
 ! D328  D(80,42,46,14)       -162.513          estimate D2E/DX2                !
 ! D329  D(38,42,80,41)       -132.5103         estimate D2E/DX2                !
 ! D330  D(38,42,80,82)        -21.6777         estimate D2E/DX2                !
 ! D331  D(38,42,80,86)        103.7353         estimate D2E/DX2                !
 ! D332  D(46,42,80,41)         33.3429         estimate D2E/DX2                !
 ! D333  D(46,42,80,82)        144.1755         estimate D2E/DX2                !
 ! D334  D(46,42,80,86)        -90.4116         estimate D2E/DX2                !
 ! D335  D(2,44,47,48)        -149.3634         estimate D2E/DX2                !
 ! D336  D(2,44,47,49)           4.6593         estimate D2E/DX2                !
[...]
 Alpha virt. eigenvalues --    1.17807   1.18379   1.18490   1.18917   1.19167
 Alpha virt. eigenvalues --    1.19458   1.19729   1.19862   1.20238   1.20576
 Alpha virt. eigenvalues --    1.20920   1.21048   1.21435   1.21808   1.22275
 Alpha virt. eigenvalues --    1.22373   1.23011   1.23069   1.23192   1.23407
 Alpha virt. eigenvalues --    1.23571   1.24219   1.24320   1.24442   1.24749
 Alpha virt. eigenvalues --    1.24907   1.25677   1.25833   1.26200   1.26258
 Alpha virt. eigenvalues --    1.26578   1.26775   1.27153   1.27740   1.28067
 Alpha virt. eigenvalues --    1.28210   1.28701   1.29001   1.29118   1.29406
 Alpha virt. eigenvalues --    1.29975   1.30350   1.30703   1.31063   1.31233
 Alpha virt. eigenvalues --    1.31597   1.31756   1.32152   1.32505   1.32816
 Alpha virt. eigenvalues --    1.33058   1.33327   1.33652   1.33993   1.34661
 Alpha virt. eigenvalues --    1.34959   1.35277   1.35700   1.36198   1.36723
 Alpha virt. eigenvalues --    1.37325   1.37774   1.37820   1.38730   1.39144
 Alpha virt. eigenvalues --    1.39276   1.40108   1.40310   1.41289   1.41453
 Alpha virt. eigenvalues --    1.41811   1.42426   1.42837   1.43683   1.44242
 Alpha virt. eigenvalues --    1.44969   1.45074   1.45629   1.46133   1.46837
 Alpha virt. eigenvalues --    1.47289   1.47570   1.48430   1.48544   1.49029
 Alpha virt. eigenvalues --    1.49700   1.50161   1.50469   1.51105   1.51737
 Alpha virt. eigenvalues --    1.52847   1.53209   1.53267   1.53784   1.53948
 Alpha virt. eigenvalues --    1.54835   1.55309   1.55556   1.55684   1.56383
 Alpha virt. eigenvalues --    1.57075   1.57077   1.57612   1.57870   1.58826
 Alpha virt. eigenvalues --    1.59536   1.60014   1.60229   1.61060   1.61452
 Alpha virt. eigenvalues --    1.61704   1.62465   1.62988   1.63361   1.63535
 Alpha virt. eigenvalues --    1.63939   1.64285   1.64782   1.64871   1.65236
 Alpha virt. eigenvalues --    1.65389   1.65430   1.65876   1.66125   1.66478
 Alpha virt. eigenvalues --    1.66841   1.67142   1.67465   1.67891   1.68213
 Alpha virt. eigenvalues --    1.68355   1.68591   1.68822   1.69024   1.69438
 Alpha virt. eigenvalues --    1.69594   1.69784   1.70106   1.70198   1.70707
 Alpha virt. eigenvalues --    1.70804   1.70941   1.71084   1.71348   1.71812
 Alpha virt. eigenvalues --    1.72109   1.72235   1.72344   1.72569   1.72716
 Alpha virt. eigenvalues --    1.72951   1.73475   1.73574   1.73690   1.73983
 Alpha virt. eigenvalues --    1.74056   1.74150   1.74531   1.74905   1.75237
 Alpha virt. eigenvalues --    1.75303   1.75832   1.75973   1.76213   1.76700
 Alpha virt. eigenvalues --    1.76935   1.76971   1.77113   1.77347   1.77434
 Alpha virt. eigenvalues --    1.77775   1.77966   1.78272   1.78542   1.78604
 Alpha virt. eigenvalues --    1.78938   1.79387   1.79727   1.80043   1.80329
 Alpha virt. eigenvalues --    1.80825   1.81226   1.81469   1.81763   1.82341
 Alpha virt. eigenvalues --    1.82478   1.83348   1.83619   1.83903   1.84662
 Alpha virt. eigenvalues --    1.85331   1.85664   1.85964   1.86113   1.86801
 Alpha virt. eigenvalues --    1.87072   1.87560   1.88589   1.88725   1.89139
 Alpha virt. eigenvalues --    1.89379   1.90025   1.90585   1.91006   1.91338
 Alpha virt. eigenvalues --    1.91943   1.92395   1.92481   1.93195   1.93505
 Alpha virt. eigenvalues --    1.93996   1.94127   1.94315   1.94898   1.95093
 Alpha virt. eigenvalues --    1.95314   1.95876   1.96060   1.96251   1.96587
 Alpha virt. eigenvalues --    1.96900   1.97188   1.97733   1.97778   1.98002
 Alpha virt. eigenvalues --    1.98449   1.98559   1.98848   1.99202   1.99343
 Alpha virt. eigenvalues --    1.99511   1.99777   1.99916   2.00114   2.00194
 Alpha virt. eigenvalues --    2.00770   2.01010   2.01132   2.01198   2.01417
 Alpha virt. eigenvalues --    2.01609   2.01880   2.02046   2.02247   2.02282
 Alpha virt. eigenvalues --    2.02730   2.03193   2.03370   2.03595   2.03895
 Alpha virt. eigenvalues --    2.04062   2.04400   2.04601   2.05074   2.05196
 Alpha virt. eigenvalues --    2.05823   2.06454   2.06570   2.07018   2.07655
 Alpha virt. eigenvalues --    2.07784   2.07935   2.08445   2.08749   2.09077
 Alpha virt. eigenvalues --    2.09367   2.09677   2.10872   2.11256   2.11771
 Alpha virt. eigenvalues --    2.11875   2.11975   2.12579   2.13143   2.13423
 Alpha virt. eigenvalues --    2.14124   2.14631   2.15078   2.15591   2.15725
 Alpha virt. eigenvalues --    2.16260   2.16574   2.17448   2.17709   2.18213
 Alpha virt. eigenvalues --    2.18760   2.19466   2.19837   2.20195   2.20628
 Alpha virt. eigenvalues --    2.20953   2.21120   2.21937   2.22241   2.22412
 Alpha virt. eigenvalues --    2.22541   2.23130   2.23524   2.23981   2.24253
 Alpha virt. eigenvalues --    2.24600   2.24994   2.25294   2.25465   2.26394
 Alpha virt. eigenvalues --    2.26589   2.26946   2.27147   2.27576   2.27836
 Alpha virt. eigenvalues --    2.27997   2.28662   2.29162   2.29549   2.30056
 Alpha virt. eigenvalues --    2.30315   2.30694   2.31221   2.31395   2.31686
 Alpha virt. eigenvalues --    2.32319   2.32705   2.33357   2.34247   2.34350
 Alpha virt. eigenvalues --    2.34877   2.35874   2.36168   2.36967   2.37131
 Alpha virt. eigenvalues --    2.37897   2.38235   2.39095   2.39449   2.40115
 Alpha virt. eigenvalues --    2.40552   2.41425   2.41771   2.42226   2.42676
 Alpha virt. eigenvalues --    2.43437   2.43606   2.44173   2.44387   2.44961
 Alpha virt. eigenvalues --    2.45457   2.45978   2.46705   2.46820   2.48120
 Alpha virt. eigenvalues --    2.48322   2.49239   2.49515   2.50377   2.50757
 Alpha virt. eigenvalues --    2.51077   2.51563   2.51931   2.52301   2.52597
 Alpha virt. eigenvalues --    2.53266   2.53651   2.53798   2.54277   2.54920
 Alpha virt. eigenvalues --    2.55111   2.55636   2.55821   2.56228   2.56576
 Alpha virt. eigenvalues --    2.56992   2.57266   2.57589   2.57797   2.58068
 Alpha virt. eigenvalues --    2.58256   2.58571   2.58921   2.59072   2.59379
 Alpha virt. eigenvalues --    2.59662   2.59872   2.60002   2.60309   2.60674
 Alpha virt. eigenvalues --    2.61114   2.61247   2.61904   2.62519   2.62670
 Alpha virt. eigenvalues --    2.63407   2.63835   2.64081   2.64328   2.64566
 Alpha virt. eigenvalues --    2.64975   2.65232   2.65427   2.65676   2.66004
 Alpha virt. eigenvalues --    2.66161   2.66506   2.67093   2.67349   2.67939
 Alpha virt. eigenvalues --    2.68029   2.68284   2.68584   2.68739   2.69093
 Alpha virt. eigenvalues --    2.69538   2.69771   2.70386   2.70725   2.71464
 Alpha virt. eigenvalues --    2.71892   2.72465   2.72743   2.73432   2.73748
 Alpha virt. eigenvalues --    2.74467   2.75158   2.75907   2.76077   2.76602
 Alpha virt. eigenvalues --    2.76838   2.76978   2.77404   2.78505   2.78711
 Alpha virt. eigenvalues --    2.79215   2.79647   2.80086   2.80556   2.81002
 Alpha virt. eigenvalues --    2.81187   2.81424   2.81603   2.82044   2.82192
 Alpha virt. eigenvalues --    2.82548   2.83377   2.83803   2.84170   2.84619
 Alpha virt. eigenvalues --    2.84776   2.85193   2.85818   2.86819   2.86888
 Alpha virt. eigenvalues --    2.88084   2.88661   2.88761   2.89213   2.89683
 Alpha virt. eigenvalues --    2.89847   2.90733   2.90985   2.91158   2.92038
 Alpha virt. eigenvalues --    2.92186   2.92663   2.92797   2.93135   2.93162
 Alpha virt. eigenvalues --    2.93750   2.94246   2.94657   2.95122   2.95320
 Alpha virt. eigenvalues --    2.96839   2.97389   2.97842   2.98288   2.99746
 Alpha virt. eigenvalues --    3.00206   3.01219   3.02192   3.02912   3.04336
 Alpha virt. eigenvalues --    3.04552   3.06975   3.07337   3.09803   3.10553
 Alpha virt. eigenvalues --    3.11856   3.12296   3.14225   3.15340   3.16223
 Alpha virt. eigenvalues --    3.17610   3.18919   3.21031   3.22360   3.24053
 Alpha virt. eigenvalues --    3.26418   3.26497   3.27343   3.29725   3.31569
 Alpha virt. eigenvalues --    3.34449   3.34487   3.35851   3.36473   3.37935
 Alpha virt. eigenvalues --    3.40100   3.41601   3.42793   3.44579   3.46638
 Alpha virt. eigenvalues --    3.48096   3.51467   3.52783   3.53202   3.54155
 Alpha virt. eigenvalues --    3.56991   3.60916   4.00995   4.01233   4.01911
 Alpha virt. eigenvalues --    4.02421   4.03028   4.04238   4.04448   4.04740
 Alpha virt. eigenvalues --    4.05249   4.06277   4.06786   4.06918   4.07034
 Alpha virt. eigenvalues --    4.07592   4.08597   4.09138   4.09726   4.10478
 Alpha virt. eigenvalues --    4.11314   4.12063   4.12330   4.12901   4.13717
 Alpha virt. eigenvalues --    4.15513   4.16421   4.17106   4.18240   4.19254
 Alpha virt. eigenvalues --    4.20373   4.20463   4.21420   4.21662   4.22249
 Alpha virt. eigenvalues --    4.22708   4.23598   4.24562   4.26673   4.27732
 Alpha virt. eigenvalues --    4.28027   4.28820   4.29132   4.29487   4.30125
 Alpha virt. eigenvalues --    4.31675   4.32825   4.33476   4.34983   4.37631
 Alpha virt. eigenvalues --    4.38250   4.40188   4.41289   4.41749   4.44093
 Alpha virt. eigenvalues --    4.44546   4.46082   4.48526   4.48897   4.49433
 Alpha virt. eigenvalues --    4.51584   4.53413   4.55443   4.56323   4.57658
 Alpha virt. eigenvalues --    4.58615   4.60405   4.63109   4.63742   4.66584
 Alpha virt. eigenvalues --    4.67310   4.68109   4.69231   4.72878   4.77426
 Alpha virt. eigenvalues --    4.82432   4.83545   4.84468   4.85812   4.89643
 Alpha virt. eigenvalues --    4.92098   4.92880   4.96726   5.04061   5.06663
 Alpha virt. eigenvalues --    5.12334   5.15002   5.17981   5.21968   5.24741
          Condensed to atoms (all electrons):
 Mulliken charges:
               1
     1  C   -0.024926
     2  C   -0.018152
     3  C   -0.012138
     4  C   -0.363947
     5  C    0.044950
     6  C   -0.010018
     7  C   -0.032315
     8  C    0.073381
     9  C    0.041165
    10  C    0.006649
    11  C    0.005898
    12  C    0.082858
    13  C   -0.024304
    14  C    0.004451
    15  C   -0.010164
    16  C    0.012131
    17  C    0.000868
    18  C    0.046988
    19  C   -0.001311
    20  C    0.056657
    21  C   -0.024100
    22  C   -0.023871
    23  C    0.000593
    24  C   -0.013336
    25  C   -0.023966
    26  C   -0.005129
    27  C   -0.021299
    28  C   -0.021212
    29  C    0.053308
    30  C    0.000241
    31  C   -0.035386
    32  C    0.071553
    33  C   -0.029276
    34  C   -0.354455
    35  C    0.044335
    36  C    0.099801
    37  C    0.038224
    38  C    0.121435
    39  C    0.044428
    40  C    0.003110
    41  C    0.075419
    42  C    0.149474
    43  C   -0.032547
    44  C    0.044413
    45  C    0.116408
    46  C    0.081958
    47  C    0.040837
    48  C    0.071063
    49  C   -0.024175
    50  C   -0.042717
    51  C   -0.011353
    52  C   -0.010736
    53  C   -0.007655
    54  C   -0.023807
    55  C   -0.023499
    56  C   -0.017560
    57  C    0.043886
    58  C   -0.029097
    59  C    0.056193
    60  C   -0.033347
    61  C   -0.020772
    62  C   -0.020739
    63  C   -0.030361
    64  C    0.050472
    65  C   -0.032337
    66  C    0.046166
    67  C    0.054573
    68  C    0.036415
    69  C   -0.021016
    70  C    0.005190
    71  C   -0.021587
    72  C    0.028107
    73  C   -0.020837
    74  C    0.088465
    75  C    0.024771
    76  C    0.091727
    77  C    0.001621
    78  C   -0.371873
    79  C    0.011395
    80  C   -0.378932
    81  C    0.088171
    82  C    0.089665
    83  C    0.045623
    84  C    0.053641
    85  Cl  -0.011488
    86  Cl   0.002767
    87  Cl   0.000661
    88  Cl  -0.016367
 Sum of Mulliken charges =  -0.00000
 Mulliken charges with hydrogens summed into heavy atoms:
               1
     1  C   -0.024926
     2  C   -0.018152
     3  C   -0.012138
     4  C   -0.363947
     5  C    0.044950
     6  C   -0.010018
     7  C   -0.032315
     8  C    0.073381
     9  C    0.041165
    10  C    0.006649
    11  C    0.005898
    12  C    0.082858
    13  C   -0.024304
    14  C    0.004451
    15  C   -0.010164
    16  C    0.012131
    17  C    0.000868
    18  C    0.046988
    19  C   -0.001311
    20  C    0.056657
    21  C   -0.024100
    22  C   -0.023871
    23  C    0.000593
    24  C   -0.013336
    25  C   -0.023966
    26  C   -0.005129
    27  C   -0.021299
    28  C   -0.021212
    29  C    0.053308
    30  C    0.000241
    31  C   -0.035386
    32  C    0.071553
    33  C   -0.029276
    34  C   -0.354455
    35  C    0.044335
    36  C    0.099801
    37  C    0.038224
    38  C    0.121435
    39  C    0.044428
    40  C    0.003110
    41  C    0.075419
    42  C    0.149474
    43  C   -0.032547
    44  C    0.044413
    45  C    0.116408
    46  C    0.081958
    47  C    0.040837
    48  C    0.071063
    49  C   -0.024175
    50  C   -0.042717
    51  C   -0.011353
    52  C   -0.010736
    53  C   -0.007655
    54  C   -0.023807
    55  C   -0.023499
    56  C   -0.017560
    57  C    0.043886
    58  C   -0.029097
    59  C    0.056193
    60  C   -0.033347
    61  C   -0.020772
    62  C   -0.020739
    63  C   -0.030361
    64  C    0.050472
    65  C   -0.032337
    66  C    0.046166
    67  C    0.054573
    68  C    0.036415
    69  C   -0.021016
    70  C    0.005190
    71  C   -0.021587
    72  C    0.028107
    73  C   -0.020837
    74  C    0.088465
    75  C    0.024771
    76  C    0.091727
    77  C    0.001621
    78  C   -0.371873
    79  C    0.011395
    80  C   -0.378932
    81  C    0.088171
    82  C    0.089665
    83  C    0.045623
    84  C    0.053641
    85  Cl  -0.011488
    86  Cl   0.002767
    87  Cl   0.000661
    88  Cl  -0.016367
 Electronic spatial extent (au):  <R**2>=          41959.5584
 Charge=             -0.0000 electrons
 Dipole moment (field-independent basis, Debye):
    X=              5.2973    Y=             -0.8353    Z=             -0.4287  Tot=              5.3799
 Quadrupole moment (field-independent basis, Debye-Ang):
   XX=           -528.9576   YY=           -514.4453   ZZ=           -500.0764
   XY=              5.4651   XZ=             -1.6652   YZ=             -0.4116
 Traceless Quadrupole moment (field-independent basis, Debye-Ang):
   XX=            -14.4645   YY=              0.0478   ZZ=             14.4167
   XY=              5.4651   XZ=             -1.6652   YZ=             -0.4116
 Octapole moment (field-independent basis, Debye-Ang**2):
  XXX=             22.0287  YYY=             -4.8533  ZZZ=             -2.9626  XYY=             11.4137
  XXY=             15.3176  XXZ=              2.6415  XZZ=            -30.9460  YZZ=              8.1073
  YYZ=            -14.1846  XYZ=             -6.8206
 Hexadecapole moment (field-independent basis, Debye-Ang**3):
 XXXX=         -24918.9021 YYYY=         -19976.8457 ZZZZ=         -16798.2037 XXXY=           -100.6324
 XXXZ=            -53.0174 YYYX=             48.3300 YYYZ=            -62.0278 ZZZX=              2.8960
 ZZZY=             -9.6250 XXYY=          -7580.7766 XXZZ=          -6934.9619 YYZZ=          -6141.9978
 XXYZ=             39.2960 YYXZ=             54.2335 ZZXY=            -11.9531
 N-N= 1.717357550017D+04 E-N=-4.612589580015D+04  KE= 5.006224093406D+03
 No NMR shielding tensors so no spin-rotation constants.
 Leave Link  601 at Sun Jun 26 14:55:48 2022, MaxMem=  1342177280 cpu:              22.7 elap:               1.2
 (Enter /home/mkliu/g16/l9999.exe)
 1\1\GINC-NODE03\FOpt\RB3LYP\6-31G(d,p)\C84Cl4\MKLIU\26-Jun-2022\0\\#P 
 opt b3lyp/6-31G(d, p) empiricaldispersion=GD3\\force\\0,1\C,8.49088148
 79,18.8347044541,10.7818874905\C,12.3819523815,20.1250568872,8.9571691
 953\C,8.2596220918,26.8856271345,10.5309801664\C,12.4998249817,25.7587
 947088,8.9156099127\C,8.0071944214,19.0560225311,9.4664467282\C,12.054
 2106784,19.4858809822,10.2023221941\C,7.9468644717,26.8574580713,9.155
 7853457\C,11.8867712895,26.1859616118,10.2317892479\C,8.9806595819,19.
 1514547876,8.373781891\C,12.3284801026,20.1349274433,11.3897226734\C,1
 2.140234801,25.5157629273,11.3891035479\C,8.9487638632,26.6188952939,8
 .16853271\C,10.3473501774,18.9910219734,8.689742265\C,10.2828552712,26
 .6619848356,8.6344935159\C,10.8034285617,18.7686252323,10.0288053589\C
 ,10.6111294219,26.7967117954,10.0272005514\C,9.8840010295,18.717870608
 9,11.0656505154\C,9.6027846213,26.7926373574,11.0174845849\C,10.166476
 9538,19.4116436374,12.3170836419\C,9.8655767751,26.0739391963,12.26046
 42111\C,8.9475976359,19.9820437755,12.8047408555\C,8.7780721608,25.438
 3193358,12.9247527903\C,7.8910451992,19.5127559879,11.9217452561\C,7.4
 336809958,25.5083775509,12.3789406724\C,6.7403370172,20.2351472279,11.
 7699693732\C,7.1738272573,26.2166996073,11.2371242464\C,6.1031468707,2
 0.3141236744,10.4829216896\C,6.2176864059,25.7180343844,10.266608458\C
 ,6.7222271999,19.7397254927,9.3359354757\C,6.638109831,26.222691812,9.
 0009891771\C,6.3898863633,20.3260381498,8.1024181749\C,6.3191316699,25
 .5612264453,7.8509652724\C,7.3206174818,20.3278131962,6.9876956607\C,7
 .1925001817,25.6367122962,6.6052317106\C,8.6485898512,19.8886870566,7.
 1497829584\C,8.6645719562,25.8553386664,6.9769734605\C,9.696892061,20.
 5984638903,6.412706093\C,9.6891197644,25.1360962608,6.3523845093\C,11.
 0524108733,20.5884696047,6.917614361\C,12.7648259598,22.1758307335,7.7
 611176173\C,12.796811388,23.6081173567,7.7616355101\C,11.0337609331,25
 .1743186201,6.8730263184\C,11.3730158101,19.765817315,8.0107147832\C,1
 2.9840602314,21.420251177,8.9331097823\C,12.9658105872,24.3106186803,8
 .923812903\C,11.3141290852,25.9586070108,7.9670592375\C,13.2381438153,
 22.1331832357,10.175340556\C,13.2006245662,23.5936740218,10.1726074412
 \C,12.9503268166,21.442837196,11.3871391513\C,12.8727855195,24.2511147
 462,11.3838510257\C,12.4413278524,22.1420334107,12.5231891348\C,12.401
 7037684,23.5209393534,12.5094158276\C,11.3587008326,20.0988887168,12.4
 75228702\C,11.1318034961,25.4619199243,12.4314239964\C,11.3595851011,2
 1.3775778046,13.1235619741\C,11.2737932075,24.210323974,13.1048953725\
 C,8.9016252302,21.2787886057,13.3770610135\C,8.9117702789,24.161333347
 6,13.5284729563\C,7.6449076948,22.0276116662,13.24099272\C,7.661081470
 7,23.432220374,13.3475733213\C,6.5799822163,21.4879789434,12.461689609
 5\C,6.7577585109,24.255928261,12.6125214369\C,5.7497020629,22.30966746
 26,11.640603378\C,5.8627679999,23.7141697335,11.6419986369\C,5.4483358
 544,21.5803251802,10.4188645112\C,5.6108334365,24.4448135431,10.397166
 5464\C,5.2458320846,22.2499126853,9.1941612577\C,5.3023936569,23.71457
 83586,9.1734626615\C,5.5893636528,21.5137478275,8.0223452834\C,5.61469
 79324,24.3331073318,7.9297198567\C,5.9342468275,22.1830752893,6.797241
 6065\C,5.9508393229,23.5668814728,6.7486790039\C,6.9861483753,21.44560
 41227,6.1547383395\C,6.9562250815,24.2716182953,5.9992293151\C,7.98604
 03835,22.1440570301,5.4851813965\C,7.9532185355,23.5764890105,5.379364
 6671\C,9.3380749848,21.7079774845,5.6030692874\C,9.3630522665,24.11837
 75291,5.2476684946\C,11.8717664908,21.7394615832,6.7380183826\C,12.077
 3114961,24.1316045747,6.509844537\C,10.1890131284,22.8557150161,5.4400
 996934\C,11.4219238864,22.8726210535,6.001993328\C,10.1630375106,22.00
 73725356,13.544365282\C,10.1517721661,23.4780844254,13.5817062402\Cl,1
 3.9089477401,26.8857038159,8.4687606458\Cl,13.2876888327,24.8113852843
 ,5.2886662343\Cl,9.6603037286,24.8975539831,3.5989139721\Cl,6.63948130
 21,27.0061204385,5.4805280146\\Version=ES64L-G16RevA.03\State=1-A\HF=-
 5041.8306404\RMSD=1.752e-09\RMSF=7.286e-05\Dipole=-0.5027837,-1.356797
 3,1.5447623\Quadrupole=-0.4088608,4.2675085,-3.8586477,-4.9426044,3.02
 72097,9.1201084\PG=C01 [X(C84Cl4)]\\@


 THERE IS NO SCIENCE WITHOUT FANCY, NOR ART WITHOUT FACTS.
     -- VLADIMIR NABAKOV
 Job cpu time:       1 days  0 hours 29 minutes 36.4 seconds.
 Elapsed time:       0 days  1 hours  1 minutes 20.1 seconds.
 File lengths (MBytes):  RWF=   1098 Int=      0 D2E=      0 Chk=    138 Scr=      1
 Normal termination of Gaussian 16 at Sun Jun 26 14:55:50 2022.
