 Entering Gaussian System, Link 0=g16
 Input=6_addons_C84_11_Cl22_rank_7.gjf
 Output=6_addons_C84_11_Cl22_rank_7.log
 Initial command:
 /home/mkliu/g16/l1.exe "/data/scratch/Gau-228364.inp" -scrdir="/data/scratch/"
 Entering Link 1 = /home/mkliu/g16/l1.exe PID=    228365.
  
 Copyright (c) 1988,1990,1992,1993,1995,1998,2003,2009,2016,
            Gaussian, Inc.  All Rights Reserved.
  
 This is part of the Gaussian(R) 16 program.  It is based on
 the Gaussian(R) 09 system (copyright 2009, Gaussian, Inc.),
 the Gaussian(R) 03 system (copyright 2003, Gaussian, Inc.),
 the Gaussian(R) 98 system (copyright 1998, Gaussian, Inc.),
 the Gaussian(R) 94 system (copyright 1995, Gaussian, Inc.),
 the Gaussian 92(TM) system (copyright 1992, Gaussian, Inc.),
 the Gaussian 90(TM) system (copyright 1990, Gaussian, Inc.),
 the Gaussian 88(TM) system (copyright 1988, Gaussian, Inc.),
 the Gaussian 86(TM) system (copyright 1986, Carnegie Mellon
 University), and the Gaussian 82(TM) system (copyright 1983,
 Carnegie Mellon University). Gaussian is a federally registered
 trademark of Gaussian, Inc.
  
 This software contains proprietary and confidential information,
 including trade secrets, belonging to Gaussian, Inc.
  
 This software is provided under written license and may be
 used, copied, transmitted, or stored only in accord with that
 written license.
  
 The following legend is applicable only to US Government
 contracts under FAR:
  
                    RESTRICTED RIGHTS LEGEND
  
 Use, reproduction and disclosure by the US Government is
 subject to restrictions as set forth in subparagraphs (a)
 and (c) of the Commercial Computer Software - Restricted
 Rights clause in FAR 52.227-19.
  
 Gaussian, Inc.
 340 Quinnipiac St., Bldg. 40, Wallingford CT 06492
  
  
 ---------------------------------------------------------------
 Warning -- This program may not be used in any manner that
 competes with the business of Gaussian, Inc. or will provide
 assistance to any competitor of Gaussian, Inc.  The licensee
 of this program is prohibited from giving any competitor of
 Gaussian, Inc. access to this program.  By using this program,
 the user acknowledges that Gaussian, Inc. is engaged in the
 business of creating and licensing software in the field of
 computational chemistry and represents and warrants to the
 licensee that it is not a competitor of Gaussian, Inc. and that
 it will not use this program in any manner prohibited above.
 ---------------------------------------------------------------
  

 Cite this work as:
 Gaussian 16, Revision A.03,
 M. J. Frisch, G. W. Trucks, H. B. Schlegel, G. E. Scuseria, 
 M. A. Robb, J. R. Cheeseman, G. Scalmani, V. Barone, 
 G. A. Petersson, H. Nakatsuji, X. Li, M. Caricato, A. V. Marenich, 
 J. Bloino, B. G. Janesko, R. Gomperts, B. Mennucci, H. P. Hratchian, 
 J. V. Ortiz, A. F. Izmaylov, J. L. Sonnenberg, D. Williams-Young, 
 F. Ding, F. Lipparini, F. Egidi, J. Goings, B. Peng, A. Petrone, 
 T. Henderson, D. Ranasinghe, V. G. Zakrzewski, J. Gao, N. Rega, 
 G. Zheng, W. Liang, M. Hada, M. Ehara, K. Toyota, R. Fukuda, 
 J. Hasegawa, M. Ishida, T. Nakajima, Y. Honda, O. Kitao, H. Nakai, 
 T. Vreven, K. Throssell, J. A. Montgomery, Jr., J. E. Peralta, 
 F. Ogliaro, M. J. Bearpark, J. J. Heyd, E. N. Brothers, K. N. Kudin, 
 V. N. Staroverov, T. A. Keith, R. Kobayashi, J. Normand, 
 K. Raghavachari, A. P. Rendell, J. C. Burant, S. S. Iyengar, 
 J. Tomasi, M. Cossi, J. M. Millam, M. Klene, C. Adamo, R. Cammi, 
 J. W. Ochterski, R. L. Martin, K. Morokuma, O. Farkas, 
 J. B. Foresman, and D. J. Fox, Gaussian, Inc., Wallingford CT, 2016.
 
 ******************************************
 Gaussian 16:  ES64L-G16RevA.03 25-Dec-2016
                28-Jun-2022 
 ******************************************
 %mem=10GB
 %chk=6_addons_C84_11_Cl22_rank_7.chk
 %nprocshared=24
 Will use up to   24 processors via shared memory.
 ------------------------------------------------
 #P opt b3lyp/6-31G(d, p) empiricaldispersion=GD3
 ------------------------------------------------
 1/18=20,19=15,26=3,38=1/1,3;
 2/9=110,12=2,17=6,18=5,40=1/2;
 3/5=1,6=6,7=101,11=2,25=1,30=1,71=1,74=-5,124=31/1,2,3;
 4//1;
 5/5=2,38=5/2;
 6/7=2,8=2,9=2,10=2,28=1/1;
 7//1,2,3,16;
 1/18=20,19=15,26=3/3(2);
 2/9=110/2;
 99//99;
 2/9=110/2;
 3/5=1,6=6,7=101,11=2,25=1,30=1,71=1,74=-5,124=31/1,2,3;
 4/5=5,16=3,69=1/1;
 5/5=2,38=5/2;
 7//1,2,3,16;
 1/18=20,19=15,26=3/3(-5);
 2/9=110/2;
 6/7=2,8=2,9=2,10=2,19=2,28=1/1;
 99/9=1/99;
 Leave Link    1 at Tue Jun 28 06:44:05 2022, MaxMem=  1342177280 cpu:               0.6 elap:               0.1
 (Enter /home/mkliu/g16/l101.exe)
 -----
 force
 -----
 Symbolic Z-matrix:
 Charge =  0 Multiplicity = 1
 C                     8.48326   18.89223   10.75887 
 C                     12.55626   19.99971   8.90023 
 C                     8.25117   26.85856   10.53358 
 C                     12.45355   25.74084   8.92976 
 C                     8.00742   19.11548   9.45166 
 C                     12.06417   19.49515   10.22072 
 C                     7.9447    26.82909   9.13971 
 C                     11.85487   26.17209   10.23725 
 C                     8.96569   19.22141   8.37288 
 C                     12.3305   20.13787   11.39181 
 C                     12.11302   25.51666   11.40457 
 C                     8.93485   26.60259   8.16326 
 C                     10.3443   19.0907   8.69592 
 C                     10.26241   26.62997   8.63601 
 C                     10.80404   18.85161   10.03523 
 C                     10.5866   26.76484   10.02842 
 C                     9.88061   18.77411   11.05287 
 C                     9.57941   26.76055   11.01302 
 C                     10.15169   19.44667   12.28452 
 C                     9.83735   26.04385   12.23441 
 C                     8.93164   20.00997   12.77097 
 C                     8.75861   25.4188   12.89695 
 C                     7.89121   19.54128   11.8916 
 C                     7.42841   25.50199   12.37048 
 C                     6.73769   20.27203   11.74182 
 C                     7.17419   26.21799   11.22257 
 C                     6.1155    20.35855   10.46114 
 C                     6.22288   25.72407   10.26062 
 C                     6.73424   19.7865   9.32722 
 C                     6.65919   26.22691   8.99323 
 C                     6.40101   20.37804   8.10346 
 C                     6.353     25.55033   7.83885 
 C                     7.31551   20.37739   7.00183 
 C                     7.29566   25.4555   6.76424 
 C                     8.65025   19.92706   7.16745 
 C                     8.64555   25.84831   6.97018 
 C                     9.68239   20.60867   6.42803 
 C                     9.69678   25.11337   6.34426 
 C                     11.02946   20.59336   6.91692 
 C                     12.66832   22.19077   7.81371 
 C                     12.68372   23.58851   7.80029 
 C                     10.99226   25.1346   6.87732 
 C                     11.34583   19.78031   8.01234 
 C                     12.87977   21.46932   8.98102 
 C                     12.84068   24.28752   8.97885 
 C                     11.27933   25.92501   7.98714 
 C                     13.10186   22.1704   10.17329 
 C                     13.06572   23.57684   10.17386 
 C                     13.15799   21.39339   11.48059 
 C                     13.0491   24.3411   11.48662 
 C                     12.41922   22.15908   12.5448 
 C                     12.37503   23.51295   12.54032 
 C                     11.33931   20.14152   12.42257 
 C                     11.09604   25.42417   12.39199 
 C                     11.3241   21.41244   13.06474 
 C                     11.2335   24.17195   13.06369 
 C                     8.8803    21.29204   13.34332 
 C                     8.88597   24.13898   13.49703 
 C                     7.63819   22.03135   13.21287 
 C                     7.65521   23.42889   13.31979 
 C                     6.57976   21.50911   12.4329 
 C                     6.75497   24.26146   12.58482 
 C                     5.76377   22.33686   11.60878 
 C                     5.87565   23.7354   11.61215 
 C                     5.46925   21.62427   10.39832 
 C                     5.6266    24.4632   10.37748 
 C                     5.25152   22.29088   9.17935 
 C                     5.30092   23.74034   9.15448 
 C                     5.58713   21.5521   8.02388 
 C                     5.58507   24.34402   7.91883 
 C                     5.92194   22.20763   6.79744 
 C                     5.92455   23.58337   6.74413 
 C                     6.97703   21.46975   6.16433 
 C                     6.96979   24.27476   6.03107 
 C                     7.97638   22.16059   5.48735 
 C                     7.95697   23.56705   5.37577 
 C                     9.33159   21.71132   5.60786 
 C                     9.35985   24.09656   5.26381 
 C                     11.84786   21.72622   6.71627 
 C                     12.04104   24.10807   6.5319 
 C                     10.16767   22.83501   5.43937 
 C                     11.41335   22.85033   6.00542 
 C                     10.12592   22.01659   13.5025 
 C                     10.11702   23.45258   13.54594 
 Cl                    13.86698   26.74555   8.43449 
 Cl                    13.25671   24.81812   5.40607 
 Cl                    14.73482   24.81844   11.90834 
 Cl                    14.88539   21.07507   11.88668 
 Cl                    14.00953   19.10116   8.29483 
 Cl                    9.67361   24.87917   3.65826 
 
 ITRead=  0  0  0  0  0  0  0  0  0  0  0  0  0  0  0  0  0  0  0  0
 ITRead=  0  0  0  0  0  0  0  0  0  0  0  0  0  0  0  0  0  0  0  0
 ITRead=  0  0  0  0  0  0  0  0  0  0  0  0  0  0  0  0  0  0  0  0
 ITRead=  0  0  0  0  0  0  0  0  0  0  0  0  0  0  0  0  0  0  0  0
 ITRead=  0  0  0  0  0  0  0  0  0  0
 MicOpt= -1 -1 -1 -1 -1 -1 -1 -1 -1 -1 -1 -1 -1 -1 -1 -1 -1 -1 -1 -1
 MicOpt= -1 -1 -1 -1 -1 -1 -1 -1 -1 -1 -1 -1 -1 -1 -1 -1 -1 -1 -1 -1
 MicOpt= -1 -1 -1 -1 -1 -1 -1 -1 -1 -1 -1 -1 -1 -1 -1 -1 -1 -1 -1 -1
 MicOpt= -1 -1 -1 -1 -1 -1 -1 -1 -1 -1 -1 -1 -1 -1 -1 -1 -1 -1 -1 -1
 MicOpt= -1 -1 -1 -1 -1 -1 -1 -1 -1 -1
 NAtoms=     90 NQM=       90 NQMF=       0 NMMI=      0 NMMIF=      0
                NMic=       0 NMicF=      0.
                    Isotopes and Nuclear Properties:
 (Nuclear quadrupole moments (NQMom) in fm**2, nuclear magnetic moments (NMagM)
  in nuclear magnetons)

  Atom         1           2           3           4           5           6           7           8           9          10
 IAtWgt=          12          12          12          12          12          12          12          12          12          12
 AtmWgt=  12.0000000  12.0000000  12.0000000  12.0000000  12.0000000  12.0000000  12.0000000  12.0000000  12.0000000  12.0000000
 NucSpn=           0           0           0           0           0           0           0           0           0           0
 AtZEff=  -0.0000000  -0.0000000  -0.0000000  -0.0000000  -0.0000000  -0.0000000  -0.0000000  -0.0000000  -0.0000000  -0.0000000
 NQMom=    0.0000000   0.0000000   0.0000000   0.0000000   0.0000000   0.0000000   0.0000000   0.0000000   0.0000000   0.0000000
 NMagM=    0.0000000   0.0000000   0.0000000   0.0000000   0.0000000   0.0000000   0.0000000   0.0000000   0.0000000   0.0000000
 AtZNuc=   6.0000000   6.0000000   6.0000000   6.0000000   6.0000000   6.0000000   6.0000000   6.0000000   6.0000000   6.0000000

  Atom        11          12          13          14          15          16          17          18          19          20
 IAtWgt=          12          12          12          12          12          12          12          12          12          12
 AtmWgt=  12.0000000  12.0000000  12.0000000  12.0000000  12.0000000  12.0000000  12.0000000  12.0000000  12.0000000  12.0000000
 NucSpn=           0           0           0           0           0           0           0           0           0           0
 AtZEff=  -0.0000000  -0.0000000  -0.0000000  -0.0000000  -0.0000000  -0.0000000  -0.0000000  -0.0000000  -0.0000000  -0.0000000
 NQMom=    0.0000000   0.0000000   0.0000000   0.0000000   0.0000000   0.0000000   0.0000000   0.0000000   0.0000000   0.0000000
 NMagM=    0.0000000   0.0000000   0.0000000   0.0000000   0.0000000   0.0000000   0.0000000   0.0000000   0.0000000   0.0000000
 AtZNuc=   6.0000000   6.0000000   6.0000000   6.0000000   6.0000000   6.0000000   6.0000000   6.0000000   6.0000000   6.0000000

  Atom        21          22          23          24          25          26          27          28          29          30
 IAtWgt=          12          12          12          12          12          12          12          12          12          12
 AtmWgt=  12.0000000  12.0000000  12.0000000  12.0000000  12.0000000  12.0000000  12.0000000  12.0000000  12.0000000  12.0000000
 NucSpn=           0           0           0           0           0           0           0           0           0           0
 AtZEff=  -0.0000000  -0.0000000  -0.0000000  -0.0000000  -0.0000000  -0.0000000  -0.0000000  -0.0000000  -0.0000000  -0.0000000
 NQMom=    0.0000000   0.0000000   0.0000000   0.0000000   0.0000000   0.0000000   0.0000000   0.0000000   0.0000000   0.0000000
 NMagM=    0.0000000   0.0000000   0.0000000   0.0000000   0.0000000   0.0000000   0.0000000   0.0000000   0.0000000   0.0000000
 AtZNuc=   6.0000000   6.0000000   6.0000000   6.0000000   6.0000000   6.0000000   6.0000000   6.0000000   6.0000000   6.0000000

  Atom        31          32          33          34          35          36          37          38          39          40
 IAtWgt=          12          12          12          12          12          12          12          12          12          12
 AtmWgt=  12.0000000  12.0000000  12.0000000  12.0000000  12.0000000  12.0000000  12.0000000  12.0000000  12.0000000  12.0000000
 NucSpn=           0           0           0           0           0           0           0           0           0           0
 AtZEff=  -0.0000000  -0.0000000  -0.0000000  -0.0000000  -0.0000000  -0.0000000  -0.0000000  -0.0000000  -0.0000000  -0.0000000
 NQMom=    0.0000000   0.0000000   0.0000000   0.0000000   0.0000000   0.0000000   0.0000000   0.0000000   0.0000000   0.0000000
 NMagM=    0.0000000   0.0000000   0.0000000   0.0000000   0.0000000   0.0000000   0.0000000   0.0000000   0.0000000   0.0000000
 AtZNuc=   6.0000000   6.0000000   6.0000000   6.0000000   6.0000000   6.0000000   6.0000000   6.0000000   6.0000000   6.0000000

  Atom        41          42          43          44          45          46          47          48          49          50
 IAtWgt=          12          12          12          12          12          12          12          12          12          12
 AtmWgt=  12.0000000  12.0000000  12.0000000  12.0000000  12.0000000  12.0000000  12.0000000  12.0000000  12.0000000  12.0000000
 NucSpn=           0           0           0           0           0           0           0           0           0           0
 AtZEff=  -0.0000000  -0.0000000  -0.0000000  -0.0000000  -0.0000000  -0.0000000  -0.0000000  -0.0000000  -0.0000000  -0.0000000
 NQMom=    0.0000000   0.0000000   0.0000000   0.0000000   0.0000000   0.0000000   0.0000000   0.0000000   0.0000000   0.0000000
 NMagM=    0.0000000   0.0000000   0.0000000   0.0000000   0.0000000   0.0000000   0.0000000   0.0000000   0.0000000   0.0000000
 AtZNuc=   6.0000000   6.0000000   6.0000000   6.0000000   6.0000000   6.0000000   6.0000000   6.0000000   6.0000000   6.0000000

  Atom        51          52          53          54          55          56          57          58          59          60
 IAtWgt=          12          12          12          12          12          12          12          12          12          12
 AtmWgt=  12.0000000  12.0000000  12.0000000  12.0000000  12.0000000  12.0000000  12.0000000  12.0000000  12.0000000  12.0000000
 NucSpn=           0           0           0           0           0           0           0           0           0           0
 AtZEff=  -0.0000000  -0.0000000  -0.0000000  -0.0000000  -0.0000000  -0.0000000  -0.0000000  -0.0000000  -0.0000000  -0.0000000
 NQMom=    0.0000000   0.0000000   0.0000000   0.0000000   0.0000000   0.0000000   0.0000000   0.0000000   0.0000000   0.0000000
 NMagM=    0.0000000   0.0000000   0.0000000   0.0000000   0.0000000   0.0000000   0.0000000   0.0000000   0.0000000   0.0000000
 AtZNuc=   6.0000000   6.0000000   6.0000000   6.0000000   6.0000000   6.0000000   6.0000000   6.0000000   6.0000000   6.0000000

  Atom        61          62          63          64          65          66          67          68          69          70
 IAtWgt=          12          12          12          12          12          12          12          12          12          12
 AtmWgt=  12.0000000  12.0000000  12.0000000  12.0000000  12.0000000  12.0000000  12.0000000  12.0000000  12.0000000  12.0000000
 NucSpn=           0           0           0           0           0           0           0           0           0           0
 AtZEff=  -0.0000000  -0.0000000  -0.0000000  -0.0000000  -0.0000000  -0.0000000  -0.0000000  -0.0000000  -0.0000000  -0.0000000
 NQMom=    0.0000000   0.0000000   0.0000000   0.0000000   0.0000000   0.0000000   0.0000000   0.0000000   0.0000000   0.0000000
 NMagM=    0.0000000   0.0000000   0.0000000   0.0000000   0.0000000   0.0000000   0.0000000   0.0000000   0.0000000   0.0000000
 AtZNuc=   6.0000000   6.0000000   6.0000000   6.0000000   6.0000000   6.0000000   6.0000000   6.0000000   6.0000000   6.0000000

  Atom        71          72          73          74          75          76          77          78          79          80
 IAtWgt=          12          12          12          12          12          12          12          12          12          12
 AtmWgt=  12.0000000  12.0000000  12.0000000  12.0000000  12.0000000  12.0000000  12.0000000  12.0000000  12.0000000  12.0000000
 NucSpn=           0           0           0           0           0           0           0           0           0           0
 AtZEff=  -0.0000000  -0.0000000  -0.0000000  -0.0000000  -0.0000000  -0.0000000  -0.0000000  -0.0000000  -0.0000000  -0.0000000
 NQMom=    0.0000000   0.0000000   0.0000000   0.0000000   0.0000000   0.0000000   0.0000000   0.0000000   0.0000000   0.0000000
 NMagM=    0.0000000   0.0000000   0.0000000   0.0000000   0.0000000   0.0000000   0.0000000   0.0000000   0.0000000   0.0000000
 AtZNuc=   6.0000000   6.0000000   6.0000000   6.0000000   6.0000000   6.0000000   6.0000000   6.0000000   6.0000000   6.0000000

  Atom        81          82          83          84          85          86          87          88          89          90
 IAtWgt=          12          12          12          12          35          35          35          35          35          35
 AtmWgt=  12.0000000  12.0000000  12.0000000  12.0000000  34.9688527  34.9688527  34.9688527  34.9688527  34.9688527  34.9688527
 NucSpn=           0           0           0           0           3           3           3           3           3           3
 AtZEff=  -0.0000000  -0.0000000  -0.0000000  -0.0000000  -0.0000000  -0.0000000  -0.0000000  -0.0000000  -0.0000000  -0.0000000
 NQMom=    0.0000000   0.0000000   0.0000000   0.0000000  -8.1650000  -8.1650000  -8.1650000  -8.1650000  -8.1650000  -8.1650000
 NMagM=    0.0000000   0.0000000   0.0000000   0.0000000   0.8218740   0.8218740   0.8218740   0.8218740   0.8218740   0.8218740
 AtZNuc=   6.0000000   6.0000000   6.0000000   6.0000000  17.0000000  17.0000000  17.0000000  17.0000000  17.0000000  17.0000000
 Leave Link  101 at Tue Jun 28 06:44:05 2022, MaxMem=  1342177280 cpu:               6.5 elap:               0.3
 (Enter /home/mkliu/g16/l103.exe)

 GradGradGradGradGradGradGradGradGradGradGradGradGradGradGradGradGradGrad
 Berny optimization.
 Initialization pass.
                           ----------------------------
                           !    Initial Parameters    !
                           ! (Angstroms and Degrees)  !
 --------------------------                            --------------------------
 ! Name  Definition              Value          Derivative Info.                !
 --------------------------------------------------------------------------------
 ! R1    R(1,5)                  1.4089         estimate D2E/DX2                !
 ! R2    R(1,17)                 1.4328         estimate D2E/DX2                !
 ! R3    R(1,23)                 1.4335         estimate D2E/DX2                !
 ! R4    R(2,6)                  1.4968         estimate D2E/DX2                !
 ! R5    R(2,43)                 1.5171         estimate D2E/DX2                !
 ! R6    R(2,44)                 1.507          estimate D2E/DX2                !
 ! R7    R(2,89)                 1.8127         estimate D2E/DX2                !
 ! R8    R(3,7)                  1.4275         estimate D2E/DX2                !
 ! R9    R(3,18)                 1.4155         estimate D2E/DX2                !
 ! R10   R(3,26)                 1.43           estimate D2E/DX2                !
 ! R11   R(4,8)                  1.5013         estimate D2E/DX2                !
 ! R12   R(4,45)                 1.5048         estimate D2E/DX2                !
 ! R13   R(4,46)                 1.517          estimate D2E/DX2                !
 ! R14   R(4,85)                 1.8035         estimate D2E/DX2                !
 ! R15   R(5,9)                  1.4468         estimate D2E/DX2                !
 ! R16   R(5,29)                 1.4446         estimate D2E/DX2                !
 ! R17   R(6,10)                 1.3622         estimate D2E/DX2                !
 ! R18   R(6,15)                 1.427          estimate D2E/DX2                !
 ! R19   R(7,12)                 1.4089         estimate D2E/DX2                !
 ! R20   R(7,30)                 1.4271         estimate D2E/DX2                !
 ! R21   R(8,11)                 1.3634         estimate D2E/DX2                !
 ! R22   R(8,16)                 1.4154         estimate D2E/DX2                !
 ! R23   R(9,13)                 1.422          estimate D2E/DX2                !
 ! R24   R(9,35)                 1.432          estimate D2E/DX2                !
 ! R25   R(10,49)                1.5063         estimate D2E/DX2                !
 ! R26   R(10,53)                1.43           estimate D2E/DX2                !
 ! R27   R(11,50)                1.505          estimate D2E/DX2                !
 ! R28   R(11,54)                1.4205         estimate D2E/DX2                !
 ! R29   R(12,14)                1.4095         estimate D2E/DX2                !
 ! R30   R(12,36)                1.4409         estimate D2E/DX2                !
 ! R31   R(13,15)                1.4361         estimate D2E/DX2                !
 ! R32   R(13,43)                1.395          estimate D2E/DX2                !
 ! R33   R(14,16)                1.436          estimate D2E/DX2                !
 ! R34   R(14,46)                1.3972         estimate D2E/DX2                !
 ! R35   R(15,17)                1.3763         estimate D2E/DX2                !
 ! R36   R(16,18)                1.4085         estimate D2E/DX2                !
 ! R37   R(17,19)                1.4293         estimate D2E/DX2                !
 ! R38   R(18,20)                1.4394         estimate D2E/DX2                !
 ! R39   R(19,21)                1.4291         estimate D2E/DX2                !
 ! R40   R(19,53)                1.3829         estimate D2E/DX2                !
 ! R41   R(20,22)                1.4119         estimate D2E/DX2                !
 ! R42   R(20,54)                1.4118         estimate D2E/DX2                !
 ! R43   R(21,23)                1.4407         estimate D2E/DX2                !
 ! R44   R(21,57)                1.405          estimate D2E/DX2                !
 ! R45   R(22,24)                1.433          estimate D2E/DX2                !
 ! R46   R(22,58)                1.4192         estimate D2E/DX2                !
 ! R47   R(23,25)                1.3737         estimate D2E/DX2                !
 ! R48   R(24,26)                1.3766         estimate D2E/DX2                !
 ! R49   R(24,62)                1.4277         estimate D2E/DX2                !
 ! R50   R(25,27)                1.4264         estimate D2E/DX2                !
 ! R51   R(25,61)                1.4258         estimate D2E/DX2                !
 ! R52   R(26,28)                1.4402         estimate D2E/DX2                !
 ! R53   R(27,29)                1.4127         estimate D2E/DX2                !
 ! R54   R(27,65)                1.4225         estimate D2E/DX2                !
 ! R55   R(28,30)                1.4316         estimate D2E/DX2                !
 ! R56   R(28,66)                1.3996         estimate D2E/DX2                !
 ! R57   R(29,31)                1.3995         estimate D2E/DX2                !
 ! R58   R(30,32)                1.3726         estimate D2E/DX2                !
 ! R59   R(31,33)                1.4317         estimate D2E/DX2                !
 ! R60   R(31,69)                1.4308         estimate D2E/DX2                !
 ! R61   R(32,34)                1.4326         estimate D2E/DX2                !
 ! R62   R(32,70)                1.4322         estimate D2E/DX2                !
 ! R63   R(33,35)                1.4184         estimate D2E/DX2                !
 ! R64   R(33,73)                1.4175         estimate D2E/DX2                !
 ! R65   R(34,36)                1.4209         estimate D2E/DX2                !
 ! R66   R(34,74)                1.4275         estimate D2E/DX2                !
 ! R67   R(35,37)                1.4411         estimate D2E/DX2                !
 ! R68   R(36,38)                1.4272         estimate D2E/DX2                !
 ! R69   R(37,39)                1.4331         estimate D2E/DX2                !
 ! R70   R(37,77)                1.4183         estimate D2E/DX2                !
 ! R71   R(38,42)                1.401          estimate D2E/DX2                !
 ! R72   R(38,78)                1.5214         estimate D2E/DX2                !
 ! R73   R(39,43)                1.4004         estimate D2E/DX2                !
 ! R74   R(39,79)                1.4119         estimate D2E/DX2                !
 ! R75   R(40,41)                1.3979         estimate D2E/DX2                !
 ! R76   R(40,44)                1.3885         estimate D2E/DX2                !
 ! R77   R(40,79)                1.4468         estimate D2E/DX2                !
 ! R78   R(41,45)                1.3792         estimate D2E/DX2                !
 ! R79   R(41,80)                1.5139         estimate D2E/DX2                !
 ! R80   R(42,46)                1.3924         estimate D2E/DX2                !
 ! R81   R(42,80)                1.5077         estimate D2E/DX2                !
 ! R82   R(44,47)                1.4008         estimate D2E/DX2                !
 ! R83   R(45,48)                1.4085         estimate D2E/DX2                !
 ! R84   R(47,48)                1.4069         estimate D2E/DX2                !
 ! R85   R(47,49)                1.5218         estimate D2E/DX2                !
 ! R86   R(48,50)                1.5191         estimate D2E/DX2                !
 ! R87   R(49,51)                1.5049         estimate D2E/DX2                !
 ! R88   R(49,88)                1.8028         estimate D2E/DX2                !
 ! R89   R(50,52)                1.5002         estimate D2E/DX2                !
 ! R90   R(50,87)                1.802          estimate D2E/DX2                !
 ! R91   R(51,52)                1.3546         estimate D2E/DX2                !
 ! R92   R(51,55)                1.4238         estimate D2E/DX2                !
 ! R93   R(52,56)                1.4182         estimate D2E/DX2                !
 ! R94   R(53,55)                1.424          estimate D2E/DX2                !
 ! R95   R(54,56)                1.4276         estimate D2E/DX2                !
 ! R96   R(55,83)                1.4115         estimate D2E/DX2                !
 ! R97   R(56,84)                1.413          estimate D2E/DX2                !
 ! R98   R(57,59)                1.4514         estimate D2E/DX2                !
 ! R99   R(57,83)                1.4498         estimate D2E/DX2                !
 ! R100  R(58,60)                1.4319         estimate D2E/DX2                !
 ! R101  R(58,84)                1.4103         estimate D2E/DX2                !
 ! R102  R(59,60)                1.4017         estimate D2E/DX2                !
 ! R103  R(59,61)                1.4147         estimate D2E/DX2                !
 ! R104  R(60,62)                1.4296         estimate D2E/DX2                !
 ! R105  R(61,63)                1.4248         estimate D2E/DX2                !
 ! R106  R(62,64)                1.4128         estimate D2E/DX2                !
 ! R107  R(63,64)                1.403          estimate D2E/DX2                !
 ! R108  R(63,65)                1.4352         estimate D2E/DX2                !
 ! R109  R(64,66)                1.4547         estimate D2E/DX2                !
 ! R110  R(65,67)                1.4063         estimate D2E/DX2                !
 ! R111  R(66,68)                1.4575         estimate D2E/DX2                !
 ! R112  R(67,68)                1.4505         estimate D2E/DX2                !
 ! R113  R(67,69)                1.4119         estimate D2E/DX2                !
 ! R114  R(68,70)                1.4043         estimate D2E/DX2                !
 ! R115  R(69,71)                1.4304         estimate D2E/DX2                !
 ! R116  R(70,72)                1.4401         estimate D2E/DX2                !
 ! R117  R(71,72)                1.3768         estimate D2E/DX2                !
 ! R118  R(71,73)                1.4348         estimate D2E/DX2                !
 ! R119  R(72,74)                1.4419         estimate D2E/DX2                !
 ! R120  R(73,75)                1.3908         estimate D2E/DX2                !
 ! R121  R(74,76)                1.3801         estimate D2E/DX2                !
 ! R122  R(75,76)                1.411          estimate D2E/DX2                !
 ! R123  R(75,77)                1.4328         estimate D2E/DX2                !
 ! R124  R(76,78)                1.5037         estimate D2E/DX2                !
 ! R125  R(77,81)                1.4107         estimate D2E/DX2                !
 ! R126  R(78,81)                1.5083         estimate D2E/DX2                !
 ! R127  R(78,90)                1.8135         estimate D2E/DX2                !
 ! R128  R(79,82)                1.3992         estimate D2E/DX2                !
 ! R129  R(80,82)                1.501          estimate D2E/DX2                !
 ! R130  R(80,86)                1.8026         estimate D2E/DX2                !
 ! R131  R(81,82)                1.3683         estimate D2E/DX2                !
 ! R132  R(83,84)                1.4367         estimate D2E/DX2                !
 ! A1    A(5,1,17)             122.1956         estimate D2E/DX2                !
 ! A2    A(5,1,23)             121.4609         estimate D2E/DX2                !
 ! A3    A(17,1,23)            106.1397         estimate D2E/DX2                !
 ! A4    A(6,2,43)             101.8445         estimate D2E/DX2                !
 ! A5    A(6,2,44)             110.6107         estimate D2E/DX2                !
 ! A6    A(6,2,89)             113.0243         estimate D2E/DX2                !
 ! A7    A(43,2,44)            110.1013         estimate D2E/DX2                !
 ! A8    A(43,2,89)            111.8702         estimate D2E/DX2                !
 ! A9    A(44,2,89)            109.2205         estimate D2E/DX2                !
 ! A10   A(7,3,18)             122.0565         estimate D2E/DX2                !
 ! A11   A(7,3,26)             107.4295         estimate D2E/DX2                !
 ! A12   A(18,3,26)            120.8299         estimate D2E/DX2                !
 ! A13   A(8,4,45)             110.5855         estimate D2E/DX2                !
 ! A14   A(8,4,46)             101.3973         estimate D2E/DX2                !
 ! A15   A(8,4,85)             113.0588         estimate D2E/DX2                !
 ! A16   A(45,4,46)            109.6731         estimate D2E/DX2                !
 ! A17   A(45,4,85)            110.2043         estimate D2E/DX2                !
 ! A18   A(46,4,85)            111.615          estimate D2E/DX2                !
 ! A19   A(1,5,9)              118.6662         estimate D2E/DX2                !
 ! A20   A(1,5,29)             116.8204         estimate D2E/DX2                !
 ! A21   A(9,5,29)             119.0462         estimate D2E/DX2                !
 ! A22   A(2,6,10)             122.3525         estimate D2E/DX2                !
 ! A23   A(2,6,15)             109.126          estimate D2E/DX2                !
 ! A24   A(10,6,15)            119.8141         estimate D2E/DX2                !
 ! A25   A(3,7,12)             121.9491         estimate D2E/DX2                !
 ! A26   A(3,7,30)             107.5974         estimate D2E/DX2                !
 ! A27   A(12,7,30)            119.6079         estimate D2E/DX2                !
 ! A28   A(4,8,11)             122.1441         estimate D2E/DX2                !
 ! A29   A(4,8,16)             110.4334         estimate D2E/DX2                !
 ! A30   A(11,8,16)            119.821          estimate D2E/DX2                !
 ! A31   A(5,9,13)             117.7758         estimate D2E/DX2                !
 ! A32   A(5,9,35)             121.188          estimate D2E/DX2                !
 ! A33   A(13,9,35)            116.7508         estimate D2E/DX2                !
 ! A34   A(6,10,49)            123.4608         estimate D2E/DX2                !
 ! A35   A(6,10,53)            119.0369         estimate D2E/DX2                !
 ! A36   A(49,10,53)           109.6435         estimate D2E/DX2                !
 ! A37   A(8,11,50)            122.6808         estimate D2E/DX2                !
 ! A38   A(8,11,54)            119.3998         estimate D2E/DX2                !
 ! A39   A(50,11,54)           110.8883         estimate D2E/DX2                !
 ! A40   A(7,12,14)            115.2351         estimate D2E/DX2                !
 ! A41   A(7,12,36)            121.1256         estimate D2E/DX2                !
 ! A42   A(14,12,36)           118.4901         estimate D2E/DX2                !
 ! A43   A(9,13,15)            122.5174         estimate D2E/DX2                !
 ! A44   A(9,13,43)            122.6357         estimate D2E/DX2                !
 ! A45   A(15,13,43)           108.0277         estimate D2E/DX2                !
 ! A46   A(12,14,16)           122.6622         estimate D2E/DX2                !
 ! A47   A(12,14,46)           121.3294         estimate D2E/DX2                !
 ! A48   A(16,14,46)           109.4746         estimate D2E/DX2                !
 ! A49   A(6,15,13)            109.1986         estimate D2E/DX2                !
 ! A50   A(6,15,17)            121.4487         estimate D2E/DX2                !
 ! A51   A(13,15,17)           118.9568         estimate D2E/DX2                !
 ! A52   A(8,16,14)            107.819          estimate D2E/DX2                !
 ! A53   A(8,16,18)            122.4328         estimate D2E/DX2                !
 ! A54   A(14,16,18)           121.0714         estimate D2E/DX2                !
 ! A55   A(1,17,15)            119.8654         estimate D2E/DX2                !
 ! A56   A(1,17,19)            108.8438         estimate D2E/DX2                !
 ! A57   A(15,17,19)           118.9081         estimate D2E/DX2                !
 ! A58   A(3,18,16)            115.7219         estimate D2E/DX2                !
 ! A59   A(3,18,20)            119.3414         estimate D2E/DX2                !
 ! A60   A(16,18,20)           117.8095         estimate D2E/DX2                !
 ! A61   A(17,19,21)           108.4744         estimate D2E/DX2                !
 ! A62   A(17,19,53)           119.0356         estimate D2E/DX2                !
 ! A63   A(21,19,53)           120.075          estimate D2E/DX2                !
 ! A64   A(18,20,22)           118.7966         estimate D2E/DX2                !
 ! A65   A(18,20,54)           118.2303         estimate D2E/DX2                !
 ! A66   A(22,20,54)           115.7536         estimate D2E/DX2                !
 ! A67   A(19,21,23)           106.292          estimate D2E/DX2                !
 ! A68   A(19,21,57)           121.974          estimate D2E/DX2                !
 ! A69   A(23,21,57)           121.2753         estimate D2E/DX2                !
 ! A70   A(20,22,24)           120.7392         estimate D2E/DX2                !
 ! A71   A(20,22,58)           121.9429         estimate D2E/DX2                !
 ! A72   A(24,22,58)           106.9175         estimate D2E/DX2                !
 ! A73   A(1,23,21)            109.3516         estimate D2E/DX2                !
 ! A74   A(1,23,25)            120.1005         estimate D2E/DX2                !
 ! A75   A(21,23,25)           119.9954         estimate D2E/DX2                !
 ! A76   A(22,24,26)           120.5295         estimate D2E/DX2                !
 ! A77   A(22,24,62)           109.4052         estimate D2E/DX2                !
 ! A78   A(26,24,62)           119.3419         estimate D2E/DX2                !
 ! A79   A(23,25,27)           119.764          estimate D2E/DX2                !
 ! A80   A(23,25,61)           120.1134         estimate D2E/DX2                !
 ! A81   A(27,25,61)           109.5254         estimate D2E/DX2                !
 ! A82   A(3,26,24)            119.7145         estimate D2E/DX2                !
 ! A83   A(3,26,28)            109.2245         estimate D2E/DX2                !
 ! A84   A(24,26,28)           120.0372         estimate D2E/DX2                !
 ! A85   A(25,27,29)           120.3329         estimate D2E/DX2                !
 ! A86   A(25,27,65)           106.9641         estimate D2E/DX2                !
 ! A87   A(29,27,65)           121.5876         estimate D2E/DX2                !
 ! A88   A(26,28,30)           105.6365         estimate D2E/DX2                !
 ! A89   A(26,28,66)           122.315          estimate D2E/DX2                !
 ! A90   A(30,28,66)           121.3437         estimate D2E/DX2                !
 ! A91   A(5,29,27)            120.3287         estimate D2E/DX2                !
 ! A92   A(5,29,31)            118.7851         estimate D2E/DX2                !
 ! A93   A(27,29,31)           115.2407         estimate D2E/DX2                !
 ! A94   A(7,30,28)            109.3826         estimate D2E/DX2                !
 ! A95   A(7,30,32)            119.6861         estimate D2E/DX2                !
 ! A96   A(28,30,32)           120.2263         estimate D2E/DX2                !
 ! A97   A(29,31,33)           121.369          estimate D2E/DX2                !
 ! A98   A(29,31,69)           122.0675         estimate D2E/DX2                !
 ! A99   A(33,31,69)           108.7179         estimate D2E/DX2                !
 ! A100  A(30,32,34)           121.1098         estimate D2E/DX2                !
 ! A101  A(30,32,70)           119.1957         estimate D2E/DX2                !
 ! A102  A(34,32,70)           109.8125         estimate D2E/DX2                !
 ! A103  A(31,33,35)           120.755          estimate D2E/DX2                !
 ! A104  A(31,33,73)           107.5623         estimate D2E/DX2                !
 ! A105  A(35,33,73)           122.5732         estimate D2E/DX2                !
 ! A106  A(32,34,36)           119.8752         estimate D2E/DX2                !
 ! A107  A(32,34,74)           106.8455         estimate D2E/DX2                !
 ! A108  A(36,34,74)           121.3297         estimate D2E/DX2                !
 ! A109  A(9,35,33)            117.5197         estimate D2E/DX2                !
 ! A110  A(9,35,37)            120.4806         estimate D2E/DX2                !
 ! A111  A(33,35,37)           117.6404         estimate D2E/DX2                !
 ! A112  A(12,36,34)           117.0957         estimate D2E/DX2                !
 ! A113  A(12,36,38)           119.0009         estimate D2E/DX2                !
 ! A114  A(34,36,38)           119.5928         estimate D2E/DX2                !
 ! A115  A(35,37,39)           119.5472         estimate D2E/DX2                !
 ! A116  A(35,37,77)           119.1631         estimate D2E/DX2                !
 ! A117  A(39,37,77)           115.9796         estimate D2E/DX2                !
 ! A118  A(36,38,42)           120.4243         estimate D2E/DX2                !
 ! A119  A(36,38,78)           119.5032         estimate D2E/DX2                !
 ! A120  A(42,38,78)           119.0184         estimate D2E/DX2                !
 ! A121  A(37,39,43)           119.038          estimate D2E/DX2                !
 ! A122  A(37,39,79)           119.1958         estimate D2E/DX2                !
 ! A123  A(43,39,79)           116.4915         estimate D2E/DX2                !
 ! A124  A(41,40,44)           121.7316         estimate D2E/DX2                !
 ! A125  A(41,40,79)           108.6634         estimate D2E/DX2                !
 ! A126  A(44,40,79)           123.8643         estimate D2E/DX2                !
 ! A127  A(40,41,45)           119.9874         estimate D2E/DX2                !
 ! A128  A(40,41,80)           110.2754         estimate D2E/DX2                !
 ! A129  A(45,41,80)           126.1799         estimate D2E/DX2                !
 ! A130  A(38,42,46)           120.165          estimate D2E/DX2                !
 ! A131  A(38,42,80)           123.0756         estimate D2E/DX2                !
 ! A132  A(46,42,80)           115.1944         estimate D2E/DX2                !
 ! A133  A(2,43,13)            110.9485         estimate D2E/DX2                !
 ! A134  A(2,43,39)            123.6476         estimate D2E/DX2                !
 ! A135  A(13,43,39)           120.5404         estimate D2E/DX2                !
 ! A136  A(2,44,40)            115.4016         estimate D2E/DX2                !
 ! A137  A(2,44,47)            124.592          estimate D2E/DX2                !
 ! A138  A(40,44,47)           118.6626         estimate D2E/DX2                !
 ! A139  A(4,45,41)            115.615          estimate D2E/DX2                !
 ! A140  A(4,45,48)            123.7868         estimate D2E/DX2                !
 ! A141  A(41,45,48)           119.174          estimate D2E/DX2                !
 ! A142  A(4,46,14)            109.6369         estimate D2E/DX2                !
 ! A143  A(4,46,42)            125.8689         estimate D2E/DX2                !
 ! A144  A(14,46,42)           120.4319         estimate D2E/DX2                !
 ! A145  A(44,47,48)           119.7738         estimate D2E/DX2                !
 ! A146  A(44,47,49)           118.7804         estimate D2E/DX2                !
 ! A147  A(48,47,49)           120.7314         estimate D2E/DX2                !
 ! A148  A(45,48,47)           120.5426         estimate D2E/DX2                !
 ! A149  A(45,48,50)           118.5283         estimate D2E/DX2                !
 ! A150  A(47,48,50)           120.236          estimate D2E/DX2                !
 ! A151  A(10,49,47)           110.7741         estimate D2E/DX2                !
 ! A152  A(10,49,51)           101.3085         estimate D2E/DX2                !
 ! A153  A(10,49,88)           113.1085         estimate D2E/DX2                !
 ! A154  A(47,49,51)           109.2445         estimate D2E/DX2                !
 ! A155  A(47,49,88)           108.6018         estimate D2E/DX2                !
 ! A156  A(51,49,88)           113.6366         estimate D2E/DX2                !
 ! A157  A(11,50,48)           110.6509         estimate D2E/DX2                !
 ! A158  A(11,50,52)           100.9544         estimate D2E/DX2                !
 ! A159  A(11,50,87)           112.8112         estimate D2E/DX2                !
 ! A160  A(48,50,52)           109.5215         estimate D2E/DX2                !
 ! A161  A(48,50,87)           108.9816         estimate D2E/DX2                !
 ! A162  A(52,50,87)           113.7143         estimate D2E/DX2                !
 ! A163  A(49,51,52)           121.4808         estimate D2E/DX2                !
 ! A164  A(49,51,55)           111.6562         estimate D2E/DX2                !
 ! A165  A(52,51,55)           120.0163         estimate D2E/DX2                !
 ! A166  A(50,52,51)           122.6436         estimate D2E/DX2                !
 ! A167  A(50,52,56)           111.3681         estimate D2E/DX2                !
 ! A168  A(51,52,56)           119.3053         estimate D2E/DX2                !
 ! A169  A(10,53,19)           121.4691         estimate D2E/DX2                !
 ! A170  A(10,53,55)           109.5558         estimate D2E/DX2                !
 ! A171  A(19,53,55)           118.9661         estimate D2E/DX2                !
 ! A172  A(11,54,20)           122.1494         estimate D2E/DX2                !
 ! A173  A(11,54,56)           108.3753         estimate D2E/DX2                !
 ! A174  A(20,54,56)           121.5578         estimate D2E/DX2                !
 ! A175  A(51,55,53)           107.1654         estimate D2E/DX2                !
 ! A176  A(51,55,83)           122.802          estimate D2E/DX2                !
 ! A177  A(53,55,83)           122.0683         estimate D2E/DX2                !
 ! A178  A(52,56,54)           108.1463         estimate D2E/DX2                !
 ! A179  A(52,56,84)           121.694          estimate D2E/DX2                !
 ! A180  A(54,56,84)           122.0767         estimate D2E/DX2                !
 ! A181  A(21,57,59)           117.3545         estimate D2E/DX2                !
 ! A182  A(21,57,83)           117.9939         estimate D2E/DX2                !
 ! A183  A(59,57,83)           119.3801         estimate D2E/DX2                !
 ! A184  A(22,58,60)           108.5244         estimate D2E/DX2                !
 ! A185  A(22,58,84)           122.1325         estimate D2E/DX2                !
 ! A186  A(60,58,84)           120.8772         estimate D2E/DX2                !
 ! A187  A(57,59,60)           119.3815         estimate D2E/DX2                !
 ! A188  A(57,59,61)           120.1201         estimate D2E/DX2                !
 ! A189  A(60,59,61)           114.7832         estimate D2E/DX2                !
 ! A190  A(58,60,59)           120.9501         estimate D2E/DX2                !
 ! A191  A(58,60,62)           108.4262         estimate D2E/DX2                !
 ! A192  A(59,60,62)           122.261          estimate D2E/DX2                !
 ! A193  A(25,61,59)           120.3083         estimate D2E/DX2                !
 ! A194  A(25,61,63)           106.6867         estimate D2E/DX2                !
 ! A195  A(59,61,63)           122.2015         estimate D2E/DX2                !
 ! A196  A(24,62,60)           106.6292         estimate D2E/DX2                !
 ! A197  A(24,62,64)           120.9136         estimate D2E/DX2                !
 ! A198  A(60,62,64)           121.9394         estimate D2E/DX2                !
 ! A199  A(61,63,64)           122.1433         estimate D2E/DX2                !
 ! A200  A(61,63,65)           108.476          estimate D2E/DX2                !
 ! A201  A(64,63,65)           120.885          estimate D2E/DX2                !
 ! A202  A(62,64,63)           114.9889         estimate D2E/DX2                !
 ! A203  A(62,64,66)           120.3048         estimate D2E/DX2                !
 ! A204  A(63,64,66)           118.8837         estimate D2E/DX2                !
 ! A205  A(27,65,63)           108.1376         estimate D2E/DX2                !
 ! A206  A(27,65,67)           122.0311         estimate D2E/DX2                !
 ! A207  A(63,65,67)           121.836          estimate D2E/DX2                !
 ! A208  A(28,66,64)           116.6561         estimate D2E/DX2                !
 ! A209  A(28,66,68)           118.1589         estimate D2E/DX2                !
 ! A210  A(64,66,68)           120.1532         estimate D2E/DX2                !
 ! A211  A(65,67,68)           118.899          estimate D2E/DX2                !
 ! A212  A(65,67,69)           115.1206         estimate D2E/DX2                !
 ! A213  A(68,67,69)           120.0484         estimate D2E/DX2                !
 ! A214  A(66,68,67)           119.2627         estimate D2E/DX2                !
 ! A215  A(66,68,70)           118.6807         estimate D2E/DX2                !
 ! A216  A(67,68,70)           116.8432         estimate D2E/DX2                !
 ! A217  A(31,69,67)           121.2684         estimate D2E/DX2                !
 ! A218  A(31,69,71)           106.8939         estimate D2E/DX2                !
 ! A219  A(67,69,71)           121.1667         estimate D2E/DX2                !
 ! A220  A(32,70,68)           121.3125         estimate D2E/DX2                !
 ! A221  A(32,70,72)           105.8387         estimate D2E/DX2                !
 ! A222  A(68,70,72)           122.576          estimate D2E/DX2                !
 ! A223  A(69,71,72)           119.4452         estimate D2E/DX2                !
 ! A224  A(69,71,73)           108.3484         estimate D2E/DX2                !
 ! A225  A(72,71,73)           119.6979         estimate D2E/DX2                !
 ! A226  A(70,72,71)           119.7208         estimate D2E/DX2                !
 ! A227  A(70,72,74)           108.7251         estimate D2E/DX2                !
 ! A228  A(71,72,74)           119.9781         estimate D2E/DX2                !
 ! A229  A(33,73,71)           108.1324         estimate D2E/DX2                !
 ! A230  A(33,73,75)           119.922          estimate D2E/DX2                !
 ! A231  A(71,73,75)           119.192          estimate D2E/DX2                !
 ! A232  A(34,74,72)           107.9444         estimate D2E/DX2                !
 ! A233  A(34,74,76)           120.3118         estimate D2E/DX2                !
 ! A234  A(72,74,76)           120.4932         estimate D2E/DX2                !
 ! A235  A(73,75,76)           121.5833         estimate D2E/DX2                !
 ! A236  A(73,75,77)           118.8777         estimate D2E/DX2                !
 ! A237  A(76,75,77)           109.4027         estimate D2E/DX2                !
 ! A238  A(74,76,75)           118.9092         estimate D2E/DX2                !
 ! A239  A(74,76,78)           121.474          estimate D2E/DX2                !
 ! A240  A(75,76,78)           110.1248         estimate D2E/DX2                !
 ! A241  A(37,77,75)           121.759          estimate D2E/DX2                !
 ! A242  A(37,77,81)           122.803          estimate D2E/DX2                !
 ! A243  A(75,77,81)           107.5032         estimate D2E/DX2                !
 ! A244  A(38,78,76)           112.8974         estimate D2E/DX2                !
 ! A245  A(38,78,81)           110.9608         estimate D2E/DX2                !
 ! A246  A(38,78,90)           107.5775         estimate D2E/DX2                !
 ! A247  A(76,78,81)           101.3313         estimate D2E/DX2                !
 ! A248  A(76,78,90)           112.2908         estimate D2E/DX2                !
 ! A249  A(81,78,90)           111.7985         estimate D2E/DX2                !
 ! A250  A(39,79,40)           118.5897         estimate D2E/DX2                !
 ! A251  A(39,79,82)           122.4678         estimate D2E/DX2                !
 ! A252  A(40,79,82)           107.6683         estimate D2E/DX2                !
 ! A253  A(41,80,42)           109.6966         estimate D2E/DX2                !
 ! A254  A(41,80,82)           100.5925         estimate D2E/DX2                !
 ! A255  A(41,80,86)           111.8493         estimate D2E/DX2                !
 ! A256  A(42,80,82)           111.0992         estimate D2E/DX2                !
 ! A257  A(42,80,86)           110.1223         estimate D2E/DX2                !
 ! A258  A(82,80,86)           113.141          estimate D2E/DX2                !
 ! A259  A(77,81,78)           111.2674         estimate D2E/DX2                !
 ! A260  A(77,81,82)           119.9371         estimate D2E/DX2                !
 ! A261  A(78,81,82)           121.7601         estimate D2E/DX2                !
 ! A262  A(79,82,80)           111.4154         estimate D2E/DX2                !
 ! A263  A(79,82,81)           118.9388         estimate D2E/DX2                !
 ! A264  A(80,82,81)           122.3547         estimate D2E/DX2                !
 ! A265  A(55,83,57)           118.7754         estimate D2E/DX2                !
 ! A266  A(55,83,84)           116.261          estimate D2E/DX2                !
 ! A267  A(57,83,84)           119.8361         estimate D2E/DX2                !
 ! A268  A(56,84,58)           115.4734         estimate D2E/DX2                !
 ! A269  A(56,84,83)           119.5805         estimate D2E/DX2                !
 ! A270  A(58,84,83)           119.3947         estimate D2E/DX2                !
 ! D1    D(17,1,5,9)             0.3208         estimate D2E/DX2                !
 ! D2    D(17,1,5,29)         -153.3744         estimate D2E/DX2                !
 ! D3    D(23,1,5,9)           140.7059         estimate D2E/DX2                !
 ! D4    D(23,1,5,29)          -12.9894         estimate D2E/DX2                !
 ! D5    D(5,1,17,15)           -1.3362         estimate D2E/DX2                !
 ! D6    D(5,1,17,19)          140.3821         estimate D2E/DX2                !
 ! D7    D(23,1,17,15)        -146.85           estimate D2E/DX2                !
 ! D8    D(23,1,17,19)          -5.1316         estimate D2E/DX2                !
 ! D9    D(5,1,23,21)         -136.7036         estimate D2E/DX2                !
 ! D10   D(5,1,23,25)            7.9878         estimate D2E/DX2                !
 ! D11   D(17,1,23,21)           9.1217         estimate D2E/DX2                !
 ! D12   D(17,1,23,25)         153.813          estimate D2E/DX2                !
 ! D13   D(43,2,6,10)         -138.3254         estimate D2E/DX2                !
 ! D14   D(43,2,6,15)            9.0912         estimate D2E/DX2                !
 ! D15   D(44,2,6,10)          -21.3219         estimate D2E/DX2                !
 ! D16   D(44,2,6,15)          126.0947         estimate D2E/DX2                !
 ! D17   D(89,2,6,10)          101.4971         estimate D2E/DX2                !
 ! D18   D(89,2,6,15)         -111.0863         estimate D2E/DX2                !
 ! D19   D(6,2,43,13)           -6.3668         estimate D2E/DX2                !
 ! D20   D(6,2,43,39)          148.9222         estimate D2E/DX2                !
 ! D21   D(44,2,43,13)        -123.7382         estimate D2E/DX2                !
 ! D22   D(44,2,43,39)          31.5508         estimate D2E/DX2                !
 ! D23   D(89,2,43,13)         114.6175         estimate D2E/DX2                !
 ! D24   D(89,2,43,39)         -90.0935         estimate D2E/DX2                !
 ! D25   D(6,2,44,40)         -147.8401         estimate D2E/DX2                !
 ! D26   D(6,2,44,47)           18.6928         estimate D2E/DX2                !
 ! D27   D(43,2,44,40)         -36.0531         estimate D2E/DX2                !
 ! D28   D(43,2,44,47)         130.4797         estimate D2E/DX2                !
 ! D29   D(89,2,44,40)          87.1546         estimate D2E/DX2                !
 ! D30   D(89,2,44,47)        -106.3125         estimate D2E/DX2                !
 ! D31   D(18,3,7,12)            4.7426         estimate D2E/DX2                !
 ! D32   D(18,3,7,30)          148.7064         estimate D2E/DX2                !
 ! D33   D(26,3,7,12)         -141.397          estimate D2E/DX2                !
 ! D34   D(26,3,7,30)            2.5668         estimate D2E/DX2                !
 ! D35   D(7,3,18,16)            6.0025         estimate D2E/DX2                !
 ! D36   D(7,3,18,20)         -143.8631         estimate D2E/DX2                !
 ! D37   D(26,3,18,16)         147.7544         estimate D2E/DX2                !
 ! D38   D(26,3,18,20)          -2.1113         estimate D2E/DX2                !
 ! D39   D(7,3,26,24)          146.9678         estimate D2E/DX2                !
 ! D40   D(7,3,26,28)            2.9297         estimate D2E/DX2                !
 ! D41   D(18,3,26,24)           0.3297         estimate D2E/DX2                !
 ! D42   D(18,3,26,28)        -143.7084         estimate D2E/DX2                !
 ! D43   D(45,4,8,11)           23.3011         estimate D2E/DX2                !
 ! D44   D(45,4,8,16)         -126.1126         estimate D2E/DX2                !
 ! D45   D(46,4,8,11)          139.5686         estimate D2E/DX2                !
 ! D46   D(46,4,8,16)           -9.8451         estimate D2E/DX2                !
 ! D47   D(85,4,8,11)         -100.813          estimate D2E/DX2                !
 ! D48   D(85,4,8,16)          109.7733         estimate D2E/DX2                !
 ! D49   D(8,4,45,41)          145.1071         estimate D2E/DX2                !
 ! D50   D(8,4,45,48)          -21.1189         estimate D2E/DX2                !
 ! D51   D(46,4,45,41)          34.1017         estimate D2E/DX2                !
 ! D52   D(46,4,45,48)        -132.1243         estimate D2E/DX2                !
 ! D53   D(85,4,45,41)         -89.1575         estimate D2E/DX2                !
 ! D54   D(85,4,45,48)         104.6166         estimate D2E/DX2                !
 ! D55   D(8,4,46,14)           11.0854         estimate D2E/DX2                !
 ! D56   D(8,4,46,42)         -146.081          estimate D2E/DX2                !
 ! D57   D(45,4,46,14)         128.0207         estimate D2E/DX2                !
 ! D58   D(45,4,46,42)         -29.1457         estimate D2E/DX2                !
 ! D59   D(85,4,46,14)        -109.5551         estimate D2E/DX2                !
 ! D60   D(85,4,46,42)          93.2785         estimate D2E/DX2                !
 ! D61   D(1,5,9,13)             0.1104         estimate D2E/DX2                !
 ! D62   D(1,5,9,35)          -155.8837         estimate D2E/DX2                !
 ! D63   D(29,5,9,13)          153.2146         estimate D2E/DX2                !
 ! D64   D(29,5,9,35)           -2.7796         estimate D2E/DX2                !
 ! D65   D(1,5,29,27)            9.1684         estimate D2E/DX2                !
 ! D66   D(1,5,29,31)          161.4334         estimate D2E/DX2                !
 ! D67   D(9,5,29,27)         -144.4231         estimate D2E/DX2                !
 ! D68   D(9,5,29,31)            7.8419         estimate D2E/DX2                !
 ! D69   D(2,6,10,49)           -1.1192         estimate D2E/DX2                !
 ! D70   D(2,6,10,53)          144.7521         estimate D2E/DX2                !
 ! D71   D(15,6,10,49)        -145.2161         estimate D2E/DX2                !
 ! D72   D(15,6,10,53)           0.6552         estimate D2E/DX2                !
 ! D73   D(2,6,15,13)           -8.9538         estimate D2E/DX2                !
 ! D74   D(2,6,15,17)         -153.4314         estimate D2E/DX2                !
 ! D75   D(10,6,15,13)         139.4231         estimate D2E/DX2                !
 ! D76   D(10,6,15,17)          -5.0546         estimate D2E/DX2                !
 ! D77   D(3,7,12,14)          -10.0664         estimate D2E/DX2                !
 ! D78   D(3,7,12,36)          144.1727         estimate D2E/DX2                !
 ! D79   D(30,7,12,14)        -149.9021         estimate D2E/DX2                !
 ! D80   D(30,7,12,36)           4.3371         estimate D2E/DX2                !
 ! D81   D(3,7,30,28)           -7.1899         estimate D2E/DX2                !
 ! D82   D(3,7,30,32)         -151.762          estimate D2E/DX2                !
 ! D83   D(12,7,30,28)         137.7701         estimate D2E/DX2                !
 ! D84   D(12,7,30,32)          -6.8019         estimate D2E/DX2                !
 ! D85   D(4,8,11,50)            2.0399         estimate D2E/DX2                !
 ! D86   D(4,8,11,54)         -145.9222         estimate D2E/DX2                !
 ! D87   D(16,8,11,50)         148.7008         estimate D2E/DX2                !
 ! D88   D(16,8,11,54)           0.7386         estimate D2E/DX2                !
 ! D89   D(4,8,16,14)            5.3434         estimate D2E/DX2                !
 ! D90   D(4,8,16,18)          153.1809         estimate D2E/DX2                !
 ! D91   D(11,8,16,14)        -144.8817         estimate D2E/DX2                !
 ! D92   D(11,8,16,18)           2.9558         estimate D2E/DX2                !
 ! D93   D(5,9,13,15)            0.4451         estimate D2E/DX2                !
 ! D94   D(5,9,13,43)         -147.1283         estimate D2E/DX2                !
 ! D95   D(35,9,13,15)         157.5065         estimate D2E/DX2                !
 ! D96   D(35,9,13,43)           9.9331         estimate D2E/DX2                !
 ! D97   D(5,9,35,33)           -7.4669         estimate D2E/DX2                !
 ! D98   D(5,9,35,37)          148.5482         estimate D2E/DX2                !
 ! D99   D(13,9,35,33)        -163.6951         estimate D2E/DX2                !
 ! D100  D(13,9,35,37)          -7.6799         estimate D2E/DX2                !
 ! D101  D(6,10,49,47)          26.1136         estimate D2E/DX2                !
 ! D102  D(6,10,49,51)         141.9217         estimate D2E/DX2                !
 ! D103  D(6,10,49,88)         -96.0815         estimate D2E/DX2                !
 ! D104  D(53,10,49,47)       -122.4974         estimate D2E/DX2                !
 ! D105  D(53,10,49,51)         -6.6894         estimate D2E/DX2                !
 ! D106  D(53,10,49,88)        115.3074         estimate D2E/DX2                !
 ! D107  D(6,10,53,19)           3.6398         estimate D2E/DX2                !
 ! D108  D(6,10,53,55)        -141.4423         estimate D2E/DX2                !
 ! D109  D(49,10,53,19)        153.8387         estimate D2E/DX2                !
 ! D110  D(49,10,53,55)          8.7566         estimate D2E/DX2                !
 ! D111  D(8,11,50,48)         -29.3701         estimate D2E/DX2                !
 ! D112  D(8,11,50,52)        -145.2625         estimate D2E/DX2                !
 ! D113  D(8,11,50,87)          93.015          estimate D2E/DX2                !
 ! D114  D(54,11,50,48)        120.9817         estimate D2E/DX2                !
 ! D115  D(54,11,50,52)          5.0893         estimate D2E/DX2                !
 ! D116  D(54,11,50,87)       -116.6332         estimate D2E/DX2                !
 ! D117  D(8,11,54,20)          -3.0154         estimate D2E/DX2                !
 ! D118  D(8,11,54,56)         146.3155         estimate D2E/DX2                !
 ! D119  D(50,11,54,20)       -154.4664         estimate D2E/DX2                !
 ! D120  D(50,11,54,56)         -5.1356         estimate D2E/DX2                !
 ! D121  D(7,12,14,16)           5.0837         estimate D2E/DX2                !
 ! D122  D(7,12,14,46)         153.7142         estimate D2E/DX2                !
 ! D123  D(36,12,14,16)       -149.8725         estimate D2E/DX2                !
 ! D124  D(36,12,14,46)         -1.242          estimate D2E/DX2                !
 ! D125  D(7,12,36,34)           5.7892         estimate D2E/DX2                !
 ! D126  D(7,12,36,38)        -150.8249         estimate D2E/DX2                !
 ! D127  D(14,12,36,34)        159.2181         estimate D2E/DX2                !
 ! D128  D(14,12,36,38)          2.604          estimate D2E/DX2                !
 ! D129  D(9,13,15,6)         -146.9397         estimate D2E/DX2                !
 ! D130  D(9,13,15,17)          -1.4458         estimate D2E/DX2                !
 ! D131  D(43,13,15,6)           4.7093         estimate D2E/DX2                !
 ! D132  D(43,13,15,17)        150.2032         estimate D2E/DX2                !
 ! D133  D(9,13,43,2)          152.9417         estimate D2E/DX2                !
 ! D134  D(9,13,43,39)          -3.2262         estimate D2E/DX2                !
 ! D135  D(15,13,43,2)           1.3335         estimate D2E/DX2                !
 ! D136  D(15,13,43,39)       -154.8344         estimate D2E/DX2                !
 ! D137  D(12,14,16,8)         153.9632         estimate D2E/DX2                !
 ! D138  D(12,14,16,18)          5.6012         estimate D2E/DX2                !
 ! D139  D(46,14,16,8)           2.1038         estimate D2E/DX2                !
 ! D140  D(46,14,16,18)       -146.2582         estimate D2E/DX2                !
 ! D141  D(12,14,46,4)        -160.9329         estimate D2E/DX2                !
 ! D142  D(12,14,46,42)         -2.3227         estimate D2E/DX2                !
 ! D143  D(16,14,46,4)          -8.6322         estimate D2E/DX2                !
 ! D144  D(16,14,46,42)        149.978          estimate D2E/DX2                !
 ! D145  D(6,15,17,1)          143.0021         estimate D2E/DX2                !
 ! D146  D(6,15,17,19)           5.0521         estimate D2E/DX2                !
 ! D147  D(13,15,17,1)           1.8389         estimate D2E/DX2                !
 ! D148  D(13,15,17,19)       -136.1111         estimate D2E/DX2                !
 ! D149  D(8,16,18,3)         -154.6173         estimate D2E/DX2                !
 ! D150  D(8,16,18,20)          -4.2719         estimate D2E/DX2                !
 ! D151  D(14,16,18,3)         -10.8933         estimate D2E/DX2                !
 ! D152  D(14,16,18,20)        139.452          estimate D2E/DX2                !
 ! D153  D(1,17,19,21)          -0.7217         estimate D2E/DX2                !
 ! D154  D(1,17,19,53)        -142.8864         estimate D2E/DX2                !
 ! D155  D(15,17,19,21)        141.419          estimate D2E/DX2                !
 ! D156  D(15,17,19,53)         -0.7457         estimate D2E/DX2                !
 ! D157  D(3,18,20,22)           2.1181         estimate D2E/DX2                !
 ! D158  D(3,18,20,54)         151.1956         estimate D2E/DX2                !
 ! D159  D(16,18,20,22)       -147.1286         estimate D2E/DX2                !
 ! D160  D(16,18,20,54)          1.9489         estimate D2E/DX2                !
 ! D161  D(17,19,21,23)          6.2509         estimate D2E/DX2                !
 ! D162  D(17,19,21,57)       -138.8386         estimate D2E/DX2                !
 ! D163  D(53,19,21,23)        147.954          estimate D2E/DX2                !
 ! D164  D(53,19,21,57)          2.8645         estimate D2E/DX2                !
 ! D165  D(17,19,53,10)         -3.5978         estimate D2E/DX2                !
 ! D166  D(17,19,53,55)        138.3409         estimate D2E/DX2                !
 ! D167  D(21,19,53,10)       -141.3535         estimate D2E/DX2                !
 ! D168  D(21,19,53,55)          0.5852         estimate D2E/DX2                !
 ! D169  D(18,20,22,24)         -0.4124         estimate D2E/DX2                !
 ! D170  D(18,20,22,58)        139.9189         estimate D2E/DX2                !
 ! D171  D(54,20,22,24)       -150.2346         estimate D2E/DX2                !
 ! D172  D(54,20,22,58)         -9.9033         estimate D2E/DX2                !
 ! D173  D(18,20,54,11)          1.6064         estimate D2E/DX2                !
 ! D174  D(18,20,54,56)       -143.7769         estimate D2E/DX2                !
 ! D175  D(22,20,54,11)        151.6068         estimate D2E/DX2                !
 ! D176  D(22,20,54,56)          6.2236         estimate D2E/DX2                !
 ! D177  D(19,21,23,1)          -9.5848         estimate D2E/DX2                !
 ! D178  D(19,21,23,25)       -154.3192         estimate D2E/DX2                !
 ! D179  D(57,21,23,1)         135.8033         estimate D2E/DX2                !
 ! D180  D(57,21,23,25)         -8.931          estimate D2E/DX2                !
 ! D181  D(19,21,57,59)        150.7675         estimate D2E/DX2                !
 ! D182  D(19,21,57,83)         -3.4648         estimate D2E/DX2                !
 ! D183  D(23,21,57,59)         10.7618         estimate D2E/DX2                !
 ! D184  D(23,21,57,83)       -143.4705         estimate D2E/DX2                !
 ! D185  D(20,22,24,26)         -1.3861         estimate D2E/DX2                !
 ! D186  D(20,22,24,62)        142.7968         estimate D2E/DX2                !
 ! D187  D(58,22,24,26)       -146.9013         estimate D2E/DX2                !
 ! D188  D(58,22,24,62)         -2.7184         estimate D2E/DX2                !
 ! D189  D(20,22,58,60)       -143.8961         estimate D2E/DX2                !
 ! D190  D(20,22,58,84)          4.2722         estimate D2E/DX2                !
 ! D191  D(24,22,58,60)          1.1108         estimate D2E/DX2                !
 ! D192  D(24,22,58,84)        149.2791         estimate D2E/DX2                !
 ! D193  D(1,23,25,27)           1.3584         estimate D2E/DX2                !
 ! D194  D(1,23,25,61)        -139.6074         estimate D2E/DX2                !
 ! D195  D(21,23,25,27)        142.3334         estimate D2E/DX2                !
 ! D196  D(21,23,25,61)          1.3676         estimate D2E/DX2                !
 ! D197  D(22,24,26,3)           1.423          estimate D2E/DX2                !
 ! D198  D(22,24,26,28)        141.5923         estimate D2E/DX2                !
 ! D199  D(62,24,26,3)        -139.2914         estimate D2E/DX2                !
 ! D200  D(62,24,26,28)          0.8779         estimate D2E/DX2                !
 ! D201  D(22,24,62,60)          3.2426         estimate D2E/DX2                !
 ! D202  D(22,24,62,64)       -142.0808         estimate D2E/DX2                !
 ! D203  D(26,24,62,60)        147.9146         estimate D2E/DX2                !
 ! D204  D(26,24,62,64)          2.5912         estimate D2E/DX2                !
 ! D205  D(23,25,27,29)         -5.0238         estimate D2E/DX2                !
 ! D206  D(23,25,27,65)       -149.4117         estimate D2E/DX2                !
 ! D207  D(61,25,27,29)        139.6644         estimate D2E/DX2                !
 ! D208  D(61,25,27,65)         -4.7235         estimate D2E/DX2                !
 ! D209  D(23,25,61,59)          3.7764         estimate D2E/DX2                !
 ! D210  D(23,25,61,63)        148.8236         estimate D2E/DX2                !
 ! D211  D(27,25,61,59)       -140.769          estimate D2E/DX2                !
 ! D212  D(27,25,61,63)          4.2783         estimate D2E/DX2                !
 ! D213  D(3,26,28,30)          -7.1795         estimate D2E/DX2                !
 ! D214  D(3,26,28,66)         137.5261         estimate D2E/DX2                !
 ! D215  D(24,26,28,30)       -151.0827         estimate D2E/DX2                !
 ! D216  D(24,26,28,66)         -6.3771         estimate D2E/DX2                !
 ! D217  D(25,27,29,5)          -0.3939         estimate D2E/DX2                !
 ! D218  D(25,27,29,31)       -153.5906         estimate D2E/DX2                !
 ! D219  D(65,27,29,5)         138.7751         estimate D2E/DX2                !
 ! D220  D(65,27,29,31)        -14.4215         estimate D2E/DX2                !
 ! D221  D(25,27,65,63)          3.2952         estimate D2E/DX2                !
 ! D222  D(25,27,65,67)        152.5768         estimate D2E/DX2                !
 ! D223  D(29,27,65,63)       -140.548          estimate D2E/DX2                !
 ! D224  D(29,27,65,67)          8.7336         estimate D2E/DX2                !
 ! D225  D(26,28,30,7)           8.8071         estimate D2E/DX2                !
 ! D226  D(26,28,30,32)        153.1568         estimate D2E/DX2                !
 ! D227  D(66,28,30,7)        -136.322          estimate D2E/DX2                !
 ! D228  D(66,28,30,32)          8.0277         estimate D2E/DX2                !
 ! D229  D(26,28,66,64)          7.8501         estimate D2E/DX2                !
 ! D230  D(26,28,66,68)       -147.136          estimate D2E/DX2                !
 ! D231  D(30,28,66,64)        147.1977         estimate D2E/DX2                !
 ! D232  D(30,28,66,68)         -7.7884         estimate D2E/DX2                !
 ! D233  D(5,29,31,33)          -2.6275         estimate D2E/DX2                !
 ! D234  D(5,29,31,69)        -148.2639         estimate D2E/DX2                !
 ! D235  D(27,29,31,33)        151.0073         estimate D2E/DX2                !
 ! D236  D(27,29,31,69)          5.3708         estimate D2E/DX2                !
 ! D237  D(7,30,32,34)          -1.0476         estimate D2E/DX2                !
 ! D238  D(7,30,32,70)         141.2033         estimate D2E/DX2                !
 ! D239  D(28,30,32,34)       -141.7857         estimate D2E/DX2                !
 ! D240  D(28,30,32,70)          0.4652         estimate D2E/DX2                !
 ! D241  D(29,31,33,35)         -8.0256         estimate D2E/DX2                !
 ! D242  D(29,31,33,73)       -155.745          estimate D2E/DX2                !
 ! D243  D(69,31,33,35)        141.6409         estimate D2E/DX2                !
 ! D244  D(69,31,33,73)         -6.0786         estimate D2E/DX2                !
 ! D245  D(29,31,69,67)          9.9567         estimate D2E/DX2                !
 ! D246  D(29,31,69,71)        154.7636         estimate D2E/DX2                !
 ! D247  D(33,31,69,67)       -139.4559         estimate D2E/DX2                !
 ! D248  D(33,31,69,71)          5.351          estimate D2E/DX2                !
 ! D249  D(30,32,34,36)         11.5208         estimate D2E/DX2                !
 ! D250  D(30,32,34,74)        154.6956         estimate D2E/DX2                !
 ! D251  D(70,32,34,36)       -133.8645         estimate D2E/DX2                !
 ! D252  D(70,32,34,74)          9.3103         estimate D2E/DX2                !
 ! D253  D(30,32,70,68)         -9.0665         estimate D2E/DX2                !
 ! D254  D(30,32,70,72)       -154.9255         estimate D2E/DX2                !
 ! D255  D(34,32,70,68)        137.0756         estimate D2E/DX2                !
 ! D256  D(34,32,70,72)         -8.7834         estimate D2E/DX2                !
 ! D257  D(31,33,35,9)          12.8416         estimate D2E/DX2                !
 ! D258  D(31,33,35,37)       -143.8645         estimate D2E/DX2                !
 ! D259  D(73,33,35,9)         155.6694         estimate D2E/DX2                !
 ! D260  D(73,33,35,37)         -1.0367         estimate D2E/DX2                !
 ! D261  D(31,33,73,71)          4.3986         estimate D2E/DX2                !
 ! D262  D(31,33,73,75)        145.7169         estimate D2E/DX2                !
 ! D263  D(35,33,73,71)       -142.6026         estimate D2E/DX2                !
 ! D264  D(35,33,73,75)         -1.2842         estimate D2E/DX2                !
 ! D265  D(32,34,36,12)        -13.5279         estimate D2E/DX2                !
 ! D266  D(32,34,36,38)        142.942          estimate D2E/DX2                !
 ! D267  D(74,34,36,12)       -151.3387         estimate D2E/DX2                !
 ! D268  D(74,34,36,38)          5.1312         estimate D2E/DX2                !
 ! D269  D(32,34,74,72)         -6.0312         estimate D2E/DX2                !
 ! D270  D(32,34,74,76)       -149.8523         estimate D2E/DX2                !
 ! D271  D(36,34,74,72)        136.4917         estimate D2E/DX2                !
 ! D272  D(36,34,74,76)         -7.3293         estimate D2E/DX2                !
 ! D273  D(9,35,37,39)          -0.8953         estimate D2E/DX2                !
 ! D274  D(9,35,37,77)        -154.1429         estimate D2E/DX2                !
 ! D275  D(33,35,37,39)        155.0918         estimate D2E/DX2                !
 ! D276  D(33,35,37,77)          1.8442         estimate D2E/DX2                !
 ! D277  D(12,36,38,42)         -0.4948         estimate D2E/DX2                !
 ! D278  D(12,36,38,78)        167.6511         estimate D2E/DX2                !
 ! D279  D(34,36,38,42)       -156.5179         estimate D2E/DX2                !
 ! D280  D(34,36,38,78)         11.628          estimate D2E/DX2                !
 ! D281  D(35,37,39,43)          7.8081         estimate D2E/DX2                !
 ! D282  D(35,37,39,79)       -145.6583         estimate D2E/DX2                !
 ! D283  D(77,37,39,43)        161.879          estimate D2E/DX2                !
 ! D284  D(77,37,39,79)          8.4125         estimate D2E/DX2                !
 ! D285  D(35,37,77,75)         -0.4337         estimate D2E/DX2                !
 ! D286  D(35,37,77,81)        144.6327         estimate D2E/DX2                !
 ! D287  D(39,37,77,75)       -154.6093         estimate D2E/DX2                !
 ! D288  D(39,37,77,81)         -9.543          estimate D2E/DX2                !
 ! D289  D(36,38,42,46)         -3.067          estimate D2E/DX2                !
 ! D290  D(36,38,42,80)        161.9736         estimate D2E/DX2                !
 ! D291  D(78,38,42,46)       -171.2698         estimate D2E/DX2                !
 ! D292  D(78,38,42,80)         -6.2292         estimate D2E/DX2                !
 ! D293  D(36,38,78,76)        -24.404          estimate D2E/DX2                !
 ! D294  D(36,38,78,81)       -137.3711         estimate D2E/DX2                !
 ! D295  D(36,38,78,90)        100.0481         estimate D2E/DX2                !
 ! D296  D(42,38,78,76)        143.9091         estimate D2E/DX2                !
 ! D297  D(42,38,78,81)         30.9421         estimate D2E/DX2                !
 ! D298  D(42,38,78,90)        -91.6388         estimate D2E/DX2                !
 ! D299  D(37,39,43,2)        -158.9179         estimate D2E/DX2                !
 ! D300  D(37,39,43,13)         -5.8731         estimate D2E/DX2                !
 ! D301  D(79,39,43,2)          -4.7489         estimate D2E/DX2                !
 ! D302  D(79,39,43,13)        148.2958         estimate D2E/DX2                !
 ! D303  D(37,39,79,40)        136.3815         estimate D2E/DX2                !
 ! D304  D(37,39,79,82)         -2.7708         estimate D2E/DX2                !
 ! D305  D(43,39,79,40)        -17.7448         estimate D2E/DX2                !
 ! D306  D(43,39,79,82)       -156.8972         estimate D2E/DX2                !
 ! D307  D(44,40,41,45)         -3.5291         estimate D2E/DX2                !
 ! D308  D(44,40,41,80)       -163.5401         estimate D2E/DX2                !
 ! D309  D(79,40,41,45)        150.6805         estimate D2E/DX2                !
 ! D310  D(79,40,41,80)         -9.3305         estimate D2E/DX2                !
 ! D311  D(41,40,44,2)         167.9446         estimate D2E/DX2                !
 ! D312  D(41,40,44,47)          0.565          estimate D2E/DX2                !
 ! D313  D(79,40,44,2)          17.7075         estimate D2E/DX2                !
 ! D314  D(79,40,44,47)       -149.672          estimate D2E/DX2                !
 ! D315  D(41,40,79,39)       -142.153          estimate D2E/DX2                !
 ! D316  D(41,40,79,82)          2.4572         estimate D2E/DX2                !
 ! D317  D(44,40,79,39)         11.3825         estimate D2E/DX2                !
 ! D318  D(44,40,79,82)        155.9927         estimate D2E/DX2                !
 ! D319  D(40,41,45,4)        -163.051          estimate D2E/DX2                !
 ! D320  D(40,41,45,48)          3.8501         estimate D2E/DX2                !
 ! D321  D(80,41,45,4)          -6.4582         estimate D2E/DX2                !
 ! D322  D(80,41,45,48)        160.4429         estimate D2E/DX2                !
 ! D323  D(40,41,80,42)        128.8632         estimate D2E/DX2                !
 ! D324  D(40,41,80,82)         11.7384         estimate D2E/DX2                !
 ! D325  D(40,41,80,86)       -108.6418         estimate D2E/DX2                !
[...]
 Alpha virt. eigenvalues --    1.24823   1.25080   1.25471   1.25507   1.25954
 Alpha virt. eigenvalues --    1.26162   1.26398   1.26801   1.27010   1.27585
 Alpha virt. eigenvalues --    1.27825   1.27978   1.28427   1.28708   1.29014
 Alpha virt. eigenvalues --    1.29160   1.29559   1.29985   1.30297   1.30606
 Alpha virt. eigenvalues --    1.30923   1.30972   1.31126   1.31803   1.32192
 Alpha virt. eigenvalues --    1.32605   1.32873   1.33272   1.33550   1.33847
 Alpha virt. eigenvalues --    1.34049   1.34817   1.35286   1.35579   1.35769
 Alpha virt. eigenvalues --    1.36198   1.36668   1.37172   1.37582   1.38373
 Alpha virt. eigenvalues --    1.38964   1.39274   1.39429   1.39721   1.40375
 Alpha virt. eigenvalues --    1.41137   1.41474   1.41990   1.42493   1.42950
 Alpha virt. eigenvalues --    1.43955   1.44408   1.44879   1.45433   1.45723
 Alpha virt. eigenvalues --    1.46337   1.46910   1.47107   1.47302   1.47602
 Alpha virt. eigenvalues --    1.48413   1.48659   1.49664   1.49925   1.50971
 Alpha virt. eigenvalues --    1.51620   1.52138   1.52400   1.52607   1.53269
 Alpha virt. eigenvalues --    1.53517   1.54008   1.54725   1.55039   1.55512
 Alpha virt. eigenvalues --    1.56149   1.56219   1.56890   1.57097   1.58274
 Alpha virt. eigenvalues --    1.58764   1.59684   1.59873   1.60245   1.60587
 Alpha virt. eigenvalues --    1.60999   1.61314   1.62021   1.62453   1.62624
 Alpha virt. eigenvalues --    1.63358   1.63635   1.63812   1.64287   1.64831
 Alpha virt. eigenvalues --    1.64860   1.65066   1.65276   1.65772   1.66028
 Alpha virt. eigenvalues --    1.66345   1.66356   1.66733   1.66810   1.67110
 Alpha virt. eigenvalues --    1.67406   1.67812   1.67994   1.68161   1.68513
 Alpha virt. eigenvalues --    1.68956   1.69083   1.69436   1.69715   1.69801
 Alpha virt. eigenvalues --    1.69945   1.70183   1.70739   1.70899   1.71086
 Alpha virt. eigenvalues --    1.71196   1.71531   1.71554   1.71765   1.71999
 Alpha virt. eigenvalues --    1.72405   1.72787   1.72963   1.73101   1.73271
 Alpha virt. eigenvalues --    1.73518   1.73806   1.74284   1.74428   1.74713
 Alpha virt. eigenvalues --    1.75021   1.75085   1.75306   1.75477   1.76001
 Alpha virt. eigenvalues --    1.76061   1.76181   1.76464   1.76591   1.76673
 Alpha virt. eigenvalues --    1.76857   1.77327   1.77440   1.77728   1.78031
 Alpha virt. eigenvalues --    1.78148   1.78430   1.78662   1.78826   1.78924
 Alpha virt. eigenvalues --    1.79582   1.79844   1.79899   1.80394   1.80701
 Alpha virt. eigenvalues --    1.80909   1.81296   1.81723   1.81930   1.82558
 Alpha virt. eigenvalues --    1.83009   1.83268   1.83760   1.84318   1.84666
 Alpha virt. eigenvalues --    1.84939   1.85472   1.85764   1.86480   1.86673
 Alpha virt. eigenvalues --    1.87275   1.87759   1.88369   1.88438   1.88796
 Alpha virt. eigenvalues --    1.89345   1.89473   1.89897   1.90089   1.90398
 Alpha virt. eigenvalues --    1.91019   1.91797   1.91968   1.92579   1.92732
 Alpha virt. eigenvalues --    1.93322   1.93886   1.94246   1.94310   1.94543
 Alpha virt. eigenvalues --    1.95079   1.95506   1.95661   1.95737   1.95964
 Alpha virt. eigenvalues --    1.96648   1.96920   1.97148   1.97389   1.97719
 Alpha virt. eigenvalues --    1.98277   1.98423   1.98574   1.98843   1.99117
 Alpha virt. eigenvalues --    1.99388   1.99579   1.99787   1.99902   2.00211
 Alpha virt. eigenvalues --    2.00429   2.00896   2.01012   2.01262   2.01414
 Alpha virt. eigenvalues --    2.01804   2.02136   2.02286   2.02644   2.02700
 Alpha virt. eigenvalues --    2.02853   2.03260   2.03645   2.03874   2.04002
 Alpha virt. eigenvalues --    2.04177   2.04486   2.04764   2.05242   2.05417
 Alpha virt. eigenvalues --    2.05911   2.06121   2.07037   2.07251   2.07317
 Alpha virt. eigenvalues --    2.07864   2.08711   2.08776   2.09304   2.09470
 Alpha virt. eigenvalues --    2.09625   2.10619   2.11069   2.11209   2.11657
 Alpha virt. eigenvalues --    2.12185   2.12320   2.13419   2.13520   2.13731
 Alpha virt. eigenvalues --    2.14069   2.14514   2.15142   2.15428   2.15769
 Alpha virt. eigenvalues --    2.16227   2.16734   2.16918   2.17932   2.18212
 Alpha virt. eigenvalues --    2.18899   2.19152   2.19388   2.20018   2.20148
 Alpha virt. eigenvalues --    2.20501   2.21199   2.21251   2.21714   2.21971
 Alpha virt. eigenvalues --    2.22673   2.23030   2.23399   2.23747   2.24006
 Alpha virt. eigenvalues --    2.24412   2.24553   2.24793   2.25583   2.26018
 Alpha virt. eigenvalues --    2.26166   2.26745   2.27236   2.27354   2.27798
 Alpha virt. eigenvalues --    2.27877   2.28721   2.29380   2.29671   2.30135
 Alpha virt. eigenvalues --    2.30343   2.30735   2.31004   2.31347   2.31892
 Alpha virt. eigenvalues --    2.32403   2.32859   2.33334   2.33838   2.34533
 Alpha virt. eigenvalues --    2.35296   2.35802   2.36216   2.36783   2.37087
 Alpha virt. eigenvalues --    2.37586   2.38389   2.39216   2.39470   2.39662
 Alpha virt. eigenvalues --    2.40660   2.41013   2.41648   2.42040   2.42548
 Alpha virt. eigenvalues --    2.42833   2.43031   2.43542   2.44580   2.45053
 Alpha virt. eigenvalues --    2.45361   2.45957   2.46461   2.46831   2.47552
 Alpha virt. eigenvalues --    2.47909   2.48041   2.49233   2.50016   2.50119
 Alpha virt. eigenvalues --    2.50711   2.51112   2.51876   2.52094   2.52353
 Alpha virt. eigenvalues --    2.52930   2.53359   2.53890   2.54038   2.54618
 Alpha virt. eigenvalues --    2.55036   2.55310   2.55501   2.55919   2.56329
 Alpha virt. eigenvalues --    2.56674   2.56991   2.57517   2.57582   2.57956
 Alpha virt. eigenvalues --    2.58110   2.58550   2.58869   2.59366   2.59390
 Alpha virt. eigenvalues --    2.59631   2.59816   2.60081   2.60260   2.60945
 Alpha virt. eigenvalues --    2.61208   2.61251   2.61519   2.61766   2.62458
 Alpha virt. eigenvalues --    2.63070   2.63522   2.64017   2.64254   2.64292
 Alpha virt. eigenvalues --    2.65135   2.65188   2.65471   2.65636   2.65924
 Alpha virt. eigenvalues --    2.66095   2.66451   2.66882   2.67361   2.67841
 Alpha virt. eigenvalues --    2.68032   2.68464   2.68839   2.69035   2.69517
 Alpha virt. eigenvalues --    2.69740   2.70658   2.71104   2.71211   2.71796
 Alpha virt. eigenvalues --    2.72156   2.72365   2.73025   2.73489   2.73727
 Alpha virt. eigenvalues --    2.74119   2.74579   2.74803   2.74945   2.76019
 Alpha virt. eigenvalues --    2.76253   2.76652   2.77513   2.77608   2.77872
 Alpha virt. eigenvalues --    2.78655   2.78882   2.79312   2.79670   2.79981
 Alpha virt. eigenvalues --    2.80499   2.80768   2.81079   2.81767   2.82278
 Alpha virt. eigenvalues --    2.82608   2.83360   2.83762   2.83841   2.84143
 Alpha virt. eigenvalues --    2.84640   2.84958   2.86103   2.86399   2.86915
 Alpha virt. eigenvalues --    2.87365   2.87480   2.88213   2.89318   2.89595
 Alpha virt. eigenvalues --    2.90007   2.90041   2.90739   2.91307   2.91562
 Alpha virt. eigenvalues --    2.91791   2.92175   2.92552   2.93156   2.93569
 Alpha virt. eigenvalues --    2.93852   2.94088   2.94617   2.95730   2.95854
 Alpha virt. eigenvalues --    2.96604   2.97285   2.98342   2.98576   2.99344
 Alpha virt. eigenvalues --    2.99964   3.02029   3.02755   3.03803   3.04167
 Alpha virt. eigenvalues --    3.05605   3.07075   3.08317   3.09325   3.09854
 Alpha virt. eigenvalues --    3.11328   3.13621   3.15182   3.16268   3.17033
 Alpha virt. eigenvalues --    3.18981   3.19837   3.20554   3.22150   3.23181
 Alpha virt. eigenvalues --    3.25236   3.26789   3.28875   3.29213   3.30525
 Alpha virt. eigenvalues --    3.33859   3.34527   3.35793   3.36408   3.38669
 Alpha virt. eigenvalues --    3.42680   3.43076   3.43910   3.44511   3.47052
 Alpha virt. eigenvalues --    3.48837   3.51154   3.52582   3.56207   3.59292
 Alpha virt. eigenvalues --    3.59621   4.00773   4.00959   4.01516   4.02341
 Alpha virt. eigenvalues --    4.03415   4.03625   4.04522   4.04818   4.05599
 Alpha virt. eigenvalues --    4.06005   4.06860   4.07095   4.07731   4.08316
 Alpha virt. eigenvalues --    4.08658   4.08997   4.10171   4.10735   4.11480
 Alpha virt. eigenvalues --    4.12214   4.12491   4.13224   4.14041   4.16019
 Alpha virt. eigenvalues --    4.17178   4.17464   4.17567   4.19092   4.19863
 Alpha virt. eigenvalues --    4.20731   4.21393   4.21674   4.22337   4.22902
 Alpha virt. eigenvalues --    4.24566   4.25249   4.26431   4.26990   4.27541
 Alpha virt. eigenvalues --    4.28036   4.28154   4.29335   4.29760   4.30325
 Alpha virt. eigenvalues --    4.31232   4.33102   4.33384   4.34917   4.37240
 Alpha virt. eigenvalues --    4.37819   4.39754   4.41051   4.41496   4.42198
 Alpha virt. eigenvalues --    4.44051   4.44409   4.46902   4.48044   4.48680
 Alpha virt. eigenvalues --    4.49490   4.51424   4.53677   4.55323   4.56883
 Alpha virt. eigenvalues --    4.58161   4.59494   4.59684   4.61599   4.63253
 Alpha virt. eigenvalues --    4.65276   4.65727   4.68163   4.68927   4.73445
 Alpha virt. eigenvalues --    4.78073   4.80189   4.82114   4.84354   4.85002
 Alpha virt. eigenvalues --    4.87946   4.91544   4.93515   4.96404   5.03087
 Alpha virt. eigenvalues --    5.05597   5.08837   5.12847   5.16978   5.20143
 Alpha virt. eigenvalues --    5.25501
          Condensed to atoms (all electrons):
 Mulliken charges:
               1
     1  C   -0.021131
     2  C   -0.363313
     3  C   -0.015912
     4  C   -0.383967
     5  C    0.050317
     6  C    0.090593
     7  C   -0.016366
     8  C    0.086903
     9  C    0.026684
    10  C    0.095455
    11  C    0.089332
    12  C    0.049849
    13  C    0.019191
    14  C    0.008325
    15  C    0.020077
    16  C    0.007332
    17  C   -0.015211
    18  C    0.049059
    19  C   -0.014667
    20  C    0.047313
    21  C   -0.026855
    22  C   -0.021942
    23  C   -0.002437
    24  C   -0.016325
    25  C   -0.020409
    26  C   -0.002170
    27  C   -0.022898
    28  C   -0.026498
    29  C    0.050365
    30  C   -0.020105
    31  C   -0.032316
    32  C   -0.000532
    33  C   -0.018735
    34  C   -0.037486
    35  C    0.040212
    36  C    0.067884
    37  C    0.035351
    38  C    0.095245
    39  C    0.059501
    40  C    0.043202
    41  C    0.080202
    42  C    0.151405
    43  C    0.046914
    44  C    0.121896
    45  C    0.151791
    46  C    0.077861
    47  C    0.125919
    48  C    0.120449
    49  C   -0.375242
    50  C   -0.377203
    51  C    0.086963
    52  C    0.087761
    53  C    0.023585
    54  C    0.003919
    55  C    0.005079
    56  C    0.007785
    57  C    0.050124
    58  C   -0.028086
    59  C    0.058843
    60  C   -0.035532
    61  C   -0.027835
    62  C   -0.029130
    63  C   -0.032833
    64  C    0.058548
    65  C   -0.029031
    66  C    0.053807
    67  C    0.055013
    68  C    0.045871
    69  C   -0.022988
    70  C   -0.021019
    71  C   -0.013879
    72  C    0.006141
    73  C   -0.023560
    74  C    0.013582
    75  C    0.034388
    76  C    0.066578
    77  C    0.001855
    78  C   -0.358449
    79  C   -0.005417
    80  C   -0.382371
    81  C    0.093336
    82  C    0.093484
    83  C    0.033240
    84  C    0.047300
    85  Cl   0.010063
    86  Cl   0.014033
    87  Cl   0.007568
    88  Cl   0.005723
    89  Cl  -0.016858
    90  Cl  -0.014513
 Sum of Mulliken charges =  -0.00000
 Mulliken charges with hydrogens summed into heavy atoms:
               1
     1  C   -0.021131
     2  C   -0.363313
     3  C   -0.015912
     4  C   -0.383967
     5  C    0.050317
     6  C    0.090593
     7  C   -0.016366
     8  C    0.086903
     9  C    0.026684
    10  C    0.095455
    11  C    0.089332
    12  C    0.049849
    13  C    0.019191
    14  C    0.008325
    15  C    0.020077
    16  C    0.007332
    17  C   -0.015211
    18  C    0.049059
    19  C   -0.014667
    20  C    0.047313
    21  C   -0.026855
    22  C   -0.021942
    23  C   -0.002437
    24  C   -0.016325
    25  C   -0.020409
    26  C   -0.002170
    27  C   -0.022898
    28  C   -0.026498
    29  C    0.050365
    30  C   -0.020105
    31  C   -0.032316
    32  C   -0.000532
    33  C   -0.018735
    34  C   -0.037486
    35  C    0.040212
    36  C    0.067884
    37  C    0.035351
    38  C    0.095245
    39  C    0.059501
    40  C    0.043202
    41  C    0.080202
    42  C    0.151405
    43  C    0.046914
    44  C    0.121896
    45  C    0.151791
    46  C    0.077861
    47  C    0.125919
    48  C    0.120449
    49  C   -0.375242
    50  C   -0.377203
    51  C    0.086963
    52  C    0.087761
    53  C    0.023585
    54  C    0.003919
    55  C    0.005079
    56  C    0.007785
    57  C    0.050124
    58  C   -0.028086
    59  C    0.058843
    60  C   -0.035532
    61  C   -0.027835
    62  C   -0.029130
    63  C   -0.032833
    64  C    0.058548
    65  C   -0.029031
    66  C    0.053807
    67  C    0.055013
    68  C    0.045871
    69  C   -0.022988
    70  C   -0.021019
    71  C   -0.013879
    72  C    0.006141
    73  C   -0.023560
    74  C    0.013582
    75  C    0.034388
    76  C    0.066578
    77  C    0.001855
    78  C   -0.358449
    79  C   -0.005417
    80  C   -0.382371
    81  C    0.093336
    82  C    0.093484
    83  C    0.033240
    84  C    0.047300
    85  Cl   0.010063
    86  Cl   0.014033
    87  Cl   0.007568
    88  Cl   0.005723
    89  Cl  -0.016858
    90  Cl  -0.014513
 Electronic spatial extent (au):  <R**2>=          46419.4376
 Charge=             -0.0000 electrons
 Dipole moment (field-independent basis, Debye):
    X=             -4.6284    Y=             -4.0950    Z=              0.6518  Tot=              6.2142
 Quadrupole moment (field-independent basis, Debye-Ang):
   XX=           -553.0770   YY=           -549.4211   ZZ=           -530.1889
   XY=             -4.5591   XZ=             -0.0482   YZ=              3.2529
 Traceless Quadrupole moment (field-independent basis, Debye-Ang):
   XX=             -8.8480   YY=             -5.1921   ZZ=             14.0401
   XY=             -4.5591   XZ=             -0.0482   YZ=              3.2529
 Octapole moment (field-independent basis, Debye-Ang**2):
  XXX=            -19.6723  YYY=            -14.4672  ZZZ=              1.3903  XYY=             55.7306
  XXY=             14.6545  XXZ=             12.9991  XZZ=             -6.2569  YZZ=             23.5058
  YYZ=             -1.9921  XYZ=            -18.5128
 Hexadecapole moment (field-independent basis, Debye-Ang**3):
 XXXX=         -25698.0231 YYYY=         -23336.2853 ZZZZ=         -18738.5478 XXXY=             89.2797
 XXXZ=            -12.1469 YYYX=             44.3210 YYYZ=            103.1747 ZZZX=             90.2029
 ZZZY=             32.0093 XXYY=          -8126.8771 XXZZ=          -7481.5273 YYZZ=          -6950.4083
 XXYZ=            -19.6116 YYXZ=            -60.7846 ZZXY=            -35.0847
 N-N= 1.882271669525D+04 E-N=-5.160923445049D+04  KE= 5.923805406941D+03
 No NMR shielding tensors so no spin-rotation constants.
 Leave Link  601 at Tue Jun 28 07:57:21 2022, MaxMem=  1342177280 cpu:              23.9 elap:               1.2
 (Enter /home/mkliu/g16/l9999.exe)
 1\1\GINC-NODE05\FOpt\RB3LYP\6-31G(d,p)\C84Cl6\MKLIU\28-Jun-2022\0\\#P 
 opt b3lyp/6-31G(d, p) empiricaldispersion=GD3\\force\\0,1\C,8.47848876
 81,18.8762039964,10.765645136\C,12.5750175194,19.986442801,8.900335858
 1\C,8.2407079876,26.8759493752,10.5420844247\C,12.4697279979,25.757004
 7403,8.9305836859\C,7.9951346294,19.0961875312,9.4487702104\C,12.08002
 81413,19.4742366718,10.2291430332\C,7.9286353156,26.8501991726,9.14011
 35981\C,11.8689076607,26.1951477614,10.2480549602\C,8.9632963058,19.20
 11667819,8.3580157754\C,12.3431636027,20.1189694295,11.4040841586\C,12
 .1256213126,25.5377342092,11.4183708526\C,8.9288778378,26.6257030729,8
 .1585743753\C,10.3547798289,19.0731614197,8.6885297679\C,10.2677202451
 ,26.6555760225,8.6288337513\C,10.8111632647,18.8323377957,10.041681556
 1\C,10.5952661357,26.786332291,10.0354484016\C,9.8854470259,18.7524046
 309,11.0601051868\C,9.5823029326,26.7806206763,11.0220652356\C,10.1567
 14804,19.4266527471,12.303928076\C,9.840421936,26.0565768043,12.256428
 6147\C,8.9287499632,19.9899765816,12.7897652032\C,8.7512419427,25.4343
 494917,12.9283081859\C,7.8768085691,19.5255580353,11.9020318089\C,7.41
 43148225,25.5156567801,12.3932031001\C,6.7185361544,20.2580554673,11.7
 523926691\C,7.1622769869,26.2346019011,11.2394421031\C,6.0879883763,20
 .34179685,10.4690871206\C,6.2035283546,25.7433413642,10.2660821771\C,6
 .7104238115,19.772399871,9.3201480316\C,6.6343508871,26.2504623891,8.9
 872061813\C,6.3733303791,20.3564342948,8.0863481879\C,6.3277590919,25.
 5718733594,7.8315921332\C,7.2924568114,20.363048087,6.9772114015\C,7.2
 73441771,25.4683994062,6.7463187372\C,8.6405411463,19.9068500988,7.143
 8416338\C,8.6336801802,25.8671991944,6.9541227511\C,9.6861482692,20.59
 6284314,6.4016503212\C,9.6956236903,25.1273260661,6.3209028941\C,11.04
 37021968,20.577296479,6.8937040062\C,12.7056442822,22.189091398,7.7958
 891348\C,12.7205795679,23.5883383074,7.7832248284\C,10.9988790739,25.1
 514557645,6.8589301423\C,11.3549794459,19.7623856741,8.0024245448\C,12
 .9199145588,21.4630492064,8.9676474113\C,12.8772624279,24.2971842465,8
 .9669621952\C,11.2844703493,25.9507363197,7.9769132541\C,13.1416877484
 ,22.1675984647,10.1701151949\C,13.1042853942,23.5851056468,10.17352722
 51\C,13.179075849,21.3851982648,11.4919984099\C,13.0689868931,24.34957
 53882,11.4999046895\C,12.4450634535,22.1570535473,12.5741049697\C,12.3
 970916192,23.5135247553,12.5683133632\C,11.3481643496,20.1252491546,12
 .4436213682\C,11.1098916899,25.4420077131,12.4156459361\C,11.342924221
 1,21.4018892466,13.0893331753\C,11.2506993655,24.1796009497,13.0890534
 224\C,8.8770945749,21.2807666672,13.3664763206\C,8.8813718807,24.14897
 431,13.5320061447\C,7.6214876677,22.0316607851,13.2351561322\C,7.64070
 4119,23.4338327584,13.3573694278\C,6.5527623557,21.4966346737,12.45267
 27981\C,6.7328558103,24.2758511665,12.6199928409\C,5.7324600837,22.332
 6158993,11.6270539229\C,5.8563340383,23.7365894694,11.6354109905\C,5.4
 381035695,21.6151466141,10.4035376408\C,5.6037178981,24.477385165,10.3
 870611805\C,5.2213875186,22.2792168732,9.175175749\C,5.2715956485,23.7
 455029862,9.1480537496\C,5.5546835177,21.5416074872,8.0057733911\C,5.5
 57348994,24.3546570411,7.9074116457\C,5.8941494249,22.2039767029,6.777
 1703084\C,5.900608514,23.5848570526,6.7261474026\C,6.9542321359,21.460
 3612682,6.136201429\C,6.9504578481,24.2845391237,6.0067091154\C,7.9624
 773288,22.1613639608,5.4689953992\C,7.9405282509,23.5707506722,5.34851
 61375\C,9.3284256492,21.7070902828,5.575411012\C,9.3542266037,24.10044
 63127,5.2331751193\C,11.8613693648,21.7197733883,6.6974134787\C,12.049
 3703075,24.1100159139,6.509651774\C,10.1747241694,22.8247116067,5.4037
 912166\C,11.4237638794,22.8386899397,5.9760200092\C,10.1360893384,22.0
 122506185,13.5315172697\C,10.1233360956,23.4610096685,13.5767974444\Cl
 ,13.9030889406,26.8186015601,8.4507645035\Cl,13.2838234607,24.81069278
 89,5.332353837\Cl,14.7725424687,24.8759587818,11.9738727834\Cl,14.9318
 422925,21.0175628912,11.9350080791\Cl,14.0453226025,19.0261849613,8.28
 35692186\Cl,9.6649380933,24.8723852733,3.5674661457\\Version=ES64L-G16
 RevA.03\State=1-A\HF=-5962.2114581\RMSD=8.417e-09\RMSF=7.035e-05\Dipol
 e=-2.301117,-0.3577218,0.7444106\Quadrupole=-8.5513882,9.123057,-0.571
 6688,-1.4519232,1.1222244,4.3816154\PG=C01 [X(C84Cl6)]\\@


 ORIGINALITY CONSISTS NOT IN SAYING WHAT NO ONE HAS EVER SAID BEFORE, 
 BUT IN SAYING WHAT YOU THINK YOUR SELF.

                                    -- JAMES F. STEPHEN
 Job cpu time:       1 days  5 hours 10 minutes  6.7 seconds.
 Elapsed time:       0 days  1 hours 13 minutes  1.5 seconds.
 File lengths (MBytes):  RWF=   1161 Int=      0 D2E=      0 Chk=    146 Scr=      1
 Normal termination of Gaussian 16 at Tue Jun 28 07:57:23 2022.
