 Entering Gaussian System, Link 0=g16
 Input=6_addons_C84_11_Cl22_rank_8.gjf
 Output=6_addons_C84_11_Cl22_rank_8.log
 Initial command:
 /home/mkliu/g16/l1.exe "/data/scratch/Gau-219042.inp" -scrdir="/data/scratch/"
 Entering Link 1 = /home/mkliu/g16/l1.exe PID=    219043.
  
 Copyright (c) 1988,1990,1992,1993,1995,1998,2003,2009,2016,
            Gaussian, Inc.  All Rights Reserved.
  
 This is part of the Gaussian(R) 16 program.  It is based on
 the Gaussian(R) 09 system (copyright 2009, Gaussian, Inc.),
 the Gaussian(R) 03 system (copyright 2003, Gaussian, Inc.),
 the Gaussian(R) 98 system (copyright 1998, Gaussian, Inc.),
 the Gaussian(R) 94 system (copyright 1995, Gaussian, Inc.),
 the Gaussian 92(TM) system (copyright 1992, Gaussian, Inc.),
 the Gaussian 90(TM) system (copyright 1990, Gaussian, Inc.),
 the Gaussian 88(TM) system (copyright 1988, Gaussian, Inc.),
 the Gaussian 86(TM) system (copyright 1986, Carnegie Mellon
 University), and the Gaussian 82(TM) system (copyright 1983,
 Carnegie Mellon University). Gaussian is a federally registered
 trademark of Gaussian, Inc.
  
 This software contains proprietary and confidential information,
 including trade secrets, belonging to Gaussian, Inc.
  
 This software is provided under written license and may be
 used, copied, transmitted, or stored only in accord with that
 written license.
  
 The following legend is applicable only to US Government
 contracts under FAR:
  
                    RESTRICTED RIGHTS LEGEND
  
 Use, reproduction and disclosure by the US Government is
 subject to restrictions as set forth in subparagraphs (a)
 and (c) of the Commercial Computer Software - Restricted
 Rights clause in FAR 52.227-19.
  
 Gaussian, Inc.
 340 Quinnipiac St., Bldg. 40, Wallingford CT 06492
  
  
 ---------------------------------------------------------------
 Warning -- This program may not be used in any manner that
 competes with the business of Gaussian, Inc. or will provide
 assistance to any competitor of Gaussian, Inc.  The licensee
 of this program is prohibited from giving any competitor of
 Gaussian, Inc. access to this program.  By using this program,
 the user acknowledges that Gaussian, Inc. is engaged in the
 business of creating and licensing software in the field of
 computational chemistry and represents and warrants to the
 licensee that it is not a competitor of Gaussian, Inc. and that
 it will not use this program in any manner prohibited above.
 ---------------------------------------------------------------
  

 Cite this work as:
 Gaussian 16, Revision A.03,
 M. J. Frisch, G. W. Trucks, H. B. Schlegel, G. E. Scuseria, 
 M. A. Robb, J. R. Cheeseman, G. Scalmani, V. Barone, 
 G. A. Petersson, H. Nakatsuji, X. Li, M. Caricato, A. V. Marenich, 
 J. Bloino, B. G. Janesko, R. Gomperts, B. Mennucci, H. P. Hratchian, 
 J. V. Ortiz, A. F. Izmaylov, J. L. Sonnenberg, D. Williams-Young, 
 F. Ding, F. Lipparini, F. Egidi, J. Goings, B. Peng, A. Petrone, 
 T. Henderson, D. Ranasinghe, V. G. Zakrzewski, J. Gao, N. Rega, 
 G. Zheng, W. Liang, M. Hada, M. Ehara, K. Toyota, R. Fukuda, 
 J. Hasegawa, M. Ishida, T. Nakajima, Y. Honda, O. Kitao, H. Nakai, 
 T. Vreven, K. Throssell, J. A. Montgomery, Jr., J. E. Peralta, 
 F. Ogliaro, M. J. Bearpark, J. J. Heyd, E. N. Brothers, K. N. Kudin, 
 V. N. Staroverov, T. A. Keith, R. Kobayashi, J. Normand, 
 K. Raghavachari, A. P. Rendell, J. C. Burant, S. S. Iyengar, 
 J. Tomasi, M. Cossi, J. M. Millam, M. Klene, C. Adamo, R. Cammi, 
 J. W. Ochterski, R. L. Martin, K. Morokuma, O. Farkas, 
 J. B. Foresman, and D. J. Fox, Gaussian, Inc., Wallingford CT, 2016.
 
 ******************************************
 Gaussian 16:  ES64L-G16RevA.03 25-Dec-2016
                30-Jun-2022 
 ******************************************
 %mem=10GB
 %chk=6_addons_C84_11_Cl22_rank_8.chk
 %nprocshared=24
 Will use up to   24 processors via shared memory.
 ------------------------------------------------
 #P opt b3lyp/6-31G(d, p) empiricaldispersion=GD3
 ------------------------------------------------
 1/18=20,19=15,26=3,38=1/1,3;
 2/9=110,12=2,17=6,18=5,40=1/2;
 3/5=1,6=6,7=101,11=2,25=1,30=1,71=1,74=-5,124=31/1,2,3;
 4//1;
 5/5=2,38=5/2;
 6/7=2,8=2,9=2,10=2,28=1/1;
 7//1,2,3,16;
 1/18=20,19=15,26=3/3(2);
 2/9=110/2;
 99//99;
 2/9=110/2;
 3/5=1,6=6,7=101,11=2,25=1,30=1,71=1,74=-5,124=31/1,2,3;
 4/5=5,16=3,69=1/1;
 5/5=2,38=5/2;
 7//1,2,3,16;
 1/18=20,19=15,26=3/3(-5);
 2/9=110/2;
 6/7=2,8=2,9=2,10=2,19=2,28=1/1;
 99/9=1/99;
 Leave Link    1 at Thu Jun 30 01:26:15 2022, MaxMem=  1342177280 cpu:               0.7 elap:               0.1
 (Enter /home/mkliu/g16/l101.exe)
 -----
 force
 -----
 Symbolic Z-matrix:
 Charge =  0 Multiplicity = 1
 C                     8.51693   18.86406   10.76525 
 C                     12.37609   20.15545   8.96441 
 C                     8.28503   26.85839   10.54006 
 C                     12.26464   25.54689   9.00386 
 C                     8.03933   19.07777   9.45226 
 C                     12.06174   19.5095   10.19575 
 C                     7.88461   27.10277   9.09601 
 C                     11.87147   26.14224   10.20514 
 C                     8.99219   19.17416   8.36725 
 C                     12.34014   20.15552   11.38526 
 C                     12.12597   25.48107   11.38657 
 C                     8.94617   26.58041   8.15787 
 C                     10.36087   19.02694   8.68297 
 C                     10.24104   26.62835   8.62408 
 C                     10.81983   18.80417   10.02229 
 C                     10.67084   27.03063   10.01568 
 C                     9.90863   18.74413   11.05191 
 C                     9.57268   26.75472   11.00597 
 C                     10.18382   19.4212   12.2982 
 C                     9.85105   26.018    12.21036 
 C                     8.97024   19.97788   12.78397 
 C                     8.78404   25.37456   12.8717 
 C                     7.92353   19.50887   11.89784 
 C                     7.45873   25.44981   12.34432 
 C                     6.75972   20.21577   11.75245 
 C                     7.22096   26.17823   11.19199 
 C                     6.18485   20.3395   10.4824 
 C                     6.28523   25.69743   10.23054 
 C                     6.78136   19.76321   9.33632 
 C                     6.65793   26.24438   8.97644 
 C                     6.43765   20.35413   8.11415 
 C                     6.35121   25.57622   7.8376 
 C                     7.33841   20.34915   7.01626 
 C                     7.20415   25.64214   6.59718 
 C                     8.66716   19.90117   7.16563 
 C                     8.65766   25.81419   7.00682 
 C                     9.69372   20.59932   6.42325 
 C                     9.67411   25.07696   6.37567 
 C                     11.03816   20.59396   6.91629 
 C                     12.73744   22.18695   7.76777 
 C                     12.77267   23.5777   7.75285 
 C                     10.97511   25.08722   6.90231 
 C                     11.35952   19.78459   8.01589 
 C                     12.96829   21.4306   8.9464 
 C                     12.92985   24.29831   8.94817 
 C                     11.24322   25.85981   8.02091 
 C                     13.23137   22.13676   10.17524 
 C                     13.1888   23.58345   10.17395 
 C                     12.9462   21.44987   11.37742 
 C                     12.83647   24.24372   11.36897 
 C                     12.42899   22.14565   12.51908 
 C                     12.37898   23.51221   12.5099 
 C                     11.37171   20.11423   12.45701 
 C                     11.11994   25.42939   12.42103 
 C                     11.36106   21.37852   13.10968 
 C                     11.26103   24.1923   13.09704 
 C                     8.9188    21.27525   13.33946 
 C                     8.92078   24.10763   13.49661 
 C                     7.69392   22.0138   13.20805 
 C                     7.69398   23.38233   13.30787 
 C                     6.44991   21.40704   12.60385 
 C                     6.77403   24.23553   12.57466 
 C                     5.76186   22.31446   11.60363 
 C                     5.89406   23.71309   11.60623 
 C                     5.53214   21.62534   10.41946 
 C                     5.67114   24.43351   10.36848 
 C                     5.30098   22.28528   9.18474 
 C                     5.35129   23.72464   9.1635 
 C                     5.62837   21.54648   8.0383 
 C                     5.64984   24.34575   7.92554 
 C                     5.95523   22.20115   6.81714 
 C                     5.9704    23.5873   6.76081 
 C                     6.99753   21.46378   6.18319 
 C                     6.96935   24.27952   6.00934 
 C                     7.98434   22.15074   5.50602 
 C                     7.95638   23.5733   5.39197 
 C                     9.33455   21.70421   5.61431 
 C                     9.35697   24.09747   5.25442 
 C                     11.85485   21.7284   6.72823 
 C                     12.04458   24.09775   6.52835 
 C                     10.16894   22.83772   5.44304 
 C                     11.41145   22.848    6.00174 
 C                     10.16564   21.99746   13.52059 
 C                     10.15093   23.4431   13.56742 
 Cl                    11.12793   28.78236   10.07411 
 Cl                    7.57053   28.84707   8.77085 
 Cl                    6.74509   26.98553   5.48561 
 Cl                    9.66475   24.90983   3.67538 
 Cl                    13.19092   24.85919   5.35576 
 Cl                    5.32287   20.9867   13.96371 
 
 ITRead=  0  0  0  0  0  0  0  0  0  0  0  0  0  0  0  0  0  0  0  0
 ITRead=  0  0  0  0  0  0  0  0  0  0  0  0  0  0  0  0  0  0  0  0
 ITRead=  0  0  0  0  0  0  0  0  0  0  0  0  0  0  0  0  0  0  0  0
 ITRead=  0  0  0  0  0  0  0  0  0  0  0  0  0  0  0  0  0  0  0  0
 ITRead=  0  0  0  0  0  0  0  0  0  0
 MicOpt= -1 -1 -1 -1 -1 -1 -1 -1 -1 -1 -1 -1 -1 -1 -1 -1 -1 -1 -1 -1
 MicOpt= -1 -1 -1 -1 -1 -1 -1 -1 -1 -1 -1 -1 -1 -1 -1 -1 -1 -1 -1 -1
 MicOpt= -1 -1 -1 -1 -1 -1 -1 -1 -1 -1 -1 -1 -1 -1 -1 -1 -1 -1 -1 -1
 MicOpt= -1 -1 -1 -1 -1 -1 -1 -1 -1 -1 -1 -1 -1 -1 -1 -1 -1 -1 -1 -1
 MicOpt= -1 -1 -1 -1 -1 -1 -1 -1 -1 -1
 NAtoms=     90 NQM=       90 NQMF=       0 NMMI=      0 NMMIF=      0
                NMic=       0 NMicF=      0.
                    Isotopes and Nuclear Properties:
 (Nuclear quadrupole moments (NQMom) in fm**2, nuclear magnetic moments (NMagM)
  in nuclear magnetons)

  Atom         1           2           3           4           5           6           7           8           9          10
 IAtWgt=          12          12          12          12          12          12          12          12          12          12
 AtmWgt=  12.0000000  12.0000000  12.0000000  12.0000000  12.0000000  12.0000000  12.0000000  12.0000000  12.0000000  12.0000000
 NucSpn=           0           0           0           0           0           0           0           0           0           0
 AtZEff=  -0.0000000  -0.0000000  -0.0000000  -0.0000000  -0.0000000  -0.0000000  -0.0000000  -0.0000000  -0.0000000  -0.0000000
 NQMom=    0.0000000   0.0000000   0.0000000   0.0000000   0.0000000   0.0000000   0.0000000   0.0000000   0.0000000   0.0000000
 NMagM=    0.0000000   0.0000000   0.0000000   0.0000000   0.0000000   0.0000000   0.0000000   0.0000000   0.0000000   0.0000000
 AtZNuc=   6.0000000   6.0000000   6.0000000   6.0000000   6.0000000   6.0000000   6.0000000   6.0000000   6.0000000   6.0000000

  Atom        11          12          13          14          15          16          17          18          19          20
 IAtWgt=          12          12          12          12          12          12          12          12          12          12
 AtmWgt=  12.0000000  12.0000000  12.0000000  12.0000000  12.0000000  12.0000000  12.0000000  12.0000000  12.0000000  12.0000000
 NucSpn=           0           0           0           0           0           0           0           0           0           0
 AtZEff=  -0.0000000  -0.0000000  -0.0000000  -0.0000000  -0.0000000  -0.0000000  -0.0000000  -0.0000000  -0.0000000  -0.0000000
 NQMom=    0.0000000   0.0000000   0.0000000   0.0000000   0.0000000   0.0000000   0.0000000   0.0000000   0.0000000   0.0000000
 NMagM=    0.0000000   0.0000000   0.0000000   0.0000000   0.0000000   0.0000000   0.0000000   0.0000000   0.0000000   0.0000000
 AtZNuc=   6.0000000   6.0000000   6.0000000   6.0000000   6.0000000   6.0000000   6.0000000   6.0000000   6.0000000   6.0000000

  Atom        21          22          23          24          25          26          27          28          29          30
 IAtWgt=          12          12          12          12          12          12          12          12          12          12
 AtmWgt=  12.0000000  12.0000000  12.0000000  12.0000000  12.0000000  12.0000000  12.0000000  12.0000000  12.0000000  12.0000000
 NucSpn=           0           0           0           0           0           0           0           0           0           0
 AtZEff=  -0.0000000  -0.0000000  -0.0000000  -0.0000000  -0.0000000  -0.0000000  -0.0000000  -0.0000000  -0.0000000  -0.0000000
 NQMom=    0.0000000   0.0000000   0.0000000   0.0000000   0.0000000   0.0000000   0.0000000   0.0000000   0.0000000   0.0000000
 NMagM=    0.0000000   0.0000000   0.0000000   0.0000000   0.0000000   0.0000000   0.0000000   0.0000000   0.0000000   0.0000000
 AtZNuc=   6.0000000   6.0000000   6.0000000   6.0000000   6.0000000   6.0000000   6.0000000   6.0000000   6.0000000   6.0000000

  Atom        31          32          33          34          35          36          37          38          39          40
 IAtWgt=          12          12          12          12          12          12          12          12          12          12
 AtmWgt=  12.0000000  12.0000000  12.0000000  12.0000000  12.0000000  12.0000000  12.0000000  12.0000000  12.0000000  12.0000000
 NucSpn=           0           0           0           0           0           0           0           0           0           0
 AtZEff=  -0.0000000  -0.0000000  -0.0000000  -0.0000000  -0.0000000  -0.0000000  -0.0000000  -0.0000000  -0.0000000  -0.0000000
 NQMom=    0.0000000   0.0000000   0.0000000   0.0000000   0.0000000   0.0000000   0.0000000   0.0000000   0.0000000   0.0000000
 NMagM=    0.0000000   0.0000000   0.0000000   0.0000000   0.0000000   0.0000000   0.0000000   0.0000000   0.0000000   0.0000000
 AtZNuc=   6.0000000   6.0000000   6.0000000   6.0000000   6.0000000   6.0000000   6.0000000   6.0000000   6.0000000   6.0000000

  Atom        41          42          43          44          45          46          47          48          49          50
 IAtWgt=          12          12          12          12          12          12          12          12          12          12
 AtmWgt=  12.0000000  12.0000000  12.0000000  12.0000000  12.0000000  12.0000000  12.0000000  12.0000000  12.0000000  12.0000000
 NucSpn=           0           0           0           0           0           0           0           0           0           0
 AtZEff=  -0.0000000  -0.0000000  -0.0000000  -0.0000000  -0.0000000  -0.0000000  -0.0000000  -0.0000000  -0.0000000  -0.0000000
 NQMom=    0.0000000   0.0000000   0.0000000   0.0000000   0.0000000   0.0000000   0.0000000   0.0000000   0.0000000   0.0000000
 NMagM=    0.0000000   0.0000000   0.0000000   0.0000000   0.0000000   0.0000000   0.0000000   0.0000000   0.0000000   0.0000000
 AtZNuc=   6.0000000   6.0000000   6.0000000   6.0000000   6.0000000   6.0000000   6.0000000   6.0000000   6.0000000   6.0000000

  Atom        51          52          53          54          55          56          57          58          59          60
 IAtWgt=          12          12          12          12          12          12          12          12          12          12
 AtmWgt=  12.0000000  12.0000000  12.0000000  12.0000000  12.0000000  12.0000000  12.0000000  12.0000000  12.0000000  12.0000000
 NucSpn=           0           0           0           0           0           0           0           0           0           0
 AtZEff=  -0.0000000  -0.0000000  -0.0000000  -0.0000000  -0.0000000  -0.0000000  -0.0000000  -0.0000000  -0.0000000  -0.0000000
 NQMom=    0.0000000   0.0000000   0.0000000   0.0000000   0.0000000   0.0000000   0.0000000   0.0000000   0.0000000   0.0000000
 NMagM=    0.0000000   0.0000000   0.0000000   0.0000000   0.0000000   0.0000000   0.0000000   0.0000000   0.0000000   0.0000000
 AtZNuc=   6.0000000   6.0000000   6.0000000   6.0000000   6.0000000   6.0000000   6.0000000   6.0000000   6.0000000   6.0000000

  Atom        61          62          63          64          65          66          67          68          69          70
 IAtWgt=          12          12          12          12          12          12          12          12          12          12
 AtmWgt=  12.0000000  12.0000000  12.0000000  12.0000000  12.0000000  12.0000000  12.0000000  12.0000000  12.0000000  12.0000000
 NucSpn=           0           0           0           0           0           0           0           0           0           0
 AtZEff=  -0.0000000  -0.0000000  -0.0000000  -0.0000000  -0.0000000  -0.0000000  -0.0000000  -0.0000000  -0.0000000  -0.0000000
 NQMom=    0.0000000   0.0000000   0.0000000   0.0000000   0.0000000   0.0000000   0.0000000   0.0000000   0.0000000   0.0000000
 NMagM=    0.0000000   0.0000000   0.0000000   0.0000000   0.0000000   0.0000000   0.0000000   0.0000000   0.0000000   0.0000000
 AtZNuc=   6.0000000   6.0000000   6.0000000   6.0000000   6.0000000   6.0000000   6.0000000   6.0000000   6.0000000   6.0000000

  Atom        71          72          73          74          75          76          77          78          79          80
 IAtWgt=          12          12          12          12          12          12          12          12          12          12
 AtmWgt=  12.0000000  12.0000000  12.0000000  12.0000000  12.0000000  12.0000000  12.0000000  12.0000000  12.0000000  12.0000000
 NucSpn=           0           0           0           0           0           0           0           0           0           0
 AtZEff=  -0.0000000  -0.0000000  -0.0000000  -0.0000000  -0.0000000  -0.0000000  -0.0000000  -0.0000000  -0.0000000  -0.0000000
 NQMom=    0.0000000   0.0000000   0.0000000   0.0000000   0.0000000   0.0000000   0.0000000   0.0000000   0.0000000   0.0000000
 NMagM=    0.0000000   0.0000000   0.0000000   0.0000000   0.0000000   0.0000000   0.0000000   0.0000000   0.0000000   0.0000000
 AtZNuc=   6.0000000   6.0000000   6.0000000   6.0000000   6.0000000   6.0000000   6.0000000   6.0000000   6.0000000   6.0000000

  Atom        81          82          83          84          85          86          87          88          89          90
 IAtWgt=          12          12          12          12          35          35          35          35          35          35
 AtmWgt=  12.0000000  12.0000000  12.0000000  12.0000000  34.9688527  34.9688527  34.9688527  34.9688527  34.9688527  34.9688527
 NucSpn=           0           0           0           0           3           3           3           3           3           3
 AtZEff=  -0.0000000  -0.0000000  -0.0000000  -0.0000000  -0.0000000  -0.0000000  -0.0000000  -0.0000000  -0.0000000  -0.0000000
 NQMom=    0.0000000   0.0000000   0.0000000   0.0000000  -8.1650000  -8.1650000  -8.1650000  -8.1650000  -8.1650000  -8.1650000
 NMagM=    0.0000000   0.0000000   0.0000000   0.0000000   0.8218740   0.8218740   0.8218740   0.8218740   0.8218740   0.8218740
 AtZNuc=   6.0000000   6.0000000   6.0000000   6.0000000  17.0000000  17.0000000  17.0000000  17.0000000  17.0000000  17.0000000
 Leave Link  101 at Thu Jun 30 01:26:15 2022, MaxMem=  1342177280 cpu:               6.6 elap:               0.3
 (Enter /home/mkliu/g16/l103.exe)

 GradGradGradGradGradGradGradGradGradGradGradGradGradGradGradGradGradGrad
 Berny optimization.
 Initialization pass.
                           ----------------------------
                           !    Initial Parameters    !
                           ! (Angstroms and Degrees)  !
 --------------------------                            --------------------------
 ! Name  Definition              Value          Derivative Info.                !
 --------------------------------------------------------------------------------
 ! R1    R(1,5)                  1.4134         estimate D2E/DX2                !
 ! R2    R(1,17)                 1.426          estimate D2E/DX2                !
 ! R3    R(1,23)                 1.432          estimate D2E/DX2                !
 ! R4    R(2,6)                  1.4256         estimate D2E/DX2                !
 ! R5    R(2,43)                 1.439          estimate D2E/DX2                !
 ! R6    R(2,44)                 1.4061         estimate D2E/DX2                !
 ! R7    R(3,7)                  1.5183         estimate D2E/DX2                !
 ! R8    R(3,18)                 1.3733         estimate D2E/DX2                !
 ! R9    R(3,26)                 1.4212         estimate D2E/DX2                !
 ! R10   R(4,8)                  1.3972         estimate D2E/DX2                !
 ! R11   R(4,45)                 1.4158         estimate D2E/DX2                !
 ! R12   R(4,46)                 1.4517         estimate D2E/DX2                !
 ! R13   R(5,9)                  1.4472         estimate D2E/DX2                !
 ! R14   R(5,29)                 1.4373         estimate D2E/DX2                !
 ! R15   R(6,10)                 1.382          estimate D2E/DX2                !
 ! R16   R(6,15)                 1.4387         estimate D2E/DX2                !
 ! R17   R(7,12)                 1.5099         estimate D2E/DX2                !
 ! R18   R(7,30)                 1.502          estimate D2E/DX2                !
 ! R19   R(7,86)                 1.8019         estimate D2E/DX2                !
 ! R20   R(8,11)                 1.3776         estimate D2E/DX2                !
 ! R21   R(8,16)                 1.5055         estimate D2E/DX2                !
 ! R22   R(9,13)                 1.4123         estimate D2E/DX2                !
 ! R23   R(9,35)                 1.4416         estimate D2E/DX2                !
 ! R24   R(10,49)                1.4292         estimate D2E/DX2                !
 ! R25   R(10,53)                1.4451         estimate D2E/DX2                !
 ! R26   R(11,50)                1.4269         estimate D2E/DX2                !
 ! R27   R(11,54)                1.4439         estimate D2E/DX2                !
 ! R28   R(12,14)                1.3771         estimate D2E/DX2                !
 ! R29   R(12,36)                1.4125         estimate D2E/DX2                !
 ! R30   R(13,15)                1.4332         estimate D2E/DX2                !
 ! R31   R(13,43)                1.42           estimate D2E/DX2                !
 ! R32   R(14,16)                1.511          estimate D2E/DX2                !
 ! R33   R(14,46)                1.3996         estimate D2E/DX2                !
 ! R34   R(15,17)                1.3762         estimate D2E/DX2                !
 ! R35   R(16,18)                1.5042         estimate D2E/DX2                !
 ! R36   R(16,85)                1.8113         estimate D2E/DX2                !
 ! R37   R(17,19)                1.4448         estimate D2E/DX2                !
 ! R38   R(18,20)                1.439          estimate D2E/DX2                !
 ! R39   R(19,21)                1.4208         estimate D2E/DX2                !
 ! R40   R(19,53)                1.3844         estimate D2E/DX2                !
 ! R41   R(20,22)                1.4106         estimate D2E/DX2                !
 ! R42   R(20,54)                1.4145         estimate D2E/DX2                !
 ! R43   R(21,23)                1.4494         estimate D2E/DX2                !
 ! R44   R(21,57)                1.4122         estimate D2E/DX2                !
 ! R45   R(22,24)                1.4284         estimate D2E/DX2                !
 ! R46   R(22,58)                1.4193         estimate D2E/DX2                !
 ! R47   R(23,25)                1.3694         estimate D2E/DX2                !
 ! R48   R(24,26)                1.3838         estimate D2E/DX2                !
 ! R49   R(24,62)                1.4129         estimate D2E/DX2                !
 ! R50   R(25,27)                1.3996         estimate D2E/DX2                !
 ! R51   R(25,61)                1.4967         estimate D2E/DX2                !
 ! R52   R(26,28)                1.4252         estimate D2E/DX2                !
 ! R53   R(27,29)                1.4147         estimate D2E/DX2                !
 ! R54   R(27,65)                1.4434         estimate D2E/DX2                !
 ! R55   R(28,30)                1.418          estimate D2E/DX2                !
 ! R56   R(28,66)                1.412          estimate D2E/DX2                !
 ! R57   R(29,31)                1.4004         estimate D2E/DX2                !
 ! R58   R(30,32)                1.3555         estimate D2E/DX2                !
 ! R59   R(31,33)                1.4201         estimate D2E/DX2                !
 ! R60   R(31,69)                1.443          estimate D2E/DX2                !
 ! R61   R(32,34)                1.5068         estimate D2E/DX2                !
 ! R62   R(32,70)                1.4191         estimate D2E/DX2                !
 ! R63   R(33,35)                1.4102         estimate D2E/DX2                !
 ! R64   R(33,73)                1.4327         estimate D2E/DX2                !
 ! R65   R(34,36)                1.5199         estimate D2E/DX2                !
 ! R66   R(34,74)                1.5025         estimate D2E/DX2                !
 ! R67   R(34,87)                1.8031         estimate D2E/DX2                !
 ! R68   R(35,37)                1.4465         estimate D2E/DX2                !
 ! R69   R(36,38)                1.4054         estimate D2E/DX2                !
 ! R70   R(37,39)                1.432          estimate D2E/DX2                !
 ! R71   R(37,77)                1.4157         estimate D2E/DX2                !
 ! R72   R(38,42)                1.4036         estimate D2E/DX2                !
 ! R73   R(38,78)                1.5222         estimate D2E/DX2                !
 ! R74   R(39,43)                1.4027         estimate D2E/DX2                !
 ! R75   R(39,79)                1.4104         estimate D2E/DX2                !
 ! R76   R(40,41)                1.3913         estimate D2E/DX2                !
 ! R77   R(40,44)                1.4193         estimate D2E/DX2                !
 ! R78   R(40,79)                1.4387         estimate D2E/DX2                !
 ! R79   R(41,45)                1.4046         estimate D2E/DX2                !
 ! R80   R(41,80)                1.5166         estimate D2E/DX2                !
 ! R81   R(42,46)                1.3857         estimate D2E/DX2                !
 ! R82   R(42,80)                1.5042         estimate D2E/DX2                !
 ! R83   R(44,47)                1.4415         estimate D2E/DX2                !
 ! R84   R(45,48)                1.4424         estimate D2E/DX2                !
 ! R85   R(47,48)                1.4473         estimate D2E/DX2                !
 ! R86   R(47,49)                1.4136         estimate D2E/DX2                !
 ! R87   R(48,50)                1.41           estimate D2E/DX2                !
 ! R88   R(49,51)                1.4335         estimate D2E/DX2                !
 ! R89   R(50,52)                1.4304         estimate D2E/DX2                !
 ! R90   R(51,52)                1.3675         estimate D2E/DX2                !
 ! R91   R(51,55)                1.4415         estimate D2E/DX2                !
 ! R92   R(52,56)                1.4342         estimate D2E/DX2                !
 ! R93   R(53,55)                1.4229         estimate D2E/DX2                !
 ! R94   R(54,56)                1.4168         estimate D2E/DX2                !
 ! R95   R(55,83)                1.4075         estimate D2E/DX2                !
 ! R96   R(56,84)                1.4195         estimate D2E/DX2                !
 ! R97   R(57,59)                1.4363         estimate D2E/DX2                !
 ! R98   R(57,83)                1.4522         estimate D2E/DX2                !
 ! R99   R(58,60)                1.4376         estimate D2E/DX2                !
 ! R100  R(58,84)                1.4            estimate D2E/DX2                !
 ! R101  R(59,60)                1.3722         estimate D2E/DX2                !
 ! R102  R(59,61)                1.5102         estimate D2E/DX2                !
 ! R103  R(60,62)                1.4532         estimate D2E/DX2                !
 ! R104  R(61,63)                1.5157         estimate D2E/DX2                !
 ! R105  R(61,90)                1.8155         estimate D2E/DX2                !
 ! R106  R(62,64)                1.409          estimate D2E/DX2                !
 ! R107  R(63,64)                1.4049         estimate D2E/DX2                !
 ! R108  R(63,65)                1.3892         estimate D2E/DX2                !
 ! R109  R(64,66)                1.4494         estimate D2E/DX2                !
 ! R110  R(65,67)                1.419          estimate D2E/DX2                !
 ! R111  R(66,68)                1.4342         estimate D2E/DX2                !
 ! R112  R(67,68)                1.4404         estimate D2E/DX2                !
 ! R113  R(67,69)                1.4026         estimate D2E/DX2                !
 ! R114  R(68,70)                1.4168         estimate D2E/DX2                !
 ! R115  R(69,71)                1.4236         estimate D2E/DX2                !
 ! R116  R(70,72)                1.4264         estimate D2E/DX2                !
 ! R117  R(71,72)                1.3874         estimate D2E/DX2                !
 ! R118  R(71,73)                1.4255         estimate D2E/DX2                !
 ! R119  R(72,74)                1.4289         estimate D2E/DX2                !
 ! R120  R(73,75)                1.38           estimate D2E/DX2                !
 ! R121  R(74,76)                1.3617         estimate D2E/DX2                !
 ! R122  R(75,76)                1.4274         estimate D2E/DX2                !
 ! R123  R(75,77)                1.4262         estimate D2E/DX2                !
 ! R124  R(76,78)                1.5018         estimate D2E/DX2                !
 ! R125  R(77,81)                1.4179         estimate D2E/DX2                !
 ! R126  R(78,81)                1.5106         estimate D2E/DX2                !
 ! R127  R(78,88)                1.8022         estimate D2E/DX2                !
 ! R128  R(79,82)                1.4064         estimate D2E/DX2                !
 ! R129  R(80,82)                1.4967         estimate D2E/DX2                !
 ! R130  R(80,89)                1.808          estimate D2E/DX2                !
 ! R131  R(81,82)                1.3624         estimate D2E/DX2                !
 ! R132  R(83,84)                1.4465         estimate D2E/DX2                !
 ! A1    A(5,1,17)             121.9543         estimate D2E/DX2                !
 ! A2    A(5,1,23)             121.7773         estimate D2E/DX2                !
 ! A3    A(17,1,23)            106.4572         estimate D2E/DX2                !
 ! A4    A(6,2,43)             107.2653         estimate D2E/DX2                !
 ! A5    A(6,2,44)             120.9884         estimate D2E/DX2                !
 ! A6    A(43,2,44)            121.5221         estimate D2E/DX2                !
 ! A7    A(7,3,18)             125.5989         estimate D2E/DX2                !
 ! A8    A(7,3,26)             108.4121         estimate D2E/DX2                !
 ! A9    A(18,3,26)            120.6812         estimate D2E/DX2                !
 ! A10   A(8,4,45)             122.8066         estimate D2E/DX2                !
 ! A11   A(8,4,46)             106.997          estimate D2E/DX2                !
 ! A12   A(45,4,46)            119.6073         estimate D2E/DX2                !
 ! A13   A(1,5,9)              118.9503         estimate D2E/DX2                !
 ! A14   A(1,5,29)             116.282          estimate D2E/DX2                !
 ! A15   A(9,5,29)             118.9484         estimate D2E/DX2                !
 ! A16   A(2,6,10)             119.1587         estimate D2E/DX2                !
 ! A17   A(2,6,15)             107.9598         estimate D2E/DX2                !
 ! A18   A(10,6,15)            120.454          estimate D2E/DX2                !
 ! A19   A(3,7,12)             110.4764         estimate D2E/DX2                !
 ! A20   A(3,7,30)             101.4854         estimate D2E/DX2                !
 ! A21   A(3,7,86)             111.9253         estimate D2E/DX2                !
 ! A22   A(12,7,30)            109.0878         estimate D2E/DX2                !
 ! A23   A(12,7,86)            110.2009         estimate D2E/DX2                !
 ! A24   A(30,7,86)            113.3606         estimate D2E/DX2                !
 ! A25   A(4,8,11)             118.7427         estimate D2E/DX2                !
 ! A26   A(4,8,16)             111.571          estimate D2E/DX2                !
 ! A27   A(11,8,16)            122.5796         estimate D2E/DX2                !
 ! A28   A(5,9,13)             117.6141         estimate D2E/DX2                !
 ! A29   A(5,9,35)             120.6688         estimate D2E/DX2                !
 ! A30   A(13,9,35)            117.2204         estimate D2E/DX2                !
 ! A31   A(6,10,49)            120.2684         estimate D2E/DX2                !
 ! A32   A(6,10,53)            119.3419         estimate D2E/DX2                !
 ! A33   A(49,10,53)           108.3081         estimate D2E/DX2                !
 ! A34   A(8,11,50)            119.841          estimate D2E/DX2                !
 ! A35   A(8,11,54)            120.1906         estimate D2E/DX2                !
 ! A36   A(50,11,54)           108.9484         estimate D2E/DX2                !
 ! A37   A(7,12,14)            116.0205         estimate D2E/DX2                !
 ! A38   A(7,12,36)            123.3918         estimate D2E/DX2                !
 ! A39   A(14,12,36)           119.1319         estimate D2E/DX2                !
 ! A40   A(9,13,15)            122.3746         estimate D2E/DX2                !
 ! A41   A(9,13,43)            121.394          estimate D2E/DX2                !
 ! A42   A(15,13,43)           107.2615         estimate D2E/DX2                !
 ! A43   A(12,14,16)           126.053          estimate D2E/DX2                !
 ! A44   A(12,14,46)           120.5501         estimate D2E/DX2                !
 ! A45   A(16,14,46)           109.8417         estimate D2E/DX2                !
 ! A46   A(6,15,13)            108.2334         estimate D2E/DX2                !
 ! A47   A(6,15,17)            120.1795         estimate D2E/DX2                !
 ! A48   A(13,15,17)           119.5971         estimate D2E/DX2                !
 ! A49   A(8,16,14)            100.6982         estimate D2E/DX2                !
 ! A50   A(8,16,18)            113.0234         estimate D2E/DX2                !
 ! A51   A(8,16,85)            111.4303         estimate D2E/DX2                !
 ! A52   A(14,16,18)           110.4765         estimate D2E/DX2                !
 ! A53   A(14,16,85)           111.0366         estimate D2E/DX2                !
 ! A54   A(18,16,85)           109.8996         estimate D2E/DX2                !
 ! A55   A(1,17,15)            119.4799         estimate D2E/DX2                !
 ! A56   A(1,17,19)            108.6562         estimate D2E/DX2                !
 ! A57   A(15,17,19)           119.9215         estimate D2E/DX2                !
 ! A58   A(3,18,16)            116.5721         estimate D2E/DX2                !
 ! A59   A(3,18,20)            120.2638         estimate D2E/DX2                !
 ! A60   A(16,18,20)           120.2433         estimate D2E/DX2                !
 ! A61   A(17,19,21)           108.412          estimate D2E/DX2                !
 ! A62   A(17,19,53)           119.8            estimate D2E/DX2                !
 ! A63   A(21,19,53)           119.8383         estimate D2E/DX2                !
 ! A64   A(18,20,22)           118.6585         estimate D2E/DX2                !
 ! A65   A(18,20,54)           120.744          estimate D2E/DX2                !
 ! A66   A(22,20,54)           114.7642         estimate D2E/DX2                !
 ! A67   A(19,21,23)           106.3216         estimate D2E/DX2                !
 ! A68   A(19,21,57)           121.7044         estimate D2E/DX2                !
 ! A69   A(23,21,57)           120.76           estimate D2E/DX2                !
 ! A70   A(20,22,24)           120.3109         estimate D2E/DX2                !
 ! A71   A(20,22,58)           122.7333         estimate D2E/DX2                !
 ! A72   A(24,22,58)           107.3971         estimate D2E/DX2                !
 ! A73   A(1,23,21)            109.2686         estimate D2E/DX2                !
 ! A74   A(1,23,25)            120.0419         estimate D2E/DX2                !
 ! A75   A(21,23,25)           120.7709         estimate D2E/DX2                !
 ! A76   A(22,24,26)           119.6441         estimate D2E/DX2                !
 ! A77   A(22,24,62)           110.1308         estimate D2E/DX2                !
 ! A78   A(26,24,62)           120.3223         estimate D2E/DX2                !
 ! A79   A(23,25,27)           119.4099         estimate D2E/DX2                !
 ! A80   A(23,25,61)           121.7625         estimate D2E/DX2                !
 ! A81   A(27,25,61)           111.1512         estimate D2E/DX2                !
 ! A82   A(3,26,24)            120.3475         estimate D2E/DX2                !
 ! A83   A(3,26,28)            110.0942         estimate D2E/DX2                !
 ! A84   A(24,26,28)           119.8014         estimate D2E/DX2                !
 ! A85   A(25,27,29)           121.7315         estimate D2E/DX2                !
 ! A86   A(25,27,65)           107.7019         estimate D2E/DX2                !
 ! A87   A(29,27,65)           121.2138         estimate D2E/DX2                !
 ! A88   A(26,28,30)           107.0941         estimate D2E/DX2                !
 ! A89   A(26,28,66)           121.4419         estimate D2E/DX2                !
 ! A90   A(30,28,66)           123.0916         estimate D2E/DX2                !
 ! A91   A(5,29,27)            119.8651         estimate D2E/DX2                !
 ! A92   A(5,29,31)            119.1086         estimate D2E/DX2                !
 ! A93   A(27,29,31)           115.5719         estimate D2E/DX2                !
 ! A94   A(7,30,28)            111.3883         estimate D2E/DX2                !
 ! A95   A(7,30,32)            122.2351         estimate D2E/DX2                !
 ! A96   A(28,30,32)           119.5658         estimate D2E/DX2                !
 ! A97   A(29,31,33)           121.1683         estimate D2E/DX2                !
 ! A98   A(29,31,69)           122.1532         estimate D2E/DX2                !
 ! A99   A(33,31,69)           108.5409         estimate D2E/DX2                !
 ! A100  A(30,32,34)           122.8171         estimate D2E/DX2                !
 ! A101  A(30,32,70)           119.1554         estimate D2E/DX2                !
 ! A102  A(34,32,70)           111.637          estimate D2E/DX2                !
 ! A103  A(31,33,35)           121.1239         estimate D2E/DX2                !
 ! A104  A(31,33,73)           107.2106         estimate D2E/DX2                !
 ! A105  A(35,33,73)           122.2039         estimate D2E/DX2                !
 ! A106  A(32,34,36)           108.9302         estimate D2E/DX2                !
 ! A107  A(32,34,74)           101.1829         estimate D2E/DX2                !
 ! A108  A(32,34,87)           113.3267         estimate D2E/DX2                !
 ! A109  A(36,34,74)           110.9501         estimate D2E/DX2                !
 ! A110  A(36,34,87)           108.9839         estimate D2E/DX2                !
 ! A111  A(74,34,87)           113.2484         estimate D2E/DX2                !
 ! A112  A(9,35,33)            117.4487         estimate D2E/DX2                !
 ! A113  A(9,35,37)            120.744          estimate D2E/DX2                !
 ! A114  A(33,35,37)           117.4533         estimate D2E/DX2                !
 ! A115  A(12,36,34)           118.4476         estimate D2E/DX2                !
 ! A116  A(12,36,38)           120.1853         estimate D2E/DX2                !
 ! A117  A(34,36,38)           120.7475         estimate D2E/DX2                !
 ! A118  A(35,37,39)           119.1947         estimate D2E/DX2                !
 ! A119  A(35,37,77)           119.3337         estimate D2E/DX2                !
 ! A120  A(39,37,77)           115.967          estimate D2E/DX2                !
 ! A121  A(36,38,42)           119.8719         estimate D2E/DX2                !
 ! A122  A(36,38,78)           121.1758         estimate D2E/DX2                !
 ! A123  A(42,38,78)           118.3065         estimate D2E/DX2                !
 ! A124  A(37,39,43)           119.1548         estimate D2E/DX2                !
 ! A125  A(37,39,79)           119.6511         estimate D2E/DX2                !
 ! A126  A(43,39,79)           115.8473         estimate D2E/DX2                !
 ! A127  A(41,40,44)           122.5117         estimate D2E/DX2                !
 ! A128  A(41,40,79)           109.0501         estimate D2E/DX2                !
 ! A129  A(44,40,79)           122.0018         estimate D2E/DX2                !
 ! A130  A(40,41,45)           120.435          estimate D2E/DX2                !
 ! A131  A(40,41,80)           109.8331         estimate D2E/DX2                !
 ! A132  A(45,41,80)           124.398          estimate D2E/DX2                !
 ! A133  A(38,42,46)           119.0989         estimate D2E/DX2                !
 ! A134  A(38,42,80)           124.1199         estimate D2E/DX2                !
 ! A135  A(46,42,80)           115.4608         estimate D2E/DX2                !
 ! A136  A(2,43,13)            108.9465         estimate D2E/DX2                !
 ! A137  A(2,43,39)            121.9977         estimate D2E/DX2                !
 ! A138  A(13,43,39)           120.9991         estimate D2E/DX2                !
 ! A139  A(2,44,40)            115.1761         estimate D2E/DX2                !
 ! A140  A(2,44,47)            120.6779         estimate D2E/DX2                !
 ! A141  A(40,44,47)           118.4593         estimate D2E/DX2                !
 ! A142  A(4,45,41)            115.6793         estimate D2E/DX2                !
 ! A143  A(4,45,48)            119.2075         estimate D2E/DX2                !
 ! A144  A(41,45,48)           119.2773         estimate D2E/DX2                !
 ! A145  A(4,46,14)            109.2922         estimate D2E/DX2                !
 ! A146  A(4,46,42)            124.2329         estimate D2E/DX2                !
 ! A147  A(14,46,42)           121.0324         estimate D2E/DX2                !
 ! A148  A(44,47,48)           118.917          estimate D2E/DX2                !
 ! A149  A(44,47,49)           116.7507         estimate D2E/DX2                !
 ! A150  A(48,47,49)           118.7188         estimate D2E/DX2                !
 ! A151  A(45,48,47)           120.0935         estimate D2E/DX2                !
 ! A152  A(45,48,50)           116.3141         estimate D2E/DX2                !
 ! A153  A(47,48,50)           118.3376         estimate D2E/DX2                !
 ! A154  A(10,49,47)           122.0225         estimate D2E/DX2                !
 ! A155  A(10,49,51)           106.391          estimate D2E/DX2                !
 ! A156  A(47,49,51)           120.9452         estimate D2E/DX2                !
 ! A157  A(11,50,48)           122.7466         estimate D2E/DX2                !
 ! A158  A(11,50,52)           105.9239         estimate D2E/DX2                !
 ! A159  A(48,50,52)           121.0937         estimate D2E/DX2                !
 ! A160  A(49,51,52)           119.5298         estimate D2E/DX2                !
 ! A161  A(49,51,55)           109.5908         estimate D2E/DX2                !
 ! A162  A(52,51,55)           120.496          estimate D2E/DX2                !
 ! A163  A(50,52,51)           120.3109         estimate D2E/DX2                !
 ! A164  A(50,52,56)           109.4708         estimate D2E/DX2                !
 ! A165  A(51,52,56)           119.9744         estimate D2E/DX2                !
 ! A166  A(10,53,19)           120.2824         estimate D2E/DX2                !
 ! A167  A(10,53,55)           108.6529         estimate D2E/DX2                !
 ! A168  A(19,53,55)           119.4064         estimate D2E/DX2                !
 ! A169  A(11,54,20)           120.2257         estimate D2E/DX2                !
 ! A170  A(11,54,56)           107.6805         estimate D2E/DX2                !
 ! A171  A(20,54,56)           121.583          estimate D2E/DX2                !
 ! A172  A(51,55,53)           106.224          estimate D2E/DX2                !
 ! A173  A(51,55,83)           120.9867         estimate D2E/DX2                !
 ! A174  A(53,55,83)           122.0749         estimate D2E/DX2                !
 ! A175  A(52,56,54)           107.2373         estimate D2E/DX2                !
 ! A176  A(52,56,84)           119.6679         estimate D2E/DX2                !
 ! A177  A(54,56,84)           122.7577         estimate D2E/DX2                !
 ! A178  A(21,57,59)           117.8687         estimate D2E/DX2                !
 ! A179  A(21,57,83)           118.3367         estimate D2E/DX2                !
 ! A180  A(59,57,83)           119.2003         estimate D2E/DX2                !
 ! A181  A(22,58,60)           108.0797         estimate D2E/DX2                !
 ! A182  A(22,58,84)           122.0498         estimate D2E/DX2                !
 ! A183  A(60,58,84)           121.1322         estimate D2E/DX2                !
 ! A184  A(57,59,60)           120.4068         estimate D2E/DX2                !
 ! A185  A(57,59,61)           122.1728         estimate D2E/DX2                !
 ! A186  A(60,59,61)           115.4577         estimate D2E/DX2                !
 ! A187  A(58,60,59)           120.8483         estimate D2E/DX2                !
 ! A188  A(58,60,62)           108.0741         estimate D2E/DX2                !
 ! A189  A(59,60,62)           123.2865         estimate D2E/DX2                !
 ! A190  A(25,61,59)           112.1397         estimate D2E/DX2                !
 ! A191  A(25,61,63)           101.2501         estimate D2E/DX2                !
 ! A192  A(25,61,90)           111.7344         estimate D2E/DX2                !
 ! A193  A(59,61,63)           113.4166         estimate D2E/DX2                !
 ! A194  A(59,61,90)           107.741          estimate D2E/DX2                !
 ! A195  A(63,61,90)           110.5546         estimate D2E/DX2                !
 ! A196  A(24,62,60)           106.2632         estimate D2E/DX2                !
 ! A197  A(24,62,64)           120.6155         estimate D2E/DX2                !
 ! A198  A(60,62,64)           121.6318         estimate D2E/DX2                !
 ! A199  A(61,63,64)           123.5111         estimate D2E/DX2                !
 ! A200  A(61,63,65)           109.9135         estimate D2E/DX2                !
 ! A201  A(64,63,65)           120.7295         estimate D2E/DX2                !
 ! A202  A(62,64,63)           115.4164         estimate D2E/DX2                !
 ! A203  A(62,64,66)           119.9156         estimate D2E/DX2                !
 ! A204  A(63,64,66)           118.607          estimate D2E/DX2                !
 ! A205  A(27,65,63)           109.2665         estimate D2E/DX2                !
 ! A206  A(27,65,67)           121.7305         estimate D2E/DX2                !
 ! A207  A(63,65,67)           122.5443         estimate D2E/DX2                !
 ! A208  A(28,66,64)           117.4827         estimate D2E/DX2                !
 ! A209  A(28,66,68)           117.2175         estimate D2E/DX2                !
 ! A210  A(64,66,68)           120.4069         estimate D2E/DX2                !
 ! A211  A(65,67,68)           118.1569         estimate D2E/DX2                !
 ! A212  A(65,67,69)           115.355          estimate D2E/DX2                !
 ! A213  A(68,67,69)           120.4075         estimate D2E/DX2                !
 ! A214  A(66,68,67)           119.2961         estimate D2E/DX2                !
 ! A215  A(66,68,70)           118.0636         estimate D2E/DX2                !
 ! A216  A(67,68,70)           117.2776         estimate D2E/DX2                !
 ! A217  A(31,69,67)           121.5449         estimate D2E/DX2                !
 ! A218  A(31,69,71)           107.2354         estimate D2E/DX2                !
 ! A219  A(67,69,71)           120.8297         estimate D2E/DX2                !
 ! A220  A(32,70,68)           122.5754         estimate D2E/DX2                !
 ! A221  A(32,70,72)           107.4207         estimate D2E/DX2                !
 ! A222  A(68,70,72)           121.8516         estimate D2E/DX2                !
 ! A223  A(69,71,72)           119.7884         estimate D2E/DX2                !
 ! A224  A(69,71,73)           108.1485         estimate D2E/DX2                !
 ! A225  A(72,71,73)           119.3918         estimate D2E/DX2                !
 ! A226  A(70,72,71)           119.7123         estimate D2E/DX2                !
 ! A227  A(70,72,74)           109.2053         estimate D2E/DX2                !
 ! A228  A(71,72,74)           120.8639         estimate D2E/DX2                !
 ! A229  A(33,73,71)           108.5312         estimate D2E/DX2                !
 ! A230  A(33,73,75)           120.1649         estimate D2E/DX2                !
 ! A231  A(71,73,75)           118.9208         estimate D2E/DX2                !
 ! A232  A(34,74,72)           110.0498         estimate D2E/DX2                !
 ! A233  A(34,74,76)           122.3088         estimate D2E/DX2                !
 ! A234  A(72,74,76)           119.6006         estimate D2E/DX2                !
 ! A235  A(73,75,76)           121.4213         estimate D2E/DX2                !
 ! A236  A(73,75,77)           118.9381         estimate D2E/DX2                !
 ! A237  A(76,75,77)           109.672          estimate D2E/DX2                !
 ! A238  A(74,76,75)           119.6608         estimate D2E/DX2                !
 ! A239  A(74,76,78)           122.4481         estimate D2E/DX2                !
 ! A240  A(75,76,78)           109.6879         estimate D2E/DX2                !
 ! A241  A(37,77,75)           121.8648         estimate D2E/DX2                !
 ! A242  A(37,77,81)           122.9327         estimate D2E/DX2                !
 ! A243  A(75,77,81)           107.3159         estimate D2E/DX2                !
 ! A244  A(38,78,76)           110.5743         estimate D2E/DX2                !
 ! A245  A(38,78,81)           109.4298         estimate D2E/DX2                !
 ! A246  A(38,78,88)           108.6477         estimate D2E/DX2                !
 ! A247  A(76,78,81)           101.4662         estimate D2E/DX2                !
 ! A248  A(76,78,88)           113.3813         estimate D2E/DX2                !
 ! A249  A(81,78,88)           113.1734         estimate D2E/DX2                !
 ! A250  A(39,79,40)           121.0131         estimate D2E/DX2                !
 ! A251  A(39,79,82)           121.7781         estimate D2E/DX2                !
 ! A252  A(40,79,82)           108.2353         estimate D2E/DX2                !
 ! A253  A(41,80,42)           111.4797         estimate D2E/DX2                !
 ! A254  A(41,80,82)           101.5864         estimate D2E/DX2                !
 ! A255  A(41,80,89)           111.3263         estimate D2E/DX2                !
 ! A256  A(42,80,82)           109.6328         estimate D2E/DX2                !
 ! A257  A(42,80,89)           109.572          estimate D2E/DX2                !
 ! A258  A(82,80,89)           113.0591         estimate D2E/DX2                !
 ! A259  A(77,81,78)           111.436          estimate D2E/DX2                !
 ! A260  A(77,81,82)           119.5506         estimate D2E/DX2                !
 ! A261  A(78,81,82)           122.3537         estimate D2E/DX2                !
 ! A262  A(79,82,80)           110.4643         estimate D2E/DX2                !
 ! A263  A(79,82,81)           119.5624         estimate D2E/DX2                !
 ! A264  A(80,82,81)           122.4381         estimate D2E/DX2                !
 ! A265  A(55,83,57)           118.3009         estimate D2E/DX2                !
 ! A266  A(55,83,84)           117.2319         estimate D2E/DX2                !
 ! A267  A(57,83,84)           119.4936         estimate D2E/DX2                !
 ! A268  A(56,84,58)           114.8286         estimate D2E/DX2                !
 ! A269  A(56,84,83)           120.585          estimate D2E/DX2                !
 ! A270  A(58,84,83)           118.7966         estimate D2E/DX2                !
 ! D1    D(17,1,5,9)             0.1571         estimate D2E/DX2                !
 ! D2    D(17,1,5,29)         -152.7283         estimate D2E/DX2                !
 ! D3    D(23,1,5,9)           141.3421         estimate D2E/DX2                !
 ! D4    D(23,1,5,29)          -11.5433         estimate D2E/DX2                !
 ! D5    D(5,1,17,15)           -1.6252         estimate D2E/DX2                !
 ! D6    D(5,1,17,19)          141.0908         estimate D2E/DX2                !
 ! D7    D(23,1,17,15)        -147.8722         estimate D2E/DX2                !
 ! D8    D(23,1,17,19)          -5.1562         estimate D2E/DX2                !
 ! D9    D(5,1,23,21)         -137.2469         estimate D2E/DX2                !
 ! D10   D(5,1,23,25)            8.6719         estimate D2E/DX2                !
 ! D11   D(17,1,23,21)           9.0736         estimate D2E/DX2                !
 ! D12   D(17,1,23,25)         154.9924         estimate D2E/DX2                !
 ! D13   D(43,2,6,10)         -145.2955         estimate D2E/DX2                !
 ! D14   D(43,2,6,15)           -3.0182         estimate D2E/DX2                !
 ! D15   D(44,2,6,10)            0.3246         estimate D2E/DX2                !
 ! D16   D(44,2,6,15)          142.6019         estimate D2E/DX2                !
 ! D17   D(6,2,43,13)            5.5384         estimate D2E/DX2                !
 ! D18   D(6,2,43,39)          154.4715         estimate D2E/DX2                !
 ! D19   D(44,2,43,13)        -139.8592         estimate D2E/DX2                !
 ! D20   D(44,2,43,39)           9.0739         estimate D2E/DX2                !
 ! D21   D(6,2,44,40)         -155.1204         estimate D2E/DX2                !
 ! D22   D(6,2,44,47)           -2.1098         estimate D2E/DX2                !
 ! D23   D(43,2,44,40)         -14.3609         estimate D2E/DX2                !
 ! D24   D(43,2,44,47)         138.6497         estimate D2E/DX2                !
 ! D25   D(18,3,7,12)           27.0889         estimate D2E/DX2                !
 ! D26   D(18,3,7,30)          142.6884         estimate D2E/DX2                !
 ! D27   D(18,3,7,86)          -96.1167         estimate D2E/DX2                !
 ! D28   D(26,3,7,12)         -127.0318         estimate D2E/DX2                !
 ! D29   D(26,3,7,30)          -11.4323         estimate D2E/DX2                !
 ! D30   D(26,3,7,86)          109.7627         estimate D2E/DX2                !
 ! D31   D(7,3,18,16)            5.7976         estimate D2E/DX2                !
 ! D32   D(7,3,18,20)         -154.9128         estimate D2E/DX2                !
 ! D33   D(26,3,18,16)         157.0116         estimate D2E/DX2                !
 ! D34   D(26,3,18,20)          -3.6988         estimate D2E/DX2                !
 ! D35   D(7,3,26,24)          158.6143         estimate D2E/DX2                !
 ! D36   D(7,3,26,28)           12.7797         estimate D2E/DX2                !
 ! D37   D(18,3,26,24)           2.987          estimate D2E/DX2                !
 ! D38   D(18,3,26,28)        -142.8476         estimate D2E/DX2                !
 ! D39   D(45,4,8,11)           -0.8128         estimate D2E/DX2                !
 ! D40   D(45,4,8,16)         -152.1215         estimate D2E/DX2                !
 ! D41   D(46,4,8,11)          143.449          estimate D2E/DX2                !
 ! D42   D(46,4,8,16)           -7.8597         estimate D2E/DX2                !
 ! D43   D(8,4,45,41)          154.5621         estimate D2E/DX2                !
 ! D44   D(8,4,45,48)            1.629          estimate D2E/DX2                !
 ! D45   D(46,4,45,41)          14.5371         estimate D2E/DX2                !
 ! D46   D(46,4,45,48)        -138.396          estimate D2E/DX2                !
 ! D47   D(8,4,46,14)           -0.3525         estimate D2E/DX2                !
 ! D48   D(8,4,46,42)         -154.3568         estimate D2E/DX2                !
 ! D49   D(45,4,46,14)         145.2696         estimate D2E/DX2                !
 ! D50   D(45,4,46,42)          -8.7347         estimate D2E/DX2                !
 ! D51   D(1,5,9,13)             0.9596         estimate D2E/DX2                !
 ! D52   D(1,5,9,35)          -154.5972         estimate D2E/DX2                !
 ! D53   D(29,5,9,13)          153.1194         estimate D2E/DX2                !
 ! D54   D(29,5,9,35)           -2.4374         estimate D2E/DX2                !
 ! D55   D(1,5,29,27)            8.5133         estimate D2E/DX2                !
 ! D56   D(1,5,29,31)          161.3132         estimate D2E/DX2                !
 ! D57   D(9,5,29,27)         -144.3726         estimate D2E/DX2                !
 ! D58   D(9,5,29,31)            8.4273         estimate D2E/DX2                !
 ! D59   D(2,6,10,49)           -0.5367         estimate D2E/DX2                !
 ! D60   D(2,6,10,53)          137.6489         estimate D2E/DX2                !
 ! D61   D(15,6,10,49)        -138.0687         estimate D2E/DX2                !
 ! D62   D(15,6,10,53)           0.1169         estimate D2E/DX2                !
 ! D63   D(2,6,15,13)           -0.5478         estimate D2E/DX2                !
 ! D64   D(2,6,15,17)         -143.0257         estimate D2E/DX2                !
 ! D65   D(10,6,15,13)         141.1494         estimate D2E/DX2                !
 ! D66   D(10,6,15,17)          -1.3285         estimate D2E/DX2                !
 ! D67   D(3,7,12,14)          -31.4968         estimate D2E/DX2                !
 ! D68   D(3,7,12,36)          134.5833         estimate D2E/DX2                !
 ! D69   D(30,7,12,14)        -142.2369         estimate D2E/DX2                !
 ! D70   D(30,7,12,36)          23.8431         estimate D2E/DX2                !
 ! D71   D(86,7,12,14)          92.7046         estimate D2E/DX2                !
 ! D72   D(86,7,12,36)        -101.2154         estimate D2E/DX2                !
 ! D73   D(3,7,30,28)            6.5619         estimate D2E/DX2                !
 ! D74   D(3,7,30,32)         -144.3008         estimate D2E/DX2                !
 ! D75   D(12,7,30,28)         123.1805         estimate D2E/DX2                !
 ! D76   D(12,7,30,32)         -27.6823         estimate D2E/DX2                !
 ! D77   D(86,7,30,28)        -113.6243         estimate D2E/DX2                !
 ! D78   D(86,7,30,32)          95.513          estimate D2E/DX2                !
 ! D79   D(4,8,11,50)            2.9933         estimate D2E/DX2                !
 ! D80   D(4,8,11,54)         -137.0783         estimate D2E/DX2                !
 ! D81   D(16,8,11,50)         150.9988         estimate D2E/DX2                !
 ! D82   D(16,8,11,54)          10.9272         estimate D2E/DX2                !
 ! D83   D(4,8,16,14)           12.0976         estimate D2E/DX2                !
 ! D84   D(4,8,16,18)          129.9442         estimate D2E/DX2                !
 ! D85   D(4,8,16,85)         -105.7161         estimate D2E/DX2                !
 ! D86   D(11,8,16,14)        -137.9326         estimate D2E/DX2                !
 ! D87   D(11,8,16,18)         -20.0861         estimate D2E/DX2                !
 ! D88   D(11,8,16,85)         104.2537         estimate D2E/DX2                !
 ! D89   D(5,9,13,15)           -0.6814         estimate D2E/DX2                !
 ! D90   D(5,9,13,43)         -143.6686         estimate D2E/DX2                !
 ! D91   D(35,9,13,15)         155.7255         estimate D2E/DX2                !
 ! D92   D(35,9,13,43)          12.7382         estimate D2E/DX2                !
 ! D93   D(5,9,35,33)           -8.489          estimate D2E/DX2                !
 ! D94   D(5,9,35,37)          147.4929         estimate D2E/DX2                !
 ! D95   D(13,9,35,33)        -164.1384         estimate D2E/DX2                !
 ! D96   D(13,9,35,37)          -8.1565         estimate D2E/DX2                !
 ! D97   D(6,10,49,47)           2.6257         estimate D2E/DX2                !
 ! D98   D(6,10,49,51)         147.3279         estimate D2E/DX2                !
 ! D99   D(53,10,49,47)       -139.6274         estimate D2E/DX2                !
 ! D100  D(53,10,49,51)          5.0748         estimate D2E/DX2                !
 ! D101  D(6,10,53,19)           0.738          estimate D2E/DX2                !
 ! D102  D(6,10,53,55)        -142.1278         estimate D2E/DX2                !
 ! D103  D(49,10,53,19)        143.399          estimate D2E/DX2                !
 ! D104  D(49,10,53,55)          0.5331         estimate D2E/DX2                !
 ! D105  D(8,11,50,48)          -6.3338         estimate D2E/DX2                !
 ! D106  D(8,11,50,52)        -151.6213         estimate D2E/DX2                !
 ! D107  D(54,11,50,48)        137.7533         estimate D2E/DX2                !
 ! D108  D(54,11,50,52)         -7.5342         estimate D2E/DX2                !
 ! D109  D(8,11,54,20)           2.1459         estimate D2E/DX2                !
 ! D110  D(8,11,54,56)         147.4221         estimate D2E/DX2                !
 ! D111  D(50,11,54,20)       -141.7945         estimate D2E/DX2                !
 ! D112  D(50,11,54,56)          3.4817         estimate D2E/DX2                !
 ! D113  D(7,12,14,16)           6.0104         estimate D2E/DX2                !
 ! D114  D(7,12,14,46)         162.5249         estimate D2E/DX2                !
 ! D115  D(36,12,14,16)       -160.696          estimate D2E/DX2                !
 ! D116  D(36,12,14,46)         -4.1815         estimate D2E/DX2                !
 ! D117  D(7,12,36,34)           7.4611         estimate D2E/DX2                !
 ! D118  D(7,12,36,38)        -163.584          estimate D2E/DX2                !
 ! D119  D(14,12,36,34)        173.1322         estimate D2E/DX2                !
 ! D120  D(14,12,36,38)          2.087          estimate D2E/DX2                !
 ! D121  D(9,13,15,6)         -143.5025         estimate D2E/DX2                !
 ! D122  D(9,13,15,17)          -0.7688         estimate D2E/DX2                !
 ! D123  D(43,13,15,6)           3.943          estimate D2E/DX2                !
 ! D124  D(43,13,15,17)        146.6768         estimate D2E/DX2                !
 ! D125  D(9,13,43,2)          141.9739         estimate D2E/DX2                !
 ! D126  D(9,13,43,39)          -7.3253         estimate D2E/DX2                !
 ! D127  D(15,13,43,2)          -5.8583         estimate D2E/DX2                !
 ! D128  D(15,13,43,39)       -155.1574         estimate D2E/DX2                !
 ! D129  D(12,14,16,8)         146.5283         estimate D2E/DX2                !
 ! D130  D(12,14,16,18)         26.8311         estimate D2E/DX2                !
 ! D131  D(12,14,16,85)        -95.3698         estimate D2E/DX2                !
 ! D132  D(46,14,16,8)         -12.073          estimate D2E/DX2                !
 ! D133  D(46,14,16,18)       -131.7702         estimate D2E/DX2                !
 ! D134  D(46,14,16,85)        106.029          estimate D2E/DX2                !
 ! D135  D(12,14,46,4)        -151.659          estimate D2E/DX2                !
 ! D136  D(12,14,46,42)          3.3234         estimate D2E/DX2                !
 ! D137  D(16,14,46,4)           8.3103         estimate D2E/DX2                !
 ! D138  D(16,14,46,42)        163.2927         estimate D2E/DX2                !
 ! D139  D(6,15,17,1)          140.1894         estimate D2E/DX2                !
 ! D140  D(6,15,17,19)           1.6573         estimate D2E/DX2                !
 ! D141  D(13,15,17,1)           1.8943         estimate D2E/DX2                !
 ! D142  D(13,15,17,19)       -136.6378         estimate D2E/DX2                !
 ! D143  D(8,16,18,3)         -143.3089         estimate D2E/DX2                !
 ! D144  D(8,16,18,20)          17.4057         estimate D2E/DX2                !
 ! D145  D(14,16,18,3)         -31.3469         estimate D2E/DX2                !
 ! D146  D(14,16,18,20)        129.3677         estimate D2E/DX2                !
 ! D147  D(85,16,18,3)          91.5193         estimate D2E/DX2                !
 ! D148  D(85,16,18,20)       -107.7662         estimate D2E/DX2                !
 ! D149  D(1,17,19,21)          -0.6737         estimate D2E/DX2                !
 ! D150  D(1,17,19,53)        -143.3247         estimate D2E/DX2                !
 ! D151  D(15,17,19,21)        141.8499         estimate D2E/DX2                !
 ! D152  D(15,17,19,53)         -0.8011         estimate D2E/DX2                !
 ! D153  D(3,18,20,22)           1.9831         estimate D2E/DX2                !
 ! D154  D(3,18,20,54)         153.6866         estimate D2E/DX2                !
 ! D155  D(16,18,20,22)       -158.0182         estimate D2E/DX2                !
 ! D156  D(16,18,20,54)         -6.3147         estimate D2E/DX2                !
 ! D157  D(17,19,21,23)          6.1477         estimate D2E/DX2                !
 ! D158  D(17,19,21,57)       -137.6837         estimate D2E/DX2                !
 ! D159  D(53,19,21,23)        148.782          estimate D2E/DX2                !
 ! D160  D(53,19,21,57)          4.9506         estimate D2E/DX2                !
 ! D161  D(17,19,53,10)         -0.4079         estimate D2E/DX2                !
 ! D162  D(17,19,53,55)        138.5536         estimate D2E/DX2                !
 ! D163  D(21,19,53,10)       -138.8343         estimate D2E/DX2                !
 ! D164  D(21,19,53,55)          0.1272         estimate D2E/DX2                !
 ! D165  D(18,20,22,24)          0.4468         estimate D2E/DX2                !
 ! D166  D(18,20,22,58)        142.4003         estimate D2E/DX2                !
 ! D167  D(54,20,22,24)       -152.8946         estimate D2E/DX2                !
 ! D168  D(54,20,22,58)        -10.941          estimate D2E/DX2                !
 ! D169  D(18,20,54,11)         -4.3227         estimate D2E/DX2                !
 ! D170  D(18,20,54,56)       -144.7484         estimate D2E/DX2                !
 ! D171  D(22,20,54,11)        148.4135         estimate D2E/DX2                !
 ! D172  D(22,20,54,56)          7.9878         estimate D2E/DX2                !
 ! D173  D(19,21,23,1)          -9.4977         estimate D2E/DX2                !
 ! D174  D(19,21,23,25)       -155.1255         estimate D2E/DX2                !
 ! D175  D(57,21,23,1)         134.7492         estimate D2E/DX2                !
 ! D176  D(57,21,23,25)        -10.8786         estimate D2E/DX2                !
 ! D177  D(19,21,57,59)        150.2447         estimate D2E/DX2                !
 ! D178  D(19,21,57,83)         -5.5602         estimate D2E/DX2                !
 ! D179  D(23,21,57,59)         11.4763         estimate D2E/DX2                !
 ! D180  D(23,21,57,83)       -144.3285         estimate D2E/DX2                !
 ! D181  D(20,22,24,26)         -1.1504         estimate D2E/DX2                !
 ! D182  D(20,22,24,62)        144.6716         estimate D2E/DX2                !
 ! D183  D(58,22,24,26)       -148.2431         estimate D2E/DX2                !
 ! D184  D(58,22,24,62)         -2.4211         estimate D2E/DX2                !
 ! D185  D(20,22,58,60)       -143.9161         estimate D2E/DX2                !
 ! D186  D(20,22,58,84)          3.869          estimate D2E/DX2                !
 ! D187  D(24,22,58,60)          2.197          estimate D2E/DX2                !
 ! D188  D(24,22,58,84)        149.9821         estimate D2E/DX2                !
 ! D189  D(1,23,25,27)          -2.2141         estimate D2E/DX2                !
 ! D190  D(1,23,25,61)        -148.9515         estimate D2E/DX2                !
 ! D191  D(21,23,25,27)        139.7869         estimate D2E/DX2                !
 ! D192  D(21,23,25,61)         -6.9504         estimate D2E/DX2                !
 ! D193  D(22,24,26,3)          -0.5236         estimate D2E/DX2                !
 ! D194  D(22,24,26,28)        142.0475         estimate D2E/DX2                !
 ! D195  D(62,24,26,3)        -142.8591         estimate D2E/DX2                !
 ! D196  D(62,24,26,28)         -0.288          estimate D2E/DX2                !
 ! D197  D(22,24,62,60)          1.6472         estimate D2E/DX2                !
 ! D198  D(22,24,62,64)       -142.1993         estimate D2E/DX2                !
 ! D199  D(26,24,62,60)        147.2022         estimate D2E/DX2                !
 ! D200  D(26,24,62,64)          3.3556         estimate D2E/DX2                !
 ! D201  D(23,25,27,29)         -0.6238         estimate D2E/DX2                !
 ! D202  D(23,25,27,65)       -147.4449         estimate D2E/DX2                !
 ! D203  D(61,25,27,29)        149.3748         estimate D2E/DX2                !
 ! D204  D(61,25,27,65)          2.5537         estimate D2E/DX2                !
 ! D205  D(23,25,61,59)         21.3476         estimate D2E/DX2                !
 ! D206  D(23,25,61,63)        142.5715         estimate D2E/DX2                !
 ! D207  D(23,25,61,90)        -99.7396         estimate D2E/DX2                !
 ! D208  D(27,25,61,59)       -127.8347         estimate D2E/DX2                !
 ! D209  D(27,25,61,63)         -6.6108         estimate D2E/DX2                !
 ! D210  D(27,25,61,90)        111.0781         estimate D2E/DX2                !
 ! D211  D(3,26,28,30)          -8.3879         estimate D2E/DX2                !
 ! D212  D(3,26,28,66)         140.654          estimate D2E/DX2                !
 ! D213  D(24,26,28,30)       -154.4362         estimate D2E/DX2                !
 ! D214  D(24,26,28,66)         -5.3943         estimate D2E/DX2                !
 ! D215  D(25,27,29,5)          -2.6864         estimate D2E/DX2                !
 ! D216  D(25,27,29,31)       -156.4077         estimate D2E/DX2                !
 ! D217  D(65,27,29,5)         139.754          estimate D2E/DX2                !
 ! D218  D(65,27,29,31)        -13.9674         estimate D2E/DX2                !
 ! D219  D(25,27,65,63)          3.1801         estimate D2E/DX2                !
 ! D220  D(25,27,65,67)        155.5735         estimate D2E/DX2                !
 ! D221  D(29,27,65,63)       -143.8474         estimate D2E/DX2                !
 ! D222  D(29,27,65,67)          8.546          estimate D2E/DX2                !
 ! D223  D(26,28,30,7)           0.6371         estimate D2E/DX2                !
 ! D224  D(26,28,30,32)        152.3746         estimate D2E/DX2                !
 ! D225  D(66,28,30,7)        -147.7721         estimate D2E/DX2                !
 ! D226  D(66,28,30,32)          3.9654         estimate D2E/DX2                !
 ! D227  D(26,28,66,64)          7.6642         estimate D2E/DX2                !
 ! D228  D(26,28,66,68)       -147.7165         estimate D2E/DX2                !
 ! D229  D(30,28,66,64)        151.7284         estimate D2E/DX2                !
 ! D230  D(30,28,66,68)         -3.6523         estimate D2E/DX2                !
 ! D231  D(5,29,31,33)          -3.4326         estimate D2E/DX2                !
 ! D232  D(5,29,31,69)        -148.4337         estimate D2E/DX2                !
 ! D233  D(27,29,31,33)        150.499          estimate D2E/DX2                !
 ! D234  D(27,29,31,69)          5.4979         estimate D2E/DX2                !
 ! D235  D(7,30,32,34)          -0.3701         estimate D2E/DX2                !
 ! D236  D(7,30,32,70)         149.1888         estimate D2E/DX2                !
 ! D237  D(28,30,32,34)       -148.9545         estimate D2E/DX2                !
 ! D238  D(28,30,32,70)          0.6044         estimate D2E/DX2                !
 ! D239  D(29,31,33,35)         -8.0365         estimate D2E/DX2                !
 ! D240  D(29,31,33,73)       -155.0463         estimate D2E/DX2                !
 ! D241  D(69,31,33,35)        141.1546         estimate D2E/DX2                !
 ! D242  D(69,31,33,73)         -5.8552         estimate D2E/DX2                !
 ! D243  D(29,31,69,67)          9.2138         estimate D2E/DX2                !
 ! D244  D(29,31,69,71)        154.3051         estimate D2E/DX2                !
 ! D245  D(33,31,69,67)       -139.6125         estimate D2E/DX2                !
 ! D246  D(33,31,69,71)          5.4788         estimate D2E/DX2                !
 ! D247  D(30,32,34,36)         31.9617         estimate D2E/DX2                !
 ! D248  D(30,32,34,74)        148.9056         estimate D2E/DX2                !
 ! D249  D(30,32,34,87)        -89.5322         estimate D2E/DX2                !
 ! D250  D(70,32,34,36)       -119.6138         estimate D2E/DX2                !
 ! D251  D(70,32,34,74)         -2.6699         estimate D2E/DX2                !
 ! D252  D(70,32,34,87)        118.8923         estimate D2E/DX2                !
 ! D253  D(30,32,70,68)         -5.4322         estimate D2E/DX2                !
 ! D254  D(30,32,70,72)       -154.3941         estimate D2E/DX2                !
 ! D255  D(34,32,70,68)        147.3052         estimate D2E/DX2                !
 ! D256  D(34,32,70,72)         -1.6567         estimate D2E/DX2                !
 ! D257  D(31,33,35,9)          13.7532         estimate D2E/DX2                !
 ! D258  D(31,33,35,37)       -143.0298         estimate D2E/DX2                !
 ! D259  D(73,33,35,9)         155.8246         estimate D2E/DX2                !
 ! D260  D(73,33,35,37)         -0.9584         estimate D2E/DX2                !
 ! D261  D(31,33,73,71)          4.0362         estimate D2E/DX2                !
 ! D262  D(31,33,73,75)        145.7338         estimate D2E/DX2                !
 ! D263  D(35,33,73,71)       -142.5376         estimate D2E/DX2                !
 ! D264  D(35,33,73,75)         -0.84           estimate D2E/DX2                !
 ! D265  D(32,34,36,12)        -34.4295         estimate D2E/DX2                !
 ! D266  D(32,34,36,38)        136.5634         estimate D2E/DX2                !
 ! D267  D(74,34,36,12)       -144.9691         estimate D2E/DX2                !
 ! D268  D(74,34,36,38)         26.0238         estimate D2E/DX2                !
 ! D269  D(87,34,36,12)         89.6731         estimate D2E/DX2                !
 ! D270  D(87,34,36,38)        -99.334          estimate D2E/DX2                !
 ! D271  D(32,34,74,72)          6.0985         estimate D2E/DX2                !
 ! D272  D(32,34,74,76)       -142.4333         estimate D2E/DX2                !
 ! D273  D(36,34,74,72)        121.5531         estimate D2E/DX2                !
 ! D274  D(36,34,74,76)        -26.9787         estimate D2E/DX2                !
 ! D275  D(87,34,74,72)       -115.5185         estimate D2E/DX2                !
 ! D276  D(87,34,74,76)         95.9497         estimate D2E/DX2                !
 ! D277  D(9,35,37,39)          -1.7832         estimate D2E/DX2                !
 ! D278  D(9,35,37,77)        -154.5725         estimate D2E/DX2                !
 ! D279  D(33,35,37,39)        154.1977         estimate D2E/DX2                !
 ! D280  D(33,35,37,77)          1.4084         estimate D2E/DX2                !
 ! D281  D(12,36,38,42)          0.9183         estimate D2E/DX2                !
 ! D282  D(12,36,38,78)        171.5514         estimate D2E/DX2                !
 ! D283  D(34,36,38,42)       -169.9185         estimate D2E/DX2                !
 ! D284  D(34,36,38,78)          0.7145         estimate D2E/DX2                !
 ! D285  D(35,37,39,43)          7.4885         estimate D2E/DX2                !
 ! D286  D(35,37,39,79)       -145.6376         estimate D2E/DX2                !
 ! D287  D(77,37,39,43)        161.1677         estimate D2E/DX2                !
 ! D288  D(77,37,39,79)          8.0416         estimate D2E/DX2                !
 ! D289  D(35,37,77,75)         -0.1343         estimate D2E/DX2                !
 ! D290  D(35,37,77,81)        144.9685         estimate D2E/DX2                !
 ! D291  D(39,37,77,75)       -153.7749         estimate D2E/DX2                !
 ! D292  D(39,37,77,81)         -8.6721         estimate D2E/DX2                !
 ! D293  D(36,38,42,46)         -1.8202         estimate D2E/DX2                !
 ! D294  D(36,38,42,80)        164.4425         estimate D2E/DX2                !
 ! D295  D(78,38,42,46)       -172.7198         estimate D2E/DX2                !
 ! D296  D(78,38,42,80)         -6.4572         estimate D2E/DX2                !
 ! D297  D(36,38,78,76)        -26.8752         estimate D2E/DX2                !
 ! D298  D(36,38,78,81)       -137.8258         estimate D2E/DX2                !
 ! D299  D(36,38,78,88)         98.1574         estimate D2E/DX2                !
 ! D300  D(42,38,78,76)        143.9004         estimate D2E/DX2                !
 ! D301  D(42,38,78,81)         32.9499         estimate D2E/DX2                !
 ! D302  D(42,38,78,88)        -91.067          estimate D2E/DX2                !
 ! D303  D(37,39,43,2)        -148.4424         estimate D2E/DX2                !
 ! D304  D(37,39,43,13)         -3.1512         estimate D2E/DX2                !
 ! D305  D(79,39,43,2)           5.6764         estimate D2E/DX2                !
 ! D306  D(79,39,43,13)        150.9676         estimate D2E/DX2                !
 ! D307  D(37,39,79,40)        139.7692         estimate D2E/DX2                !
 ! D308  D(37,39,79,82)         -3.5447         estimate D2E/DX2                !
 ! D309  D(43,39,79,40)        -14.2135         estimate D2E/DX2                !
 ! D310  D(43,39,79,82)       -157.5274         estimate D2E/DX2                !
 ! D311  D(44,40,41,45)         -5.4679         estimate D2E/DX2                !
 ! D312  D(44,40,41,80)       -160.7589         estimate D2E/DX2                !
 ! D313  D(79,40,41,45)        146.7747         estimate D2E/DX2                !
 ! D314  D(79,40,41,80)         -8.5164         estimate D2E/DX2                !
 ! D315  D(41,40,44,2)         154.4787         estimate D2E/DX2                !
 ! D316  D(41,40,44,47)          0.8357         estimate D2E/DX2                !
 ! D317  D(79,40,44,2)           5.7513         estimate D2E/DX2                !
 ! D318  D(79,40,44,47)       -147.8917         estimate D2E/DX2                !
 ! D319  D(41,40,79,39)       -143.5864         estimate D2E/DX2                !
 ! D320  D(41,40,79,82)          4.0882         estimate D2E/DX2                !
 ! D321  D(44,40,79,39)          8.8249         estimate D2E/DX2                !
 ! D322  D(44,40,79,82)        156.4995         estimate D2E/DX2                !
 ! D323  D(40,41,45,4)        -146.7333         estimate D2E/DX2                !
 ! D324  D(40,41,45,48)          6.1798         estimate D2E/DX2                !
 ! D325  D(80,41,45,4)           4.8065         estimate D2E/DX2                !
[...]
 Alpha virt. eigenvalues --    1.23074   1.23346   1.23937   1.24003   1.24438
 Alpha virt. eigenvalues --    1.24682   1.25152   1.25195   1.25420   1.25696
 Alpha virt. eigenvalues --    1.26263   1.26519   1.26785   1.27071   1.27537
 Alpha virt. eigenvalues --    1.27791   1.28082   1.28501   1.28696   1.29022
 Alpha virt. eigenvalues --    1.29142   1.29583   1.30026   1.30186   1.30323
 Alpha virt. eigenvalues --    1.30679   1.31235   1.31620   1.32066   1.32276
 Alpha virt. eigenvalues --    1.32487   1.32595   1.33150   1.33236   1.33661
 Alpha virt. eigenvalues --    1.34067   1.34461   1.34609   1.35376   1.35961
 Alpha virt. eigenvalues --    1.36175   1.36683   1.37216   1.37452   1.37794
 Alpha virt. eigenvalues --    1.38209   1.38730   1.39275   1.39851   1.40572
 Alpha virt. eigenvalues --    1.41152   1.41247   1.42008   1.42371   1.42966
 Alpha virt. eigenvalues --    1.43188   1.43864   1.44628   1.44913   1.45672
 Alpha virt. eigenvalues --    1.46043   1.46608   1.47079   1.47628   1.48015
 Alpha virt. eigenvalues --    1.48148   1.48478   1.49086   1.49914   1.50755
 Alpha virt. eigenvalues --    1.50965   1.51950   1.52198   1.52724   1.53491
 Alpha virt. eigenvalues --    1.53898   1.54395   1.54756   1.54895   1.55348
 Alpha virt. eigenvalues --    1.56192   1.56635   1.57189   1.57770   1.58224
 Alpha virt. eigenvalues --    1.58704   1.58877   1.59353   1.60279   1.61094
 Alpha virt. eigenvalues --    1.61265   1.61436   1.62232   1.62387   1.63149
 Alpha virt. eigenvalues --    1.63323   1.63516   1.64038   1.64508   1.64774
 Alpha virt. eigenvalues --    1.64929   1.65338   1.65670   1.65899   1.65930
 Alpha virt. eigenvalues --    1.66341   1.66425   1.66804   1.66995   1.67107
 Alpha virt. eigenvalues --    1.67470   1.67628   1.67680   1.68360   1.68557
 Alpha virt. eigenvalues --    1.68629   1.68966   1.69366   1.69584   1.69834
 Alpha virt. eigenvalues --    1.70088   1.70367   1.70496   1.70715   1.70833
 Alpha virt. eigenvalues --    1.71072   1.71333   1.71616   1.71771   1.71879
 Alpha virt. eigenvalues --    1.72150   1.72282   1.72392   1.72543   1.72938
 Alpha virt. eigenvalues --    1.73184   1.73424   1.73689   1.73866   1.74539
 Alpha virt. eigenvalues --    1.74676   1.74915   1.75081   1.75299   1.75521
 Alpha virt. eigenvalues --    1.75792   1.75951   1.76361   1.76381   1.77014
 Alpha virt. eigenvalues --    1.77286   1.77391   1.77528   1.77754   1.77961
 Alpha virt. eigenvalues --    1.78353   1.78857   1.78880   1.78990   1.79278
 Alpha virt. eigenvalues --    1.79415   1.80102   1.80416   1.80741   1.80969
 Alpha virt. eigenvalues --    1.81404   1.81536   1.81810   1.82245   1.82781
 Alpha virt. eigenvalues --    1.83107   1.83337   1.84017   1.84310   1.84595
 Alpha virt. eigenvalues --    1.85018   1.85671   1.86346   1.86704   1.86803
 Alpha virt. eigenvalues --    1.87286   1.87373   1.87611   1.88332   1.88679
 Alpha virt. eigenvalues --    1.89060   1.89610   1.90043   1.90353   1.90722
 Alpha virt. eigenvalues --    1.91066   1.91327   1.91586   1.92442   1.92729
 Alpha virt. eigenvalues --    1.93039   1.93315   1.93612   1.94362   1.94557
 Alpha virt. eigenvalues --    1.94828   1.95033   1.95666   1.95803   1.95914
 Alpha virt. eigenvalues --    1.96283   1.96476   1.97151   1.97334   1.97689
 Alpha virt. eigenvalues --    1.98062   1.98260   1.98412   1.98908   1.99087
 Alpha virt. eigenvalues --    1.99295   1.99607   1.99720   2.00004   2.00299
 Alpha virt. eigenvalues --    2.00487   2.00665   2.00912   2.01283   2.01449
 Alpha virt. eigenvalues --    2.01680   2.01944   2.02170   2.02388   2.02905
 Alpha virt. eigenvalues --    2.03065   2.03226   2.03390   2.03877   2.04318
 Alpha virt. eigenvalues --    2.04707   2.04791   2.05369   2.05534   2.05900
 Alpha virt. eigenvalues --    2.06167   2.06273   2.06770   2.07054   2.07347
 Alpha virt. eigenvalues --    2.07622   2.08217   2.08479   2.08820   2.09334
 Alpha virt. eigenvalues --    2.09893   2.10545   2.11293   2.11503   2.11919
 Alpha virt. eigenvalues --    2.11969   2.12215   2.13001   2.13064   2.13589
 Alpha virt. eigenvalues --    2.13771   2.14004   2.15164   2.15562   2.16001
 Alpha virt. eigenvalues --    2.16324   2.16556   2.16996   2.17702   2.18211
 Alpha virt. eigenvalues --    2.18401   2.18947   2.19092   2.19401   2.20150
 Alpha virt. eigenvalues --    2.20536   2.20592   2.21192   2.21812   2.22214
 Alpha virt. eigenvalues --    2.22555   2.22798   2.23219   2.24112   2.24266
 Alpha virt. eigenvalues --    2.24755   2.25258   2.25410   2.25670   2.25868
 Alpha virt. eigenvalues --    2.26351   2.26526   2.26856   2.27155   2.27670
 Alpha virt. eigenvalues --    2.28097   2.28326   2.28769   2.29296   2.29879
 Alpha virt. eigenvalues --    2.30208   2.30462   2.31083   2.31342   2.31707
 Alpha virt. eigenvalues --    2.31992   2.32369   2.33209   2.33662   2.34235
 Alpha virt. eigenvalues --    2.34777   2.34832   2.35739   2.36041   2.37487
 Alpha virt. eigenvalues --    2.37807   2.38609   2.39087   2.39601   2.40309
 Alpha virt. eigenvalues --    2.40493   2.41036   2.41625   2.42023   2.42410
 Alpha virt. eigenvalues --    2.42617   2.43317   2.43908   2.44060   2.44525
 Alpha virt. eigenvalues --    2.45285   2.45692   2.47006   2.47192   2.47976
 Alpha virt. eigenvalues --    2.48367   2.48813   2.49458   2.50033   2.50358
 Alpha virt. eigenvalues --    2.50572   2.51676   2.51965   2.52262   2.52622
 Alpha virt. eigenvalues --    2.53165   2.53351   2.53481   2.53898   2.54401
 Alpha virt. eigenvalues --    2.54769   2.55161   2.55438   2.55783   2.55973
 Alpha virt. eigenvalues --    2.56262   2.56416   2.56873   2.57295   2.57559
 Alpha virt. eigenvalues --    2.57647   2.58144   2.59077   2.59236   2.59331
 Alpha virt. eigenvalues --    2.59515   2.59655   2.60041   2.60456   2.60823
 Alpha virt. eigenvalues --    2.61146   2.61737   2.62009   2.62354   2.62893
 Alpha virt. eigenvalues --    2.63196   2.63709   2.63938   2.64286   2.64468
 Alpha virt. eigenvalues --    2.64712   2.65268   2.65329   2.65777   2.65857
 Alpha virt. eigenvalues --    2.66150   2.66597   2.66768   2.66950   2.67527
 Alpha virt. eigenvalues --    2.67859   2.67938   2.68606   2.68945   2.69163
 Alpha virt. eigenvalues --    2.69787   2.70025   2.70702   2.70977   2.71147
 Alpha virt. eigenvalues --    2.72380   2.72820   2.73246   2.73537   2.73699
 Alpha virt. eigenvalues --    2.74388   2.74709   2.75044   2.75720   2.75894
 Alpha virt. eigenvalues --    2.76096   2.76538   2.77329   2.77712   2.77911
 Alpha virt. eigenvalues --    2.78579   2.78942   2.79314   2.79884   2.80077
 Alpha virt. eigenvalues --    2.80669   2.80789   2.81268   2.81560   2.82253
 Alpha virt. eigenvalues --    2.82346   2.83310   2.83537   2.83844   2.84224
 Alpha virt. eigenvalues --    2.84822   2.85136   2.85166   2.85632   2.86489
 Alpha virt. eigenvalues --    2.87212   2.87815   2.88317   2.88808   2.89314
 Alpha virt. eigenvalues --    2.90008   2.90577   2.90706   2.90821   2.91099
 Alpha virt. eigenvalues --    2.91666   2.91868   2.92344   2.92536   2.93001
 Alpha virt. eigenvalues --    2.93352   2.94006   2.95169   2.95721   2.96516
 Alpha virt. eigenvalues --    2.96800   2.97160   2.97354   2.98679   2.99395
 Alpha virt. eigenvalues --    3.00730   3.01544   3.02120   3.03600   3.04923
 Alpha virt. eigenvalues --    3.05071   3.07042   3.08078   3.08536   3.10437
 Alpha virt. eigenvalues --    3.11909   3.14397   3.14497   3.14983   3.16418
 Alpha virt. eigenvalues --    3.17634   3.19542   3.21189   3.22145   3.23680
 Alpha virt. eigenvalues --    3.24592   3.26970   3.28520   3.30123   3.32938
 Alpha virt. eigenvalues --    3.33575   3.34274   3.35467   3.37643   3.38465
 Alpha virt. eigenvalues --    3.39195   3.42806   3.43762   3.45348   3.46865
 Alpha virt. eigenvalues --    3.50007   3.51180   3.52267   3.53555   3.56832
 Alpha virt. eigenvalues --    3.59096   4.00916   4.01468   4.01834   4.02001
 Alpha virt. eigenvalues --    4.03422   4.03872   4.04493   4.04635   4.05497
 Alpha virt. eigenvalues --    4.05733   4.06340   4.06843   4.07537   4.07872
 Alpha virt. eigenvalues --    4.08517   4.09512   4.10076   4.10469   4.11664
 Alpha virt. eigenvalues --    4.12305   4.12916   4.13184   4.13859   4.15695
 Alpha virt. eigenvalues --    4.16631   4.18060   4.18766   4.19147   4.20144
 Alpha virt. eigenvalues --    4.20635   4.20992   4.21756   4.22053   4.22704
 Alpha virt. eigenvalues --    4.23808   4.24078   4.26725   4.27212   4.27794
 Alpha virt. eigenvalues --    4.28397   4.28480   4.29308   4.29597   4.30163
 Alpha virt. eigenvalues --    4.31370   4.32908   4.33871   4.35752   4.36188
 Alpha virt. eigenvalues --    4.37849   4.39895   4.40312   4.40985   4.41381
 Alpha virt. eigenvalues --    4.44023   4.44908   4.45951   4.47944   4.49171
 Alpha virt. eigenvalues --    4.50042   4.52209   4.53154   4.54846   4.55533
 Alpha virt. eigenvalues --    4.57281   4.58835   4.59494   4.62132   4.63966
 Alpha virt. eigenvalues --    4.65251   4.66433   4.67772   4.69190   4.71854
 Alpha virt. eigenvalues --    4.76998   4.80886   4.82192   4.84157   4.85257
 Alpha virt. eigenvalues --    4.87586   4.91190   4.92150   4.94915   5.04285
 Alpha virt. eigenvalues --    5.05385   5.06864   5.14993   5.15743   5.21097
 Alpha virt. eigenvalues --    5.22027
          Condensed to atoms (all electrons):
 Mulliken charges:
               1
     1  C   -0.025092
     2  C   -0.020801
     3  C    0.077658
     4  C   -0.005866
     5  C    0.043651
     6  C   -0.013408
     7  C   -0.379316
     8  C    0.072683
     9  C    0.036160
    10  C    0.009199
    11  C    0.002515
    12  C    0.153520
    13  C   -0.024306
    14  C    0.081649
    15  C   -0.005473
    16  C   -0.367770
    17  C    0.000201
    18  C    0.121701
    19  C   -0.001733
    20  C    0.084376
    21  C   -0.041109
    22  C   -0.022852
    23  C    0.009824
    24  C   -0.016924
    25  C    0.075190
    26  C    0.021498
    27  C    0.012418
    28  C    0.007889
    29  C    0.044167
    30  C    0.092089
    31  C   -0.031474
    32  C    0.087881
    33  C   -0.028996
    34  C   -0.372070
    35  C    0.042829
    36  C    0.114835
    37  C    0.039386
    38  C    0.125333
    39  C    0.041507
    40  C    0.010972
    41  C    0.045737
    42  C    0.125481
    43  C   -0.031515
    44  C    0.050979
    45  C    0.057841
    46  C    0.038382
    47  C    0.040735
    48  C    0.043291
    49  C   -0.022504
    50  C   -0.020500
    51  C   -0.006837
    52  C   -0.017440
    53  C    0.000998
    54  C   -0.045341
    55  C   -0.019960
    56  C   -0.012147
    57  C    0.075842
    58  C   -0.034363
    59  C    0.101573
    60  C    0.005499
    61  C   -0.356180
    62  C   -0.036208
    63  C    0.049116
    64  C    0.069248
    65  C    0.011333
    66  C    0.037018
    67  C    0.051177
    68  C    0.032684
    69  C   -0.019973
    70  C    0.004913
    71  C   -0.022237
    72  C    0.032367
    73  C   -0.020532
    74  C    0.091091
    75  C    0.027835
    76  C    0.091108
    77  C    0.001005
    78  C   -0.376056
    79  C    0.007542
    80  C   -0.370180
    81  C    0.090192
    82  C    0.089517
    83  C    0.038508
    84  C    0.056072
    85  Cl  -0.010016
    86  Cl   0.009300
    87  Cl   0.003889
    88  Cl   0.005929
    89  Cl  -0.003583
    90  Cl  -0.012571
 Sum of Mulliken charges =  -0.00000
 Mulliken charges with hydrogens summed into heavy atoms:
               1
     1  C   -0.025092
     2  C   -0.020801
     3  C    0.077658
     4  C   -0.005866
     5  C    0.043651
     6  C   -0.013408
     7  C   -0.379316
     8  C    0.072683
     9  C    0.036160
    10  C    0.009199
    11  C    0.002515
    12  C    0.153520
    13  C   -0.024306
    14  C    0.081649
    15  C   -0.005473
    16  C   -0.367770
    17  C    0.000201
    18  C    0.121701
    19  C   -0.001733
    20  C    0.084376
    21  C   -0.041109
    22  C   -0.022852
    23  C    0.009824
    24  C   -0.016924
    25  C    0.075190
    26  C    0.021498
    27  C    0.012418
    28  C    0.007889
    29  C    0.044167
    30  C    0.092089
    31  C   -0.031474
    32  C    0.087881
    33  C   -0.028996
    34  C   -0.372070
    35  C    0.042829
    36  C    0.114835
    37  C    0.039386
    38  C    0.125333
    39  C    0.041507
    40  C    0.010972
    41  C    0.045737
    42  C    0.125481
    43  C   -0.031515
    44  C    0.050979
    45  C    0.057841
    46  C    0.038382
    47  C    0.040735
    48  C    0.043291
    49  C   -0.022504
    50  C   -0.020500
    51  C   -0.006837
    52  C   -0.017440
    53  C    0.000998
    54  C   -0.045341
    55  C   -0.019960
    56  C   -0.012147
    57  C    0.075842
    58  C   -0.034363
    59  C    0.101573
    60  C    0.005499
    61  C   -0.356180
    62  C   -0.036208
    63  C    0.049116
    64  C    0.069248
    65  C    0.011333
    66  C    0.037018
    67  C    0.051177
    68  C    0.032684
    69  C   -0.019973
    70  C    0.004913
    71  C   -0.022237
    72  C    0.032367
    73  C   -0.020532
    74  C    0.091091
    75  C    0.027835
    76  C    0.091108
    77  C    0.001005
    78  C   -0.376056
    79  C    0.007542
    80  C   -0.370180
    81  C    0.090192
    82  C    0.089517
    83  C    0.038508
    84  C    0.056072
    85  Cl  -0.010016
    86  Cl   0.009300
    87  Cl   0.003889
    88  Cl   0.005929
    89  Cl  -0.003583
    90  Cl  -0.012571
 Electronic spatial extent (au):  <R**2>=          46934.4614
 Charge=              0.0000 electrons
 Dipole moment (field-independent basis, Debye):
    X=              5.5546    Y=              1.9080    Z=             -1.1572  Tot=              5.9860
 Quadrupole moment (field-independent basis, Debye-Ang):
   XX=           -564.8189   YY=           -537.7094   ZZ=           -533.0880
   XY=              4.9240   XZ=              5.7355   YZ=              2.5131
 Traceless Quadrupole moment (field-independent basis, Debye-Ang):
   XX=            -19.6134   YY=              7.4960   ZZ=             12.1174
   XY=              4.9240   XZ=              5.7355   YZ=              2.5131
 Octapole moment (field-independent basis, Debye-Ang**2):
  XXX=            -12.2518  YYY=            -19.3938  ZZZ=            -28.9513  XYY=              0.8771
  XXY=             32.9235  XXZ=             25.1068  XZZ=              0.7118  YZZ=              1.9557
  YYZ=             -8.0024  XYZ=            -13.8766
 Hexadecapole moment (field-independent basis, Debye-Ang**3):
 XXXX=         -28543.4195 YYYY=         -20397.9373 ZZZZ=         -19301.1789 XXXY=            146.4981
 XXXZ=            -40.2377 YYYX=            -10.3019 YYYZ=            -14.7425 ZZZX=              1.3729
 ZZZY=             59.0189 XXYY=          -8344.7349 XXZZ=          -7987.6262 YYZZ=          -6607.6940
 XXYZ=            -31.3460 YYXZ=             52.0824 ZZXY=            -55.1366
 N-N= 1.877842362118D+04 E-N=-5.152058291971D+04  KE= 5.923795217159D+03
 No NMR shielding tensors so no spin-rotation constants.
 Leave Link  601 at Thu Jun 30 02:49:26 2022, MaxMem=  1342177280 cpu:              24.8 elap:               1.3
 (Enter /home/mkliu/g16/l9999.exe)
 1\1\GINC-NODE02\FOpt\RB3LYP\6-31G(d,p)\C84Cl6\MKLIU\30-Jun-2022\0\\#P 
 opt b3lyp/6-31G(d, p) empiricaldispersion=GD3\\force\\0,1\C,8.51438172
 17,18.8319298747,10.776007182\C,12.4013410868,20.1371039955,8.96636170
 89\C,8.2836368824,26.873177775,10.5517691383\C,12.2865542036,25.560534
 8793,9.0013447576\C,8.0311047324,19.0490102655,9.4531743449\C,12.08466
 26912,19.4953944112,10.2036647442\C,7.8821301651,27.1229064885,9.09220
 94837\C,11.8948675266,26.1494383152,10.2103659114\C,8.9939601411,19.14
 44809433,8.3548722194\C,12.3615651119,20.147011966,11.3988526085\C,12.
 1530865548,25.4960728814,11.4009179346\C,8.9589837504,26.6264862027,8.
 1366390382\C,10.3773498814,19.0001802554,8.6739333194\C,10.2620688881,
 26.6708197053,8.6018533161\C,10.8321803868,18.7863832369,10.0280690634
 \C,10.6861301961,27.0490378371,10.0203120254\C,9.9165942202,18.7272175
 158,11.0579016859\C,9.5774643847,26.7726477132,11.0151298628\C,10.1911
 345532,19.406096269,12.3199136168\C,9.8554730552,26.0268155484,12.2345
 909233\C,8.9686838591,19.9559182201,12.8048926762\C,8.7764959706,25.38
 5413727,12.8971409743\C,7.9119876942,19.4790139946,11.9101561989\C,7.4
 416878657,25.4639369825,12.3641849405\C,6.7451845845,20.1884572069,11.
 7580352973\C,7.2085181083,26.1949145212,11.2067755494\C,6.1709158404,2
 0.3194344545,10.489646659\C,6.2716866178,25.7184844376,10.2348797133\C
 ,6.7638485053,19.7408050003,9.3310127153\C,6.6393180429,26.2648958313,
 8.9706846031\C,6.413893957,20.3291736549,8.0996196909\C,6.3264131108,2
 5.5998633365,7.829965794\C,7.3116201737,20.3260570676,6.9968373768\C,7
 .193320348,25.6594999664,6.5809234999\C,8.6553125751,19.875983527,7.14
 940817\C,8.6600779875,25.8506946235,6.9806406419\C,9.6956069404,20.582
 8121959,6.4022624641\C,9.6835011068,25.1027160865,6.3480549152\C,11.05
 12442175,20.5747063035,6.8995677647\C,12.7617088151,22.1860762514,7.75
 68294205\C,12.7958860622,23.5730899279,7.745274494\C,10.993934235,25.1
 132449504,6.8807461055\C,11.3767184311,19.7568803284,8.002023348\C,12.
 992308922,21.421364892,8.9450509139\C,12.9579807519,24.309442418,8.946
 2315748\C,11.263287881,25.8925539057,8.0019477927\C,13.2624969282,22.1
 317222239,10.1854242611\C,13.2198831024,23.5937668894,10.1852096264\C,
 12.9764575981,21.441365634,11.3992217673\C,12.8677880298,24.2572560068
 ,11.392851668\C,12.4574982835,22.1488433625,12.5468992732\C,12.4072024
 383,23.5157537496,12.5396142373\C,11.3822402879,20.1061025676,12.48039
 2687\C,11.1358860769,25.4425166484,12.4468937234\C,11.3802688261,21.37
 03228528,13.1395297703\C,11.2812558147,24.2038364171,13.1292729846\C,8
 .9157640273,21.2610648034,13.3666641824\C,8.9168945687,24.1141815998,1
 3.530929687\C,7.6795416022,22.0091429148,13.2318795866\C,7.6836303059,
 23.3803582836,13.3316641376\C,6.4301516438,21.390124187,12.6185014288\
 C,6.7535905725,24.243752984,12.5931073061\C,5.7311377859,22.3092807812
 ,11.6112990085\C,5.8679021784,23.7187158643,11.621645082\C,5.509806771
 8,21.6214230919,10.4273867997\C,5.6449435258,24.4494294169,10.37398378
 6\C,5.2763858092,22.2820645383,9.1791896199\C,5.3223820507,23.73409527
 2,9.1569133236\C,5.5994864615,21.540776695,8.0239959187\C,5.6228077276
 ,24.3605101126,7.909304726\C,5.925168118,22.1976786826,6.7978359147\C,
 5.9460105741,23.5920717644,6.7451684755\C,6.9742141697,21.4544336437,6
 .1610779144\C,6.9541335351,24.2850389175,5.989465102\C,7.9683835719,22
 .1424561669,5.4882653711\C,7.9415827333,23.5738571188,5.3717026408\C,9
 .3292686743,21.6961641962,5.5886584261\C,9.3547125841,24.0997670473,5.
 2325044998\C,11.8679112023,21.7209465529,6.7051150449\C,12.0559866545,
 24.0979361556,6.5107391522\C,10.1746544158,22.8261648344,5.4135243287\
 C,11.423940895,22.8352385999,5.9725561169\C,10.1748106346,21.992720667
 4,13.5523232209\C,10.155244053,23.4530055426,13.6013039515\Cl,11.19514
 49853,28.8342083937,10.1090913492\Cl,7.5218381253,28.9071660446,8.7957
 348372\Cl,6.67134458,27.0063305846,5.4309820221\Cl,9.647751267,24.8893
 468523,3.5915117166\Cl,13.2515067885,24.843919717,5.3066966768\Cl,5.26
 20185541,20.9222172588,13.9912239889\\Version=ES64L-G16RevA.03\State=1
 -A\HF=-5962.2122718\RMSD=9.808e-09\RMSF=1.772e-05\Dipole=-0.0507799,-2
 .143074,0.9752422\Quadrupole=7.9003069,-4.0129288,-3.8873781,-4.418021
 6,6.7602562,9.2450232\PG=C01 [X(C84Cl6)]\\@


 ALL SCIENCE IS EITHER PHYSICS, OR STAMP COLLECTING.
   --ERNEST RUTHERFORD, 1871-1937.
 Job cpu time:       1 days  9 hours  5 minutes 45.6 seconds.
 Elapsed time:       0 days  1 hours 22 minutes 51.8 seconds.
 File lengths (MBytes):  RWF=   1161 Int=      0 D2E=      0 Chk=    146 Scr=      1
 Normal termination of Gaussian 16 at Thu Jun 30 02:49:28 2022.
