 Entering Gaussian System, Link 0=g16
 Input=6_addons_C84_11_Cl22_rank_4.gjf
 Output=6_addons_C84_11_Cl22_rank_4.log
 Initial command:
 /home/mkliu/g16/l1.exe "/data/scratch/Gau-73278.inp" -scrdir="/data/scratch/"
 Entering Link 1 = /home/mkliu/g16/l1.exe PID=     73279.
  
 Copyright (c) 1988,1990,1992,1993,1995,1998,2003,2009,2016,
            Gaussian, Inc.  All Rights Reserved.
  
 This is part of the Gaussian(R) 16 program.  It is based on
 the Gaussian(R) 09 system (copyright 2009, Gaussian, Inc.),
 the Gaussian(R) 03 system (copyright 2003, Gaussian, Inc.),
 the Gaussian(R) 98 system (copyright 1998, Gaussian, Inc.),
 the Gaussian(R) 94 system (copyright 1995, Gaussian, Inc.),
 the Gaussian 92(TM) system (copyright 1992, Gaussian, Inc.),
 the Gaussian 90(TM) system (copyright 1990, Gaussian, Inc.),
 the Gaussian 88(TM) system (copyright 1988, Gaussian, Inc.),
 the Gaussian 86(TM) system (copyright 1986, Carnegie Mellon
 University), and the Gaussian 82(TM) system (copyright 1983,
 Carnegie Mellon University). Gaussian is a federally registered
 trademark of Gaussian, Inc.
  
 This software contains proprietary and confidential information,
 including trade secrets, belonging to Gaussian, Inc.
  
 This software is provided under written license and may be
 used, copied, transmitted, or stored only in accord with that
 written license.
  
 The following legend is applicable only to US Government
 contracts under FAR:
  
                    RESTRICTED RIGHTS LEGEND
  
 Use, reproduction and disclosure by the US Government is
 subject to restrictions as set forth in subparagraphs (a)
 and (c) of the Commercial Computer Software - Restricted
 Rights clause in FAR 52.227-19.
  
 Gaussian, Inc.
 340 Quinnipiac St., Bldg. 40, Wallingford CT 06492
  
  
 ---------------------------------------------------------------
 Warning -- This program may not be used in any manner that
 competes with the business of Gaussian, Inc. or will provide
 assistance to any competitor of Gaussian, Inc.  The licensee
 of this program is prohibited from giving any competitor of
 Gaussian, Inc. access to this program.  By using this program,
 the user acknowledges that Gaussian, Inc. is engaged in the
 business of creating and licensing software in the field of
 computational chemistry and represents and warrants to the
 licensee that it is not a competitor of Gaussian, Inc. and that
 it will not use this program in any manner prohibited above.
 ---------------------------------------------------------------
  

 Cite this work as:
 Gaussian 16, Revision A.03,
 M. J. Frisch, G. W. Trucks, H. B. Schlegel, G. E. Scuseria, 
 M. A. Robb, J. R. Cheeseman, G. Scalmani, V. Barone, 
 G. A. Petersson, H. Nakatsuji, X. Li, M. Caricato, A. V. Marenich, 
 J. Bloino, B. G. Janesko, R. Gomperts, B. Mennucci, H. P. Hratchian, 
 J. V. Ortiz, A. F. Izmaylov, J. L. Sonnenberg, D. Williams-Young, 
 F. Ding, F. Lipparini, F. Egidi, J. Goings, B. Peng, A. Petrone, 
 T. Henderson, D. Ranasinghe, V. G. Zakrzewski, J. Gao, N. Rega, 
 G. Zheng, W. Liang, M. Hada, M. Ehara, K. Toyota, R. Fukuda, 
 J. Hasegawa, M. Ishida, T. Nakajima, Y. Honda, O. Kitao, H. Nakai, 
 T. Vreven, K. Throssell, J. A. Montgomery, Jr., J. E. Peralta, 
 F. Ogliaro, M. J. Bearpark, J. J. Heyd, E. N. Brothers, K. N. Kudin, 
 V. N. Staroverov, T. A. Keith, R. Kobayashi, J. Normand, 
 K. Raghavachari, A. P. Rendell, J. C. Burant, S. S. Iyengar, 
 J. Tomasi, M. Cossi, J. M. Millam, M. Klene, C. Adamo, R. Cammi, 
 J. W. Ochterski, R. L. Martin, K. Morokuma, O. Farkas, 
 J. B. Foresman, and D. J. Fox, Gaussian, Inc., Wallingford CT, 2016.
 
 ******************************************
 Gaussian 16:  ES64L-G16RevA.03 25-Dec-2016
                29-Jun-2022 
 ******************************************
 %mem=10GB
 %chk=6_addons_C84_11_Cl22_rank_4.chk
 %nprocshared=24
 Will use up to   24 processors via shared memory.
 ------------------------------------------------
 #P opt b3lyp/6-31G(d, p) empiricaldispersion=GD3
 ------------------------------------------------
 1/18=20,19=15,26=3,38=1/1,3;
 2/9=110,12=2,17=6,18=5,40=1/2;
 3/5=1,6=6,7=101,11=2,25=1,30=1,71=1,74=-5,124=31/1,2,3;
 4//1;
 5/5=2,38=5/2;
 6/7=2,8=2,9=2,10=2,28=1/1;
 7//1,2,3,16;
 1/18=20,19=15,26=3/3(2);
 2/9=110/2;
 99//99;
 2/9=110/2;
 3/5=1,6=6,7=101,11=2,25=1,30=1,71=1,74=-5,124=31/1,2,3;
 4/5=5,16=3,69=1/1;
 5/5=2,38=5/2;
 7//1,2,3,16;
 1/18=20,19=15,26=3/3(-5);
 2/9=110/2;
 6/7=2,8=2,9=2,10=2,19=2,28=1/1;
 99/9=1/99;
 Leave Link    1 at Wed Jun 29 04:53:01 2022, MaxMem=  1342177280 cpu:               0.6 elap:               0.1
 (Enter /home/mkliu/g16/l101.exe)
 -----
 force
 -----
 Symbolic Z-matrix:
 Charge =  0 Multiplicity = 1
 C                     8.53206   18.9167   10.73639 
 C                     12.37949   20.16095   8.91311 
 C                     8.20743   27.11598   10.56705 
 C                     12.24877   25.5662   8.94438 
 C                     8.0578    19.12219   9.41856 
 C                     12.05092   19.52377   10.14955 
 C                     7.94959   26.8743   9.09079 
 C                     11.80293   26.11486   10.18219 
 C                     9.00531   19.20393   8.32839 
 C                     12.29828   20.17125   11.34649 
 C                     12.05856   25.452    11.36333 
 C                     8.9405    26.67306   8.11197 
 C                     10.36686   19.04004   8.63699 
 C                     10.26914   26.71238   8.57545 
 C                     10.82461   18.82114   9.9768 
 C                     10.56311   26.77516   9.99327 
 C                     9.92216   18.7832   11.02188 
 C                     9.59652   26.73466   10.98934 
 C                     10.21384   19.3924   12.27882 
 C                     9.85975   26.03741   12.19403 
 C                     8.93663   19.81265   12.94798 
 C                     8.74393   25.56364   13.08242 
 C                     7.92062   19.50097   11.87482 
 C                     7.42975   25.51443   12.35139 
 C                     6.77188   20.21928   11.72884 
 C                     7.17011   26.23321   11.21431 
 C                     6.20471   20.36176   10.45016 
 C                     6.28604   25.71786   10.24717 
 C                     6.80205   19.79966   9.30513 
 C                     6.71689   26.22566   8.97372 
 C                     6.45198   20.39083   8.08009 
 C                     6.3761    25.55547   7.81357 
 C                     7.35214   20.37356   6.97282 
 C                     7.31843   25.47415   6.73743 
 C                     8.67825   19.92316   7.11767 
 C                     8.64518   25.90643   6.91214 
 C                     9.70974   20.60309   6.358 
 C                     9.69777   25.15553   6.25462 
 C                     11.06746   20.59362   6.8542 
 C                     12.76545   22.17803   7.71256 
 C                     12.74628   23.6003   7.71459 
 C                     11.03433   25.16571   6.81268 
 C                     11.37653   19.78925   7.96177 
 C                     12.97214   21.43887   8.89455 
 C                     12.89983   24.31956   8.91487 
 C                     11.29236   25.96097   7.95298 
 C                     13.19044   22.15262   10.1342 
 C                     13.14387   23.58842   10.14372 
 C                     12.88564   21.47713   11.33768 
 C                     12.78531   24.21609   11.3532 
 C                     12.43673   22.14737   12.50229 
 C                     12.39511   23.50424   12.51087 
 C                     11.38019   20.07794   12.43651 
 C                     11.09383   25.44074   12.3931 
 C                     11.48273   21.30021   13.30364 
 C                     11.37873   24.26926   13.31202 
 C                     8.94089   21.31124   13.21797 
 C                     8.93703   24.09921   13.41214 
 C                     7.73369   22.01513   13.09462 
 C                     7.74717   23.39875   13.18852 
 C                     6.45642   21.4114   12.57772 
 C                     6.80252   24.2705   12.51832 
 C                     5.78092   22.32571   11.57577 
 C                     5.91082   23.72848   11.56877 
 C                     5.54743   21.64359   10.38937 
 C                     5.66741   24.44943   10.34955 
 C                     5.30578   22.3067   9.15819 
 C                     5.33343   23.74162   9.13699 
 C                     5.63687   21.56515   8.00406 
 C                     5.60937   24.36062   7.88894 
 C                     5.95057   22.21894   6.77645 
 C                     5.93605   23.59815   6.72124 
 C                     7.00144   21.47443   6.12932 
 C                     6.9825    24.29184   6.00649 
 C                     7.98758   22.13826   5.43504 
 C                     7.98349   23.58018   5.38228 
 C                     9.33975   21.68767   5.53717 
 C                     9.33525   24.036    5.47679 
 C                     11.89687   21.71804   6.67527 
 C                     11.875    24.04795   6.66946 
 C                     10.16365   22.86007   5.42782 
 C                     11.41035   22.87502   6.00043 
 C                     10.14433   22.0157   13.39632 
 C                     10.13854   23.42532   13.4737 
 Cl                    7.94205   28.86421   10.97598 
 Cl                    8.6528    26.56985   14.57891 
 Cl                    11.98446   24.801    14.92309 
 Cl                    12.06928   20.94268   14.97073 
 Cl                    8.61695   18.9492   14.49713 
 Cl                    5.3622    21.02653   13.96494 
 
 ITRead=  0  0  0  0  0  0  0  0  0  0  0  0  0  0  0  0  0  0  0  0
 ITRead=  0  0  0  0  0  0  0  0  0  0  0  0  0  0  0  0  0  0  0  0
 ITRead=  0  0  0  0  0  0  0  0  0  0  0  0  0  0  0  0  0  0  0  0
 ITRead=  0  0  0  0  0  0  0  0  0  0  0  0  0  0  0  0  0  0  0  0
 ITRead=  0  0  0  0  0  0  0  0  0  0
 MicOpt= -1 -1 -1 -1 -1 -1 -1 -1 -1 -1 -1 -1 -1 -1 -1 -1 -1 -1 -1 -1
 MicOpt= -1 -1 -1 -1 -1 -1 -1 -1 -1 -1 -1 -1 -1 -1 -1 -1 -1 -1 -1 -1
 MicOpt= -1 -1 -1 -1 -1 -1 -1 -1 -1 -1 -1 -1 -1 -1 -1 -1 -1 -1 -1 -1
 MicOpt= -1 -1 -1 -1 -1 -1 -1 -1 -1 -1 -1 -1 -1 -1 -1 -1 -1 -1 -1 -1
 MicOpt= -1 -1 -1 -1 -1 -1 -1 -1 -1 -1
 NAtoms=     90 NQM=       90 NQMF=       0 NMMI=      0 NMMIF=      0
                NMic=       0 NMicF=      0.
                    Isotopes and Nuclear Properties:
 (Nuclear quadrupole moments (NQMom) in fm**2, nuclear magnetic moments (NMagM)
  in nuclear magnetons)

  Atom         1           2           3           4           5           6           7           8           9          10
 IAtWgt=          12          12          12          12          12          12          12          12          12          12
 AtmWgt=  12.0000000  12.0000000  12.0000000  12.0000000  12.0000000  12.0000000  12.0000000  12.0000000  12.0000000  12.0000000
 NucSpn=           0           0           0           0           0           0           0           0           0           0
 AtZEff=  -0.0000000  -0.0000000  -0.0000000  -0.0000000  -0.0000000  -0.0000000  -0.0000000  -0.0000000  -0.0000000  -0.0000000
 NQMom=    0.0000000   0.0000000   0.0000000   0.0000000   0.0000000   0.0000000   0.0000000   0.0000000   0.0000000   0.0000000
 NMagM=    0.0000000   0.0000000   0.0000000   0.0000000   0.0000000   0.0000000   0.0000000   0.0000000   0.0000000   0.0000000
 AtZNuc=   6.0000000   6.0000000   6.0000000   6.0000000   6.0000000   6.0000000   6.0000000   6.0000000   6.0000000   6.0000000

  Atom        11          12          13          14          15          16          17          18          19          20
 IAtWgt=          12          12          12          12          12          12          12          12          12          12
 AtmWgt=  12.0000000  12.0000000  12.0000000  12.0000000  12.0000000  12.0000000  12.0000000  12.0000000  12.0000000  12.0000000
 NucSpn=           0           0           0           0           0           0           0           0           0           0
 AtZEff=  -0.0000000  -0.0000000  -0.0000000  -0.0000000  -0.0000000  -0.0000000  -0.0000000  -0.0000000  -0.0000000  -0.0000000
 NQMom=    0.0000000   0.0000000   0.0000000   0.0000000   0.0000000   0.0000000   0.0000000   0.0000000   0.0000000   0.0000000
 NMagM=    0.0000000   0.0000000   0.0000000   0.0000000   0.0000000   0.0000000   0.0000000   0.0000000   0.0000000   0.0000000
 AtZNuc=   6.0000000   6.0000000   6.0000000   6.0000000   6.0000000   6.0000000   6.0000000   6.0000000   6.0000000   6.0000000

  Atom        21          22          23          24          25          26          27          28          29          30
 IAtWgt=          12          12          12          12          12          12          12          12          12          12
 AtmWgt=  12.0000000  12.0000000  12.0000000  12.0000000  12.0000000  12.0000000  12.0000000  12.0000000  12.0000000  12.0000000
 NucSpn=           0           0           0           0           0           0           0           0           0           0
 AtZEff=  -0.0000000  -0.0000000  -0.0000000  -0.0000000  -0.0000000  -0.0000000  -0.0000000  -0.0000000  -0.0000000  -0.0000000
 NQMom=    0.0000000   0.0000000   0.0000000   0.0000000   0.0000000   0.0000000   0.0000000   0.0000000   0.0000000   0.0000000
 NMagM=    0.0000000   0.0000000   0.0000000   0.0000000   0.0000000   0.0000000   0.0000000   0.0000000   0.0000000   0.0000000
 AtZNuc=   6.0000000   6.0000000   6.0000000   6.0000000   6.0000000   6.0000000   6.0000000   6.0000000   6.0000000   6.0000000

  Atom        31          32          33          34          35          36          37          38          39          40
 IAtWgt=          12          12          12          12          12          12          12          12          12          12
 AtmWgt=  12.0000000  12.0000000  12.0000000  12.0000000  12.0000000  12.0000000  12.0000000  12.0000000  12.0000000  12.0000000
 NucSpn=           0           0           0           0           0           0           0           0           0           0
 AtZEff=  -0.0000000  -0.0000000  -0.0000000  -0.0000000  -0.0000000  -0.0000000  -0.0000000  -0.0000000  -0.0000000  -0.0000000
 NQMom=    0.0000000   0.0000000   0.0000000   0.0000000   0.0000000   0.0000000   0.0000000   0.0000000   0.0000000   0.0000000
 NMagM=    0.0000000   0.0000000   0.0000000   0.0000000   0.0000000   0.0000000   0.0000000   0.0000000   0.0000000   0.0000000
 AtZNuc=   6.0000000   6.0000000   6.0000000   6.0000000   6.0000000   6.0000000   6.0000000   6.0000000   6.0000000   6.0000000

  Atom        41          42          43          44          45          46          47          48          49          50
 IAtWgt=          12          12          12          12          12          12          12          12          12          12
 AtmWgt=  12.0000000  12.0000000  12.0000000  12.0000000  12.0000000  12.0000000  12.0000000  12.0000000  12.0000000  12.0000000
 NucSpn=           0           0           0           0           0           0           0           0           0           0
 AtZEff=  -0.0000000  -0.0000000  -0.0000000  -0.0000000  -0.0000000  -0.0000000  -0.0000000  -0.0000000  -0.0000000  -0.0000000
 NQMom=    0.0000000   0.0000000   0.0000000   0.0000000   0.0000000   0.0000000   0.0000000   0.0000000   0.0000000   0.0000000
 NMagM=    0.0000000   0.0000000   0.0000000   0.0000000   0.0000000   0.0000000   0.0000000   0.0000000   0.0000000   0.0000000
 AtZNuc=   6.0000000   6.0000000   6.0000000   6.0000000   6.0000000   6.0000000   6.0000000   6.0000000   6.0000000   6.0000000

  Atom        51          52          53          54          55          56          57          58          59          60
 IAtWgt=          12          12          12          12          12          12          12          12          12          12
 AtmWgt=  12.0000000  12.0000000  12.0000000  12.0000000  12.0000000  12.0000000  12.0000000  12.0000000  12.0000000  12.0000000
 NucSpn=           0           0           0           0           0           0           0           0           0           0
 AtZEff=  -0.0000000  -0.0000000  -0.0000000  -0.0000000  -0.0000000  -0.0000000  -0.0000000  -0.0000000  -0.0000000  -0.0000000
 NQMom=    0.0000000   0.0000000   0.0000000   0.0000000   0.0000000   0.0000000   0.0000000   0.0000000   0.0000000   0.0000000
 NMagM=    0.0000000   0.0000000   0.0000000   0.0000000   0.0000000   0.0000000   0.0000000   0.0000000   0.0000000   0.0000000
 AtZNuc=   6.0000000   6.0000000   6.0000000   6.0000000   6.0000000   6.0000000   6.0000000   6.0000000   6.0000000   6.0000000

  Atom        61          62          63          64          65          66          67          68          69          70
 IAtWgt=          12          12          12          12          12          12          12          12          12          12
 AtmWgt=  12.0000000  12.0000000  12.0000000  12.0000000  12.0000000  12.0000000  12.0000000  12.0000000  12.0000000  12.0000000
 NucSpn=           0           0           0           0           0           0           0           0           0           0
 AtZEff=  -0.0000000  -0.0000000  -0.0000000  -0.0000000  -0.0000000  -0.0000000  -0.0000000  -0.0000000  -0.0000000  -0.0000000
 NQMom=    0.0000000   0.0000000   0.0000000   0.0000000   0.0000000   0.0000000   0.0000000   0.0000000   0.0000000   0.0000000
 NMagM=    0.0000000   0.0000000   0.0000000   0.0000000   0.0000000   0.0000000   0.0000000   0.0000000   0.0000000   0.0000000
 AtZNuc=   6.0000000   6.0000000   6.0000000   6.0000000   6.0000000   6.0000000   6.0000000   6.0000000   6.0000000   6.0000000

  Atom        71          72          73          74          75          76          77          78          79          80
 IAtWgt=          12          12          12          12          12          12          12          12          12          12
 AtmWgt=  12.0000000  12.0000000  12.0000000  12.0000000  12.0000000  12.0000000  12.0000000  12.0000000  12.0000000  12.0000000
 NucSpn=           0           0           0           0           0           0           0           0           0           0
 AtZEff=  -0.0000000  -0.0000000  -0.0000000  -0.0000000  -0.0000000  -0.0000000  -0.0000000  -0.0000000  -0.0000000  -0.0000000
 NQMom=    0.0000000   0.0000000   0.0000000   0.0000000   0.0000000   0.0000000   0.0000000   0.0000000   0.0000000   0.0000000
 NMagM=    0.0000000   0.0000000   0.0000000   0.0000000   0.0000000   0.0000000   0.0000000   0.0000000   0.0000000   0.0000000
 AtZNuc=   6.0000000   6.0000000   6.0000000   6.0000000   6.0000000   6.0000000   6.0000000   6.0000000   6.0000000   6.0000000

  Atom        81          82          83          84          85          86          87          88          89          90
 IAtWgt=          12          12          12          12          35          35          35          35          35          35
 AtmWgt=  12.0000000  12.0000000  12.0000000  12.0000000  34.9688527  34.9688527  34.9688527  34.9688527  34.9688527  34.9688527
 NucSpn=           0           0           0           0           3           3           3           3           3           3
 AtZEff=  -0.0000000  -0.0000000  -0.0000000  -0.0000000  -0.0000000  -0.0000000  -0.0000000  -0.0000000  -0.0000000  -0.0000000
 NQMom=    0.0000000   0.0000000   0.0000000   0.0000000  -8.1650000  -8.1650000  -8.1650000  -8.1650000  -8.1650000  -8.1650000
 NMagM=    0.0000000   0.0000000   0.0000000   0.0000000   0.8218740   0.8218740   0.8218740   0.8218740   0.8218740   0.8218740
 AtZNuc=   6.0000000   6.0000000   6.0000000   6.0000000  17.0000000  17.0000000  17.0000000  17.0000000  17.0000000  17.0000000
 Leave Link  101 at Wed Jun 29 04:53:01 2022, MaxMem=  1342177280 cpu:               6.5 elap:               0.3
 (Enter /home/mkliu/g16/l103.exe)

 GradGradGradGradGradGradGradGradGradGradGradGradGradGradGradGradGradGrad
 Berny optimization.
 Initialization pass.
                           ----------------------------
                           !    Initial Parameters    !
                           ! (Angstroms and Degrees)  !
 --------------------------                            --------------------------
 ! Name  Definition              Value          Derivative Info.                !
 --------------------------------------------------------------------------------
 ! R1    R(1,5)                  1.4156         estimate D2E/DX2                !
 ! R2    R(1,17)                 1.4254         estimate D2E/DX2                !
 ! R3    R(1,23)                 1.4182         estimate D2E/DX2                !
 ! R4    R(2,6)                  1.4292         estimate D2E/DX2                !
 ! R5    R(2,43)                 1.4315         estimate D2E/DX2                !
 ! R6    R(2,44)                 1.4088         estimate D2E/DX2                !
 ! R7    R(3,7)                  1.518          estimate D2E/DX2                !
 ! R8    R(3,18)                 1.5011         estimate D2E/DX2                !
 ! R9    R(3,26)                 1.5081         estimate D2E/DX2                !
 ! R10   R(3,85)                 1.8149         estimate D2E/DX2                !
 ! R11   R(4,8)                  1.4255         estimate D2E/DX2                !
 ! R12   R(4,45)                 1.4067         estimate D2E/DX2                !
 ! R13   R(4,46)                 1.433          estimate D2E/DX2                !
 ! R14   R(5,9)                  1.4467         estimate D2E/DX2                !
 ! R15   R(5,29)                 1.4313         estimate D2E/DX2                !
 ! R16   R(6,10)                 1.3831         estimate D2E/DX2                !
 ! R17   R(6,15)                 1.4238         estimate D2E/DX2                !
 ! R18   R(7,12)                 1.4073         estimate D2E/DX2                !
 ! R19   R(7,30)                 1.3979         estimate D2E/DX2                !
 ! R20   R(8,11)                 1.3783         estimate D2E/DX2                !
 ! R21   R(8,16)                 1.4173         estimate D2E/DX2                !
 ! R22   R(9,13)                 1.4057         estimate D2E/DX2                !
 ! R23   R(9,35)                 1.4457         estimate D2E/DX2                !
 ! R24   R(10,49)                1.4319         estimate D2E/DX2                !
 ! R25   R(10,53)                1.4282         estimate D2E/DX2                !
 ! R26   R(11,50)                1.4338         estimate D2E/DX2                !
 ! R27   R(11,54)                1.4111         estimate D2E/DX2                !
 ! R28   R(12,14)                1.4077         estimate D2E/DX2                !
 ! R29   R(12,36)                1.4541         estimate D2E/DX2                !
 ! R30   R(13,15)                1.4327         estimate D2E/DX2                !
 ! R31   R(13,43)                1.4271         estimate D2E/DX2                !
 ! R32   R(14,16)                1.4493         estimate D2E/DX2                !
 ! R33   R(14,46)                1.4139         estimate D2E/DX2                !
 ! R34   R(15,17)                1.3813         estimate D2E/DX2                !
 ! R35   R(16,18)                1.3886         estimate D2E/DX2                !
 ! R36   R(17,19)                1.4269         estimate D2E/DX2                !
 ! R37   R(18,20)                1.4166         estimate D2E/DX2                !
 ! R38   R(19,21)                1.5019         estimate D2E/DX2                !
 ! R39   R(19,53)                1.3621         estimate D2E/DX2                !
 ! R40   R(20,22)                1.5029         estimate D2E/DX2                !
 ! R41   R(20,54)                1.3851         estimate D2E/DX2                !
 ! R42   R(21,23)                1.5103         estimate D2E/DX2                !
 ! R43   R(21,57)                1.5227         estimate D2E/DX2                !
 ! R44   R(21,89)                1.8021         estimate D2E/DX2                !
 ! R45   R(22,24)                1.5046         estimate D2E/DX2                !
 ! R46   R(22,58)                1.5135         estimate D2E/DX2                !
 ! R47   R(22,86)                1.8056         estimate D2E/DX2                !
 ! R48   R(23,25)                1.3627         estimate D2E/DX2                !
 ! R49   R(24,26)                1.37           estimate D2E/DX2                !
 ! R50   R(24,62)                1.4031         estimate D2E/DX2                !
 ! R51   R(25,27)                1.4061         estimate D2E/DX2                !
 ! R52   R(25,61)                1.4971         estimate D2E/DX2                !
 ! R53   R(26,28)                1.408          estimate D2E/DX2                !
 ! R54   R(27,29)                1.4085         estimate D2E/DX2                !
 ! R55   R(27,65)                1.4418         estimate D2E/DX2                !
 ! R56   R(28,30)                1.4371         estimate D2E/DX2                !
 ! R57   R(28,66)                1.415          estimate D2E/DX2                !
 ! R58   R(29,31)                1.4045         estimate D2E/DX2                !
 ! R59   R(30,32)                1.3825         estimate D2E/DX2                !
 ! R60   R(31,33)                1.4271         estimate D2E/DX2                !
 ! R61   R(31,69)                1.4315         estimate D2E/DX2                !
 ! R62   R(32,34)                1.4327         estimate D2E/DX2                !
 ! R63   R(32,70)                1.4217         estimate D2E/DX2                !
 ! R64   R(33,35)                1.408          estimate D2E/DX2                !
 ! R65   R(33,73)                1.4305         estimate D2E/DX2                !
 ! R66   R(34,36)                1.4063         estimate D2E/DX2                !
 ! R67   R(34,74)                1.43           estimate D2E/DX2                !
 ! R68   R(35,37)                1.4503         estimate D2E/DX2                !
 ! R69   R(36,38)                1.4506         estimate D2E/DX2                !
 ! R70   R(37,39)                1.4456         estimate D2E/DX2                !
 ! R71   R(37,77)                1.4096         estimate D2E/DX2                !
 ! R72   R(38,42)                1.4484         estimate D2E/DX2                !
 ! R73   R(38,78)                1.4106         estimate D2E/DX2                !
 ! R74   R(39,43)                1.4033         estimate D2E/DX2                !
 ! R75   R(39,79)                1.4086         estimate D2E/DX2                !
 ! R76   R(40,41)                1.4224         estimate D2E/DX2                !
 ! R77   R(40,44)                1.4093         estimate D2E/DX2                !
 ! R78   R(40,79)                1.429          estimate D2E/DX2                !
 ! R79   R(41,45)                1.4077         estimate D2E/DX2                !
 ! R80   R(41,80)                1.4324         estimate D2E/DX2                !
 ! R81   R(42,46)                1.414          estimate D2E/DX2                !
 ! R82   R(42,80)                1.4059         estimate D2E/DX2                !
 ! R83   R(44,47)                1.447          estimate D2E/DX2                !
 ! R84   R(45,48)                1.4506         estimate D2E/DX2                !
 ! R85   R(47,48)                1.4366         estimate D2E/DX2                !
 ! R86   R(47,49)                1.4134         estimate D2E/DX2                !
 ! R87   R(48,50)                1.409          estimate D2E/DX2                !
 ! R88   R(49,51)                1.4167         estimate D2E/DX2                !
 ! R89   R(50,52)                1.4139         estimate D2E/DX2                !
 ! R90   R(51,52)                1.3575         estimate D2E/DX2                !
 ! R91   R(51,55)                1.5066         estimate D2E/DX2                !
 ! R92   R(52,56)                1.5034         estimate D2E/DX2                !
 ! R93   R(53,55)                1.5021         estimate D2E/DX2                !
 ! R94   R(54,56)                1.5159         estimate D2E/DX2                !
 ! R95   R(55,83)                1.5205         estimate D2E/DX2                !
 ! R96   R(55,88)                1.8031         estimate D2E/DX2                !
 ! R97   R(56,84)                1.5088         estimate D2E/DX2                !
 ! R98   R(56,87)                1.8014         estimate D2E/DX2                !
 ! R99   R(57,59)                1.4029         estimate D2E/DX2                !
 ! R100  R(57,83)                1.4058         estimate D2E/DX2                !
 ! R101  R(58,60)                1.3987         estimate D2E/DX2                !
 ! R102  R(58,84)                1.379          estimate D2E/DX2                !
 ! R103  R(59,60)                1.3869         estimate D2E/DX2                !
 ! R104  R(59,61)                1.5044         estimate D2E/DX2                !
 ! R105  R(60,62)                1.4497         estimate D2E/DX2                !
 ! R106  R(61,63)                1.5153         estimate D2E/DX2                !
 ! R107  R(61,90)                1.8083         estimate D2E/DX2                !
 ! R108  R(62,64)                1.4109         estimate D2E/DX2                !
 ! R109  R(63,64)                1.4088         estimate D2E/DX2                !
 ! R110  R(63,65)                1.3883         estimate D2E/DX2                !
 ! R111  R(64,66)                1.4372         estimate D2E/DX2                !
 ! R112  R(65,67)                1.4191         estimate D2E/DX2                !
 ! R113  R(66,68)                1.4432         estimate D2E/DX2                !
 ! R114  R(67,68)                1.4353         estimate D2E/DX2                !
 ! R115  R(67,69)                1.4112         estimate D2E/DX2                !
 ! R116  R(68,70)                1.4202         estimate D2E/DX2                !
 ! R117  R(69,71)                1.4258         estimate D2E/DX2                !
 ! R118  R(70,72)                1.4323         estimate D2E/DX2                !
 ! R119  R(71,72)                1.3804         estimate D2E/DX2                !
 ! R120  R(71,73)                1.4413         estimate D2E/DX2                !
 ! R121  R(72,74)                1.4447         estimate D2E/DX2                !
 ! R122  R(73,75)                1.3767         estimate D2E/DX2                !
 ! R123  R(74,76)                1.3777         estimate D2E/DX2                !
 ! R124  R(75,76)                1.4429         estimate D2E/DX2                !
 ! R125  R(75,77)                1.4289         estimate D2E/DX2                !
 ! R126  R(76,78)                1.4297         estimate D2E/DX2                !
 ! R127  R(77,81)                1.4371         estimate D2E/DX2                !
 ! R128  R(78,81)                1.4393         estimate D2E/DX2                !
 ! R129  R(79,82)                1.425          estimate D2E/DX2                !
 ! R130  R(80,82)                1.428          estimate D2E/DX2                !
 ! R131  R(81,82)                1.372          estimate D2E/DX2                !
 ! R132  R(83,84)                1.4117         estimate D2E/DX2                !
 ! A1    A(5,1,17)             121.7894         estimate D2E/DX2                !
 ! A2    A(5,1,23)             122.8926         estimate D2E/DX2                !
 ! A3    A(17,1,23)            107.3538         estimate D2E/DX2                !
 ! A4    A(6,2,43)             107.3433         estimate D2E/DX2                !
 ! A5    A(6,2,44)             120.8317         estimate D2E/DX2                !
 ! A6    A(43,2,44)            121.4355         estimate D2E/DX2                !
 ! A7    A(7,3,18)             112.9751         estimate D2E/DX2                !
 ! A8    A(7,3,26)             101.9683         estimate D2E/DX2                !
 ! A9    A(7,3,85)             110.3432         estimate D2E/DX2                !
 ! A10   A(18,3,26)            111.536          estimate D2E/DX2                !
 ! A11   A(18,3,85)            108.4585         estimate D2E/DX2                !
 ! A12   A(26,3,85)            111.5042         estimate D2E/DX2                !
 ! A13   A(8,4,45)             120.2694         estimate D2E/DX2                !
 ! A14   A(8,4,46)             106.6177         estimate D2E/DX2                !
 ! A15   A(45,4,46)            122.583          estimate D2E/DX2                !
 ! A16   A(1,5,9)              119.3606         estimate D2E/DX2                !
 ! A17   A(1,5,29)             115.8756         estimate D2E/DX2                !
 ! A18   A(9,5,29)             119.218          estimate D2E/DX2                !
 ! A19   A(2,6,10)             119.9222         estimate D2E/DX2                !
 ! A20   A(2,6,15)             108.2424         estimate D2E/DX2                !
 ! A21   A(10,6,15)            119.342          estimate D2E/DX2                !
 ! A22   A(3,7,12)             125.4216         estimate D2E/DX2                !
 ! A23   A(3,7,30)             107.7655         estimate D2E/DX2                !
 ! A24   A(12,7,30)            119.7568         estimate D2E/DX2                !
 ! A25   A(4,8,11)             120.0669         estimate D2E/DX2                !
 ! A26   A(4,8,16)             109.7042         estimate D2E/DX2                !
 ! A27   A(11,8,16)            120.0327         estimate D2E/DX2                !
 ! A28   A(5,9,13)             117.5399         estimate D2E/DX2                !
 ! A29   A(5,9,35)             120.7313         estimate D2E/DX2                !
 ! A30   A(13,9,35)            117.4508         estimate D2E/DX2                !
 ! A31   A(6,10,49)            119.6669         estimate D2E/DX2                !
 ! A32   A(6,10,53)            120.9921         estimate D2E/DX2                !
 ! A33   A(49,10,53)           109.1448         estimate D2E/DX2                !
 ! A34   A(8,11,50)            120.1647         estimate D2E/DX2                !
 ! A35   A(8,11,54)            120.1582         estimate D2E/DX2                !
 ! A36   A(50,11,54)           110.1706         estimate D2E/DX2                !
 ! A37   A(7,12,14)            115.5674         estimate D2E/DX2                !
 ! A38   A(7,12,36)            120.4167         estimate D2E/DX2                !
 ! A39   A(14,12,36)           118.5596         estimate D2E/DX2                !
 ! A40   A(9,13,15)            122.1817         estimate D2E/DX2                !
 ! A41   A(9,13,43)            121.3455         estimate D2E/DX2                !
 ! A42   A(15,13,43)           107.2552         estimate D2E/DX2                !
 ! A43   A(12,14,16)           120.9793         estimate D2E/DX2                !
 ! A44   A(12,14,46)           121.5505         estimate D2E/DX2                !
 ! A45   A(16,14,46)           107.8736         estimate D2E/DX2                !
 ! A46   A(6,15,13)            108.2549         estimate D2E/DX2                !
 ! A47   A(6,15,17)            118.9762         estimate D2E/DX2                !
 ! A48   A(13,15,17)           120.1983         estimate D2E/DX2                !
 ! A49   A(8,16,14)            106.7163         estimate D2E/DX2                !
 ! A50   A(8,16,18)            119.982          estimate D2E/DX2                !
 ! A51   A(14,16,18)           124.0068         estimate D2E/DX2                !
 ! A52   A(1,17,15)            118.8844         estimate D2E/DX2                !
 ! A53   A(1,17,19)            109.6209         estimate D2E/DX2                !
 ! A54   A(15,17,19)           121.4118         estimate D2E/DX2                !
 ! A55   A(3,18,16)            115.7828         estimate D2E/DX2                !
 ! A56   A(3,18,20)            122.4268         estimate D2E/DX2                !
 ! A57   A(16,18,20)           119.6725         estimate D2E/DX2                !
 ! A58   A(17,19,21)           109.7614         estimate D2E/DX2                !
 ! A59   A(17,19,53)           119.4652         estimate D2E/DX2                !
 ! A60   A(21,19,53)           122.3983         estimate D2E/DX2                !
 ! A61   A(18,20,22)           121.3252         estimate D2E/DX2                !
 ! A62   A(18,20,54)           119.9866         estimate D2E/DX2                !
 ! A63   A(22,20,54)           116.1502         estimate D2E/DX2                !
 ! A64   A(19,21,23)           101.4057         estimate D2E/DX2                !
 ! A65   A(19,21,57)           110.6099         estimate D2E/DX2                !
 ! A66   A(19,21,89)           113.5649         estimate D2E/DX2                !
 ! A67   A(23,21,57)           109.3273         estimate D2E/DX2                !
 ! A68   A(23,21,89)           113.1162         estimate D2E/DX2                !
 ! A69   A(57,21,89)           108.6396         estimate D2E/DX2                !
 ! A70   A(20,22,24)           111.8129         estimate D2E/DX2                !
 ! A71   A(20,22,58)           109.8205         estimate D2E/DX2                !
 ! A72   A(20,22,86)           110.5923         estimate D2E/DX2                !
 ! A73   A(24,22,58)           100.6984         estimate D2E/DX2                !
 ! A74   A(24,22,86)           112.1367         estimate D2E/DX2                !
 ! A75   A(58,22,86)           111.4136         estimate D2E/DX2                !
 ! A76   A(1,23,21)            111.4303         estimate D2E/DX2                !
 ! A77   A(1,23,25)            119.645          estimate D2E/DX2                !
 ! A78   A(21,23,25)           122.3055         estimate D2E/DX2                !
 ! A79   A(22,24,26)           123.4773         estimate D2E/DX2                !
 ! A80   A(22,24,62)           111.2013         estimate D2E/DX2                !
 ! A81   A(26,24,62)           118.6303         estimate D2E/DX2                !
 ! A82   A(23,25,27)           119.3987         estimate D2E/DX2                !
 ! A83   A(23,25,61)           122.4552         estimate D2E/DX2                !
 ! A84   A(27,25,61)           110.4855         estimate D2E/DX2                !
 ! A85   A(3,26,24)            122.2063         estimate D2E/DX2                !
 ! A86   A(3,26,28)            110.5688         estimate D2E/DX2                !
 ! A87   A(24,26,28)           119.8048         estimate D2E/DX2                !
 ! A88   A(25,27,29)           121.8562         estimate D2E/DX2                !
 ! A89   A(25,27,65)           108.1992         estimate D2E/DX2                !
 ! A90   A(29,27,65)           120.921          estimate D2E/DX2                !
 ! A91   A(26,28,30)           106.9235         estimate D2E/DX2                !
 ! A92   A(26,28,66)           123.5679         estimate D2E/DX2                !
 ! A93   A(30,28,66)           120.7947         estimate D2E/DX2                !
 ! A94   A(5,29,27)            119.7707         estimate D2E/DX2                !
 ! A95   A(5,29,31)            119.144          estimate D2E/DX2                !
 ! A96   A(27,29,31)           115.809          estimate D2E/DX2                !
 ! A97   A(7,30,28)            110.7407         estimate D2E/DX2                !
 ! A98   A(7,30,32)            120.8384         estimate D2E/DX2                !
 ! A99   A(28,30,32)           119.8962         estimate D2E/DX2                !
 ! A100  A(29,31,33)           120.9587         estimate D2E/DX2                !
 ! A101  A(29,31,69)           122.2437         estimate D2E/DX2                !
 ! A102  A(33,31,69)           109.1398         estimate D2E/DX2                !
 ! A103  A(30,32,34)           119.7161         estimate D2E/DX2                !
 ! A104  A(30,32,70)           119.7277         estimate D2E/DX2                !
 ! A105  A(34,32,70)           110.2936         estimate D2E/DX2                !
 ! A106  A(31,33,35)           121.2068         estimate D2E/DX2                !
 ! A107  A(31,33,73)           107.0704         estimate D2E/DX2                !
 ! A108  A(35,33,73)           122.5299         estimate D2E/DX2                !
 ! A109  A(32,34,36)           120.6482         estimate D2E/DX2                !
 ! A110  A(32,34,74)           106.0421         estimate D2E/DX2                !
 ! A111  A(36,34,74)           122.6338         estimate D2E/DX2                !
 ! A112  A(9,35,33)            117.2821         estimate D2E/DX2                !
 ! A113  A(9,35,37)            120.7296         estimate D2E/DX2                !
 ! A114  A(33,35,37)           117.7757         estimate D2E/DX2                !
 ! A115  A(12,36,34)           117.14           estimate D2E/DX2                !
 ! A116  A(12,36,38)           119.9704         estimate D2E/DX2                !
 ! A117  A(34,36,38)           117.9802         estimate D2E/DX2                !
 ! A118  A(35,37,39)           119.0208         estimate D2E/DX2                !
 ! A119  A(35,37,77)           118.6235         estimate D2E/DX2                !
 ! A120  A(39,37,77)           116.837          estimate D2E/DX2                !
 ! A121  A(36,38,42)           119.4276         estimate D2E/DX2                !
 ! A122  A(36,38,78)           118.314          estimate D2E/DX2                !
 ! A123  A(42,38,78)           117.0765         estimate D2E/DX2                !
 ! A124  A(37,39,43)           118.7856         estimate D2E/DX2                !
 ! A125  A(37,39,79)           120.2768         estimate D2E/DX2                !
 ! A126  A(43,39,79)           115.3487         estimate D2E/DX2                !
 ! A127  A(41,40,44)           121.6828         estimate D2E/DX2                !
 ! A128  A(41,40,79)           108.3431         estimate D2E/DX2                !
 ! A129  A(44,40,79)           121.9458         estimate D2E/DX2                !
 ! A130  A(40,41,45)           120.707          estimate D2E/DX2                !
 ! A131  A(40,41,80)           108.642          estimate D2E/DX2                !
 ! A132  A(45,41,80)           121.9236         estimate D2E/DX2                !
 ! A133  A(38,42,46)           118.8858         estimate D2E/DX2                !
 ! A134  A(38,42,80)           120.4603         estimate D2E/DX2                !
 ! A135  A(46,42,80)           114.8457         estimate D2E/DX2                !
 ! A136  A(2,43,13)            108.5164         estimate D2E/DX2                !
 ! A137  A(2,43,39)            122.0056         estimate D2E/DX2                !
 ! A138  A(13,43,39)           121.2335         estimate D2E/DX2                !
 ! A139  A(2,44,40)            115.1581         estimate D2E/DX2                !
 ! A140  A(2,44,47)            119.975          estimate D2E/DX2                !
 ! A141  A(40,44,47)           118.8116         estimate D2E/DX2                !
 ! A142  A(4,45,41)            114.848          estimate D2E/DX2                !
 ! A143  A(4,45,48)            120.4484         estimate D2E/DX2                !
 ! A144  A(41,45,48)           118.8908         estimate D2E/DX2                !
 ! A145  A(4,46,14)            108.9555         estimate D2E/DX2                !
 ! A146  A(4,46,42)            121.6548         estimate D2E/DX2                !
 ! A147  A(14,46,42)           121.4585         estimate D2E/DX2                !
 ! A148  A(44,47,48)           119.589          estimate D2E/DX2                !
 ! A149  A(44,47,49)           117.4648         estimate D2E/DX2                !
 ! A150  A(48,47,49)           117.7127         estimate D2E/DX2                !
 ! A151  A(45,48,47)           120.2381         estimate D2E/DX2                !
 ! A152  A(45,48,50)           117.3764         estimate D2E/DX2                !
 ! A153  A(47,48,50)           117.3324         estimate D2E/DX2                !
 ! A154  A(10,49,47)           121.976          estimate D2E/DX2                !
 ! A155  A(10,49,51)           107.2435         estimate D2E/DX2                !
 ! A156  A(47,49,51)           122.8341         estimate D2E/DX2                !
 ! A157  A(11,50,48)           121.2676         estimate D2E/DX2                !
 ! A158  A(11,50,52)           106.7565         estimate D2E/DX2                !
 ! A159  A(48,50,52)           123.2824         estimate D2E/DX2                !
 ! A160  A(49,51,52)           119.195          estimate D2E/DX2                !
 ! A161  A(49,51,55)           111.8298         estimate D2E/DX2                !
 ! A162  A(52,51,55)           122.6314         estimate D2E/DX2                !
 ! A163  A(50,52,51)           119.3124         estimate D2E/DX2                !
 ! A164  A(50,52,56)           111.5121         estimate D2E/DX2                !
 ! A165  A(51,52,56)           122.1896         estimate D2E/DX2                !
 ! A166  A(10,53,19)           119.6693         estimate D2E/DX2                !
 ! A167  A(10,53,55)           110.0929         estimate D2E/DX2                !
 ! A168  A(19,53,55)           122.3319         estimate D2E/DX2                !
 ! A169  A(11,54,20)           120.0527         estimate D2E/DX2                !
 ! A170  A(11,54,56)           108.6655         estimate D2E/DX2                !
 ! A171  A(20,54,56)           125.9767         estimate D2E/DX2                !
 ! A172  A(51,55,53)           101.1694         estimate D2E/DX2                !
 ! A173  A(51,55,83)           108.9774         estimate D2E/DX2                !
 ! A174  A(51,55,88)           113.4081         estimate D2E/DX2                !
 ! A175  A(53,55,83)           110.9777         estimate D2E/DX2                !
 ! A176  A(53,55,88)           113.2408         estimate D2E/DX2                !
 ! A177  A(83,55,88)           108.863          estimate D2E/DX2                !
 ! A178  A(52,56,54)           101.3778         estimate D2E/DX2                !
 ! A179  A(52,56,84)           109.1578         estimate D2E/DX2                !
 ! A180  A(52,56,87)           113.5447         estimate D2E/DX2                !
 ! A181  A(54,56,84)           110.0441         estimate D2E/DX2                !
 ! A182  A(54,56,87)           112.1614         estimate D2E/DX2                !
 ! A183  A(84,56,87)           110.2219         estimate D2E/DX2                !
 ! A184  A(21,57,59)           118.4117         estimate D2E/DX2                !
 ! A185  A(21,57,83)           121.2014         estimate D2E/DX2                !
 ! A186  A(59,57,83)           119.7603         estimate D2E/DX2                !
 ! A187  A(22,58,60)           109.9498         estimate D2E/DX2                !
 ! A188  A(22,58,84)           126.4241         estimate D2E/DX2                !
 ! A189  A(60,58,84)           120.2393         estimate D2E/DX2                !
 ! A190  A(57,59,60)           119.095          estimate D2E/DX2                !
 ! A191  A(57,59,61)           124.0197         estimate D2E/DX2                !
 ! A192  A(60,59,61)           115.5882         estimate D2E/DX2                !
 ! A193  A(58,60,59)           121.2456         estimate D2E/DX2                !
 ! A194  A(58,60,62)           109.0928         estimate D2E/DX2                !
 ! A195  A(59,60,62)           124.2153         estimate D2E/DX2                !
 ! A196  A(25,61,59)           109.6024         estimate D2E/DX2                !
 ! A197  A(25,61,63)           101.5061         estimate D2E/DX2                !
 ! A198  A(25,61,90)           113.1427         estimate D2E/DX2                !
 ! A199  A(59,61,63)           111.3175         estimate D2E/DX2                !
 ! A200  A(59,61,90)           109.6089         estimate D2E/DX2                !
 ! A201  A(63,61,90)           111.4647         estimate D2E/DX2                !
 ! A202  A(24,62,60)           107.2678         estimate D2E/DX2                !
 ! A203  A(24,62,64)           122.8925         estimate D2E/DX2                !
 ! A204  A(60,62,64)           119.4707         estimate D2E/DX2                !
 ! A205  A(61,63,64)           124.2621         estimate D2E/DX2                !
 ! A206  A(61,63,65)           110.0948         estimate D2E/DX2                !
 ! A207  A(64,63,65)           120.0331         estimate D2E/DX2                !
 ! A208  A(62,64,63)           115.9427         estimate D2E/DX2                !
 ! A209  A(62,64,66)           119.0304         estimate D2E/DX2                !
 ! A210  A(63,64,66)           119.2152         estimate D2E/DX2                !
 ! A211  A(27,65,63)           108.9119         estimate D2E/DX2                !
 ! A212  A(27,65,67)           121.9806         estimate D2E/DX2                !
 ! A213  A(63,65,67)           122.7144         estimate D2E/DX2                !
 ! A214  A(28,66,64)           115.9142         estimate D2E/DX2                !
 ! A215  A(28,66,68)           118.6882         estimate D2E/DX2                !
 ! A216  A(64,66,68)           120.393          estimate D2E/DX2                !
 ! A217  A(65,67,68)           118.468          estimate D2E/DX2                !
 ! A218  A(65,67,69)           115.0892         estimate D2E/DX2                !
 ! A219  A(68,67,69)           120.5781         estimate D2E/DX2                !
 ! A220  A(66,68,67)           118.8387         estimate D2E/DX2                !
 ! A221  A(66,68,70)           118.6606         estimate D2E/DX2                !
 ! A222  A(67,68,70)           116.9011         estimate D2E/DX2                !
 ! A223  A(31,69,67)           121.4139         estimate D2E/DX2                !
 ! A224  A(31,69,71)           107.2543         estimate D2E/DX2                !
 ! A225  A(67,69,71)           120.9855         estimate D2E/DX2                !
 ! A226  A(32,70,68)           121.1773         estimate D2E/DX2                !
 ! A227  A(32,70,72)           106.3297         estimate D2E/DX2                !
 ! A228  A(68,70,72)           121.9194         estimate D2E/DX2                !
 ! A229  A(69,71,72)           119.3589         estimate D2E/DX2                !
 ! A230  A(69,71,73)           108.0672         estimate D2E/DX2                !
 ! A231  A(72,71,73)           120.3853         estimate D2E/DX2                !
 ! A232  A(70,72,71)           120.1096         estimate D2E/DX2                !
 ! A233  A(70,72,74)           108.2361         estimate D2E/DX2                !
 ! A234  A(71,72,74)           119.4675         estimate D2E/DX2                !
 ! A235  A(33,73,71)           108.1509         estimate D2E/DX2                !
 ! A236  A(33,73,75)           119.5277         estimate D2E/DX2                !
 ! A237  A(71,73,75)           119.9754         estimate D2E/DX2                !
 ! A238  A(34,74,72)           108.3164         estimate D2E/DX2                !
 ! A239  A(34,74,76)           119.2075         estimate D2E/DX2                !
 ! A240  A(72,74,76)           120.1594         estimate D2E/DX2                !
 ! A241  A(73,75,76)           119.8873         estimate D2E/DX2                !
 ! A242  A(73,75,77)           119.324          estimate D2E/DX2                !
 ! A243  A(76,75,77)           108.6882         estimate D2E/DX2                !
 ! A244  A(74,76,75)           120.1122         estimate D2E/DX2                !
 ! A245  A(74,76,78)           119.4938         estimate D2E/DX2                !
 ! A246  A(75,76,78)           108.2715         estimate D2E/DX2                !
 ! A247  A(37,77,75)           122.1834         estimate D2E/DX2                !
 ! A248  A(37,77,81)           121.4348         estimate D2E/DX2                !
 ! A249  A(75,77,81)           106.249          estimate D2E/DX2                !
 ! A250  A(38,78,76)           122.1735         estimate D2E/DX2                !
 ! A251  A(38,78,81)           121.2848         estimate D2E/DX2                !
 ! A252  A(76,78,81)           106.3474         estimate D2E/DX2                !
 ! A253  A(39,79,40)           121.5092         estimate D2E/DX2                !
 ! A254  A(39,79,82)           120.4786         estimate D2E/DX2                !
 ! A255  A(40,79,82)           106.8537         estimate D2E/DX2                !
 ! A256  A(41,80,42)           122.5375         estimate D2E/DX2                !
 ! A257  A(41,80,82)           106.4426         estimate D2E/DX2                !
 ! A258  A(42,80,82)           120.4089         estimate D2E/DX2                !
 ! A259  A(77,81,78)           109.5106         estimate D2E/DX2                !
 ! A260  A(77,81,82)           119.8729         estimate D2E/DX2                !
 ! A261  A(78,81,82)           119.9939         estimate D2E/DX2                !
 ! A262  A(79,82,80)           109.5062         estimate D2E/DX2                !
 ! A263  A(79,82,81)           119.9359         estimate D2E/DX2                !
 ! A264  A(80,82,81)           120.0097         estimate D2E/DX2                !
 ! A265  A(55,83,57)           120.6632         estimate D2E/DX2                !
 ! A266  A(55,83,84)           118.4774         estimate D2E/DX2                !
 ! A267  A(57,83,84)           120.251          estimate D2E/DX2                !
 ! A268  A(56,84,58)           115.9802         estimate D2E/DX2                !
 ! A269  A(56,84,83)           123.3167         estimate D2E/DX2                !
 ! A270  A(58,84,83)           119.2801         estimate D2E/DX2                !
 ! D1    D(17,1,5,9)            -0.1963         estimate D2E/DX2                !
 ! D2    D(17,1,5,29)         -153.7503         estimate D2E/DX2                !
 ! D3    D(23,1,5,9)           144.7626         estimate D2E/DX2                !
 ! D4    D(23,1,5,29)           -8.7914         estimate D2E/DX2                !
 ! D5    D(5,1,17,15)           -1.7173         estimate D2E/DX2                !
 ! D6    D(5,1,17,19)          144.2374         estimate D2E/DX2                !
 ! D7    D(23,1,17,15)        -151.3785         estimate D2E/DX2                !
 ! D8    D(23,1,17,19)          -5.4238         estimate D2E/DX2                !
 ! D9    D(5,1,23,21)         -147.3998         estimate D2E/DX2                !
 ! D10   D(5,1,23,25)            4.7261         estimate D2E/DX2                !
 ! D11   D(17,1,23,21)           1.8492         estimate D2E/DX2                !
 ! D12   D(17,1,23,25)         153.9752         estimate D2E/DX2                !
 ! D13   D(43,2,6,10)         -144.4715         estimate D2E/DX2                !
 ! D14   D(43,2,6,15)           -2.7502         estimate D2E/DX2                !
 ! D15   D(44,2,6,10)            0.8847         estimate D2E/DX2                !
 ! D16   D(44,2,6,15)          142.606          estimate D2E/DX2                !
 ! D17   D(6,2,43,13)            5.6862         estimate D2E/DX2                !
 ! D18   D(6,2,43,39)          154.3554         estimate D2E/DX2                !
 ! D19   D(44,2,43,13)        -139.4168         estimate D2E/DX2                !
 ! D20   D(44,2,43,39)           9.2524         estimate D2E/DX2                !
 ! D21   D(6,2,44,40)         -155.5968         estimate D2E/DX2                !
 ! D22   D(6,2,44,47)           -3.278          estimate D2E/DX2                !
 ! D23   D(43,2,44,40)         -15.0888         estimate D2E/DX2                !
 ! D24   D(43,2,44,47)         137.23           estimate D2E/DX2                !
 ! D25   D(18,3,7,12)          -16.7408         estimate D2E/DX2                !
 ! D26   D(18,3,7,30)          133.4198         estimate D2E/DX2                !
 ! D27   D(26,3,7,12)         -136.5719         estimate D2E/DX2                !
 ! D28   D(26,3,7,30)           13.5888         estimate D2E/DX2                !
 ! D29   D(85,3,7,12)          104.8578         estimate D2E/DX2                !
 ! D30   D(85,3,7,30)         -104.9815         estimate D2E/DX2                !
 ! D31   D(7,3,18,16)           26.0939         estimate D2E/DX2                !
 ! D32   D(7,3,18,20)         -137.2813         estimate D2E/DX2                !
 ! D33   D(26,3,18,16)         140.2644         estimate D2E/DX2                !
 ! D34   D(26,3,18,20)         -23.1108         estimate D2E/DX2                !
 ! D35   D(85,3,18,16)         -96.5617         estimate D2E/DX2                !
 ! D36   D(85,3,18,20)         100.063          estimate D2E/DX2                !
 ! D37   D(7,3,26,24)          141.2226         estimate D2E/DX2                !
 ! D38   D(7,3,26,28)           -8.523          estimate D2E/DX2                !
 ! D39   D(18,3,26,24)          20.3852         estimate D2E/DX2                !
 ! D40   D(18,3,26,28)        -129.3605         estimate D2E/DX2                !
 ! D41   D(85,3,26,24)        -101.0365         estimate D2E/DX2                !
 ! D42   D(85,3,26,28)         109.2179         estimate D2E/DX2                !
 ! D43   D(45,4,8,11)            2.7585         estimate D2E/DX2                !
 ! D44   D(45,4,8,16)         -142.4876         estimate D2E/DX2                !
 ! D45   D(46,4,8,11)          148.336          estimate D2E/DX2                !
 ! D46   D(46,4,8,16)            3.09           estimate D2E/DX2                !
 ! D47   D(8,4,45,41)          151.8701         estimate D2E/DX2                !
 ! D48   D(8,4,45,48)           -0.9808         estimate D2E/DX2                !
 ! D49   D(46,4,45,41)          11.8753         estimate D2E/DX2                !
 ! D50   D(46,4,45,48)        -140.9755         estimate D2E/DX2                !
 ! D51   D(8,4,46,14)           -1.1372         estimate D2E/DX2                !
 ! D52   D(8,4,46,42)         -150.4536         estimate D2E/DX2                !
 ! D53   D(45,4,46,14)         143.4534         estimate D2E/DX2                !
 ! D54   D(45,4,46,42)          -5.863          estimate D2E/DX2                !
 ! D55   D(1,5,9,13)             1.52           estimate D2E/DX2                !
 ! D56   D(1,5,9,35)          -154.6621         estimate D2E/DX2                !
 ! D57   D(29,5,9,13)          154.1897         estimate D2E/DX2                !
 ! D58   D(29,5,9,35)           -1.9924         estimate D2E/DX2                !
 ! D59   D(1,5,29,27)            7.9469         estimate D2E/DX2                !
 ! D60   D(1,5,29,31)          161.2296         estimate D2E/DX2                !
 ! D61   D(9,5,29,27)         -145.6468         estimate D2E/DX2                !
 ! D62   D(9,5,29,31)            7.6359         estimate D2E/DX2                !
 ! D63   D(2,6,10,49)           -0.1267         estimate D2E/DX2                !
 ! D64   D(2,6,10,53)          141.3583         estimate D2E/DX2                !
 ! D65   D(15,6,10,49)        -137.6772         estimate D2E/DX2                !
 ! D66   D(15,6,10,53)           3.8078         estimate D2E/DX2                !
 ! D67   D(2,6,15,13)           -1.1938         estimate D2E/DX2                !
 ! D68   D(2,6,15,17)         -143.2017         estimate D2E/DX2                !
 ! D69   D(10,6,15,13)         140.7868         estimate D2E/DX2                !
 ! D70   D(10,6,15,17)          -1.2211         estimate D2E/DX2                !
 ! D71   D(3,7,12,14)           -0.3325         estimate D2E/DX2                !
 ! D72   D(3,7,12,36)          153.2308         estimate D2E/DX2                !
 ! D73   D(30,7,12,14)        -147.2523         estimate D2E/DX2                !
 ! D74   D(30,7,12,36)           6.3111         estimate D2E/DX2                !
 ! D75   D(3,7,30,28)          -14.3872         estimate D2E/DX2                !
 ! D76   D(3,7,30,32)         -162.254          estimate D2E/DX2                !
 ! D77   D(12,7,30,28)         137.7691         estimate D2E/DX2                !
 ! D78   D(12,7,30,32)         -10.0977         estimate D2E/DX2                !
 ! D79   D(4,8,11,50)            0.6464         estimate D2E/DX2                !
 ! D80   D(4,8,11,54)         -142.3836         estimate D2E/DX2                !
 ! D81   D(16,8,11,50)         142.3373         estimate D2E/DX2                !
 ! D82   D(16,8,11,54)          -0.6927         estimate D2E/DX2                !
 ! D83   D(4,8,16,14)           -3.7941         estimate D2E/DX2                !
 ! D84   D(4,8,16,18)          144.1417         estimate D2E/DX2                !
 ! D85   D(11,8,16,14)        -149.0538         estimate D2E/DX2                !
 ! D86   D(11,8,16,18)          -1.118          estimate D2E/DX2                !
 ! D87   D(5,9,13,15)           -1.0094         estimate D2E/DX2                !
 ! D88   D(5,9,13,43)         -143.539          estimate D2E/DX2                !
 ! D89   D(35,9,13,15)         155.9635         estimate D2E/DX2                !
 ! D90   D(35,9,13,43)          13.434          estimate D2E/DX2                !
 ! D91   D(5,9,35,33)           -8.5334         estimate D2E/DX2                !
 ! D92   D(5,9,35,37)          147.8968         estimate D2E/DX2                !
 ! D93   D(13,9,35,33)        -164.736          estimate D2E/DX2                !
 ! D94   D(13,9,35,37)          -8.3057         estimate D2E/DX2                !
 ! D95   D(6,10,49,47)           1.8641         estimate D2E/DX2                !
 ! D96   D(6,10,49,51)         151.5242         estimate D2E/DX2                !
 ! D97   D(53,10,49,47)       -143.7286         estimate D2E/DX2                !
 ! D98   D(53,10,49,51)          5.9314         estimate D2E/DX2                !
 ! D99   D(6,10,53,19)          -3.0133         estimate D2E/DX2                !
 ! D100  D(6,10,53,55)        -152.7596         estimate D2E/DX2                !
 ! D101  D(49,10,53,19)        142.0431         estimate D2E/DX2                !
 ! D102  D(49,10,53,55)         -7.7032         estimate D2E/DX2                !
 ! D103  D(8,11,50,48)          -6.0            estimate D2E/DX2                !
 ! D104  D(8,11,50,52)        -154.5746         estimate D2E/DX2                !
 ! D105  D(54,11,50,48)        140.3604         estimate D2E/DX2                !
 ! D106  D(54,11,50,52)         -8.2142         estimate D2E/DX2                !
 ! D107  D(8,11,54,20)           3.3234         estimate D2E/DX2                !
 ! D108  D(8,11,54,56)         159.0823         estimate D2E/DX2                !
 ! D109  D(50,11,54,20)       -143.0395         estimate D2E/DX2                !
 ! D110  D(50,11,54,56)         12.7194         estimate D2E/DX2                !
 ! D111  D(7,12,14,16)           7.9666         estimate D2E/DX2                !
 ! D112  D(7,12,14,46)         150.032          estimate D2E/DX2                !
 ! D113  D(36,12,14,16)       -146.1131         estimate D2E/DX2                !
 ! D114  D(36,12,14,46)         -4.0477         estimate D2E/DX2                !
 ! D115  D(7,12,36,34)           4.6602         estimate D2E/DX2                !
 ! D116  D(7,12,36,38)        -150.0549         estimate D2E/DX2                !
 ! D117  D(14,12,36,34)        157.4503         estimate D2E/DX2                !
 ! D118  D(14,12,36,38)          2.7353         estimate D2E/DX2                !
 ! D119  D(9,13,15,6)         -142.3616         estimate D2E/DX2                !
 ! D120  D(9,13,15,17)          -0.901          estimate D2E/DX2                !
 ! D121  D(43,13,15,6)           4.6789         estimate D2E/DX2                !
 ! D122  D(43,13,15,17)        146.1395         estimate D2E/DX2                !
 ! D123  D(9,13,43,2)          140.968          estimate D2E/DX2                !
 ! D124  D(9,13,43,39)          -7.989          estimate D2E/DX2                !
 ! D125  D(15,13,43,2)          -6.4061         estimate D2E/DX2                !
 ! D126  D(15,13,43,39)       -155.363          estimate D2E/DX2                !
 ! D127  D(12,14,16,8)         149.6291         estimate D2E/DX2                !
 ! D128  D(12,14,16,18)          3.3191         estimate D2E/DX2                !
 ! D129  D(46,14,16,8)           3.0272         estimate D2E/DX2                !
 ! D130  D(46,14,16,18)       -143.2828         estimate D2E/DX2                !
 ! D131  D(12,14,46,4)        -147.5416         estimate D2E/DX2                !
 ! D132  D(12,14,46,42)          1.8462         estimate D2E/DX2                !
 ! D133  D(16,14,46,4)          -1.1695         estimate D2E/DX2                !
 ! D134  D(16,14,46,42)        148.2184         estimate D2E/DX2                !
 ! D135  D(6,15,17,1)          139.6793         estimate D2E/DX2                !
 ! D136  D(6,15,17,19)          -2.158          estimate D2E/DX2                !
 ! D137  D(13,15,17,1)           2.2393         estimate D2E/DX2                !
 ! D138  D(13,15,17,19)       -139.598          estimate D2E/DX2                !
 ! D139  D(8,16,18,3)         -163.5326         estimate D2E/DX2                !
 ! D140  D(8,16,18,20)           0.3302         estimate D2E/DX2                !
 ! D141  D(14,16,18,3)         -21.3635         estimate D2E/DX2                !
 ! D142  D(14,16,18,20)        142.4993         estimate D2E/DX2                !
 ! D143  D(1,17,19,21)           6.9972         estimate D2E/DX2                !
 ! D144  D(1,17,19,53)        -141.9712         estimate D2E/DX2                !
 ! D145  D(15,17,19,21)        151.941          estimate D2E/DX2                !
 ! D146  D(15,17,19,53)          2.9726         estimate D2E/DX2                !
 ! D147  D(3,18,20,22)           3.8049         estimate D2E/DX2                !
 ! D148  D(3,18,20,54)         165.0426         estimate D2E/DX2                !
 ! D149  D(16,18,20,22)       -158.9475         estimate D2E/DX2                !
 ! D150  D(16,18,20,54)          2.2902         estimate D2E/DX2                !
 ! D151  D(17,19,21,23)         -5.4351         estimate D2E/DX2                !
 ! D152  D(17,19,21,57)       -121.3213         estimate D2E/DX2                !
 ! D153  D(17,19,21,89)        116.2288         estimate D2E/DX2                !
 ! D154  D(53,19,21,23)        142.453          estimate D2E/DX2                !
 ! D155  D(53,19,21,57)         26.5668         estimate D2E/DX2                !
 ! D156  D(53,19,21,89)        -95.8832         estimate D2E/DX2                !
 ! D157  D(17,19,53,10)         -0.3781         estimate D2E/DX2                !
 ! D158  D(17,19,53,55)        145.5673         estimate D2E/DX2                !
 ! D159  D(21,19,53,10)       -145.3071         estimate D2E/DX2                !
 ! D160  D(21,19,53,55)          0.6383         estimate D2E/DX2                !
 ! D161  D(18,20,22,24)         18.3916         estimate D2E/DX2                !
 ! D162  D(18,20,22,58)        129.2955         estimate D2E/DX2                !
 ! D163  D(18,20,22,86)       -107.3377         estimate D2E/DX2                !
 ! D164  D(54,20,22,24)       -143.5277         estimate D2E/DX2                !
 ! D165  D(54,20,22,58)        -32.6238         estimate D2E/DX2                !
 ! D166  D(54,20,22,86)         90.743          estimate D2E/DX2                !
 ! D167  D(18,20,54,11)         -4.1069         estimate D2E/DX2                !
 ! D168  D(18,20,54,56)       -155.3779         estimate D2E/DX2                !
 ! D169  D(22,20,54,11)        158.0695         estimate D2E/DX2                !
 ! D170  D(22,20,54,56)          6.7985         estimate D2E/DX2                !
 ! D171  D(19,21,23,1)           2.1581         estimate D2E/DX2                !
 ! D172  D(19,21,23,25)       -149.1077         estimate D2E/DX2                !
 ! D173  D(57,21,23,1)         118.985          estimate D2E/DX2                !
 ! D174  D(57,21,23,25)        -32.2808         estimate D2E/DX2                !
 ! D175  D(89,21,23,1)        -119.8177         estimate D2E/DX2                !
 ! D176  D(89,21,23,25)         88.9165         estimate D2E/DX2                !
 ! D177  D(19,21,57,59)        143.942          estimate D2E/DX2                !
 ! D178  D(19,21,57,83)        -26.9609         estimate D2E/DX2                !
 ! D179  D(23,21,57,59)         33.0999         estimate D2E/DX2                !
 ! D180  D(23,21,57,83)       -137.803          estimate D2E/DX2                !
 ! D181  D(89,21,57,59)        -90.7747         estimate D2E/DX2                !
 ! D182  D(89,21,57,83)         98.3223         estimate D2E/DX2                !
 ! D183  D(20,22,24,26)        -21.5502         estimate D2E/DX2                !
 ! D184  D(20,22,24,62)        129.2219         estimate D2E/DX2                !
 ! D185  D(58,22,24,26)       -138.1207         estimate D2E/DX2                !
 ! D186  D(58,22,24,62)         12.6515         estimate D2E/DX2                !
 ! D187  D(86,22,24,26)        103.3258         estimate D2E/DX2                !
 ! D188  D(86,22,24,62)       -105.902          estimate D2E/DX2                !
 ! D189  D(20,22,58,60)       -130.9218         estimate D2E/DX2                !
 ! D190  D(20,22,58,84)         28.095          estimate D2E/DX2                !
 ! D191  D(24,22,58,60)        -12.8839         estimate D2E/DX2                !
 ! D192  D(24,22,58,84)        146.1329         estimate D2E/DX2                !
 ! D193  D(86,22,58,60)        106.1946         estimate D2E/DX2                !
 ! D194  D(86,22,58,84)        -94.7885         estimate D2E/DX2                !
 ! D195  D(1,23,25,27)           0.4598         estimate D2E/DX2                !
 ! D196  D(1,23,25,61)        -146.0922         estimate D2E/DX2                !
 ! D197  D(21,23,25,27)        149.4686         estimate D2E/DX2                !
 ! D198  D(21,23,25,61)          2.9165         estimate D2E/DX2                !
 ! D199  D(22,24,26,3)           1.8596         estimate D2E/DX2                !
 ! D200  D(22,24,26,28)        148.9285         estimate D2E/DX2                !
 ! D201  D(62,24,26,3)        -146.8987         estimate D2E/DX2                !
 ! D202  D(62,24,26,28)          0.1703         estimate D2E/DX2                !
 ! D203  D(22,24,62,60)         -8.0764         estimate D2E/DX2                !
 ! D204  D(22,24,62,64)       -152.6241         estimate D2E/DX2                !
 ! D205  D(26,24,62,60)        144.2771         estimate D2E/DX2                !
 ! D206  D(26,24,62,64)         -0.2706         estimate D2E/DX2                !
 ! D207  D(23,25,27,29)         -1.0384         estimate D2E/DX2                !
 ! D208  D(23,25,27,65)       -148.298          estimate D2E/DX2                !
 ! D209  D(61,25,27,29)        149.1937         estimate D2E/DX2                !
 ! D210  D(61,25,27,65)          1.9341         estimate D2E/DX2                !
 ! D211  D(23,25,61,59)         24.8945         estimate D2E/DX2                !
 ! D212  D(23,25,61,63)        142.6896         estimate D2E/DX2                !
 ! D213  D(23,25,61,90)        -97.7645         estimate D2E/DX2                !
 ! D214  D(27,25,61,59)       -124.2671         estimate D2E/DX2                !
 ! D215  D(27,25,61,63)         -6.472          estimate D2E/DX2                !
 ! D216  D(27,25,61,90)        113.0739         estimate D2E/DX2                !
 ! D217  D(3,26,28,30)           0.5158         estimate D2E/DX2                !
 ! D218  D(3,26,28,66)         148.0972         estimate D2E/DX2                !
 ! D219  D(24,26,28,30)       -150.0579         estimate D2E/DX2                !
 ! D220  D(24,26,28,66)         -2.4764         estimate D2E/DX2                !
 ! D221  D(25,27,29,5)          -3.3877         estimate D2E/DX2                !
 ! D222  D(25,27,29,31)       -157.5273         estimate D2E/DX2                !
 ! D223  D(65,27,29,5)         139.8214         estimate D2E/DX2                !
 ! D224  D(65,27,29,31)        -14.3182         estimate D2E/DX2                !
 ! D225  D(25,27,65,63)          4.0589         estimate D2E/DX2                !
 ! D226  D(25,27,65,67)        156.6115         estimate D2E/DX2                !
 ! D227  D(29,27,65,63)       -143.565          estimate D2E/DX2                !
 ! D228  D(29,27,65,67)          8.9876         estimate D2E/DX2                !
 ! D229  D(26,28,30,7)           8.8033         estimate D2E/DX2                !
 ! D230  D(26,28,30,32)        157.0145         estimate D2E/DX2                !
 ! D231  D(66,28,30,7)        -139.8636         estimate D2E/DX2                !
 ! D232  D(66,28,30,32)          8.3477         estimate D2E/DX2                !
 ! D233  D(26,28,66,64)          4.5562         estimate D2E/DX2                !
 ! D234  D(26,28,66,68)       -150.5484         estimate D2E/DX2                !
 ! D235  D(30,28,66,64)        147.8961         estimate D2E/DX2                !
 ! D236  D(30,28,66,68)         -7.2084         estimate D2E/DX2                !
 ! D237  D(5,29,31,33)          -2.7058         estimate D2E/DX2                !
 ! D238  D(5,29,31,69)        -148.8517         estimate D2E/DX2                !
 ! D239  D(27,29,31,33)        151.6048         estimate D2E/DX2                !
 ! D240  D(27,29,31,69)          5.4588         estimate D2E/DX2                !
 ! D241  D(7,30,32,34)           2.6951         estimate D2E/DX2                !
 ! D242  D(7,30,32,70)         144.4893         estimate D2E/DX2                !
 ! D243  D(28,30,32,34)       -142.2913         estimate D2E/DX2                !
 ! D244  D(28,30,32,70)         -0.4971         estimate D2E/DX2                !
 ! D245  D(29,31,33,35)         -8.3627         estimate D2E/DX2                !
 ! D246  D(29,31,33,73)       -155.8965         estimate D2E/DX2                !
 ! D247  D(69,31,33,35)        141.7207         estimate D2E/DX2                !
 ! D248  D(69,31,33,73)         -5.8131         estimate D2E/DX2                !
 ! D249  D(29,31,69,67)          9.5836         estimate D2E/DX2                !
 ! D250  D(29,31,69,71)        154.8044         estimate D2E/DX2                !
 ! D251  D(33,31,69,67)       -140.0406         estimate D2E/DX2                !
 ! D252  D(33,31,69,71)          5.1802         estimate D2E/DX2                !
 ! D253  D(30,32,34,36)          8.7264         estimate D2E/DX2                !
 ! D254  D(30,32,34,74)        154.0725         estimate D2E/DX2                !
 ! D255  D(70,32,34,36)       -136.3394         estimate D2E/DX2                !
 ! D256  D(70,32,34,74)          9.0067         estimate D2E/DX2                !
 ! D257  D(30,32,70,68)         -8.4057         estimate D2E/DX2                !
 ! D258  D(30,32,70,72)       -153.6145         estimate D2E/DX2                !
 ! D259  D(34,32,70,68)        136.6555         estimate D2E/DX2                !
 ! D260  D(34,32,70,72)         -8.5533         estimate D2E/DX2                !
 ! D261  D(31,33,35,9)          13.6946         estimate D2E/DX2                !
 ! D262  D(31,33,35,37)       -143.4454         estimate D2E/DX2                !
 ! D263  D(73,33,35,9)         156.2033         estimate D2E/DX2                !
 ! D264  D(73,33,35,37)         -0.9368         estimate D2E/DX2                !
 ! D265  D(31,33,73,71)          4.1941         estimate D2E/DX2                !
 ! D266  D(31,33,73,75)        146.3765         estimate D2E/DX2                !
 ! D267  D(35,33,73,71)       -142.811          estimate D2E/DX2                !
 ! D268  D(35,33,73,75)         -0.6286         estimate D2E/DX2                !
 ! D269  D(32,34,36,12)        -12.0792         estimate D2E/DX2                !
 ! D270  D(32,34,36,38)        143.1504         estimate D2E/DX2                !
 ! D271  D(74,34,36,12)       -151.6193         estimate D2E/DX2                !
 ! D272  D(74,34,36,38)          3.6104         estimate D2E/DX2                !
 ! D273  D(32,34,74,72)         -5.8492         estimate D2E/DX2                !
 ! D274  D(32,34,74,76)       -148.1634         estimate D2E/DX2                !
 ! D275  D(36,34,74,72)        138.6375         estimate D2E/DX2                !
 ! D276  D(36,34,74,76)         -3.6767         estimate D2E/DX2                !
 ! D277  D(9,35,37,39)          -2.224          estimate D2E/DX2                !
 ! D278  D(9,35,37,77)        -155.2143         estimate D2E/DX2                !
 ! D279  D(33,35,37,39)        154.0937         estimate D2E/DX2                !
 ! D280  D(33,35,37,77)          1.1034         estimate D2E/DX2                !
 ! D281  D(12,36,38,42)          0.7158         estimate D2E/DX2                !
 ! D282  D(12,36,38,78)        154.5534         estimate D2E/DX2                !
 ! D283  D(34,36,38,42)       -153.7911         estimate D2E/DX2                !
 ! D284  D(34,36,38,78)          0.0465         estimate D2E/DX2                !
 ! D285  D(35,37,39,43)          7.9054         estimate D2E/DX2                !
 ! D286  D(35,37,39,79)       -144.5194         estimate D2E/DX2                !
 ! D287  D(77,37,39,43)        161.3695         estimate D2E/DX2                !
 ! D288  D(77,37,39,79)          8.9447         estimate D2E/DX2                !
 ! D289  D(35,37,77,75)          0.2318         estimate D2E/DX2                !
 ! D290  D(35,37,77,81)        140.7792         estimate D2E/DX2                !
 ! D291  D(39,37,77,75)       -153.3413         estimate D2E/DX2                !
 ! D292  D(39,37,77,81)        -12.7939         estimate D2E/DX2                !
 ! D293  D(36,38,42,46)         -2.9293         estimate D2E/DX2                !
 ! D294  D(36,38,42,80)        148.8563         estimate D2E/DX2                !
 ! D295  D(78,38,42,46)       -157.0838         estimate D2E/DX2                !
 ! D296  D(78,38,42,80)         -5.2982         estimate D2E/DX2                !
 ! D297  D(36,38,78,76)         -3.6621         estimate D2E/DX2                !
 ! D298  D(36,38,78,81)       -144.1384         estimate D2E/DX2                !
 ! D299  D(42,38,78,76)        150.7879         estimate D2E/DX2                !
 ! D300  D(42,38,78,81)         10.3116         estimate D2E/DX2                !
 ! D301  D(37,39,43,2)        -147.8532         estimate D2E/DX2                !
 ! D302  D(37,39,43,13)         -3.0676         estimate D2E/DX2                !
 ! D303  D(79,39,43,2)           5.892          estimate D2E/DX2                !
 ! D304  D(79,39,43,13)        150.6776         estimate D2E/DX2                !
 ! D305  D(37,39,79,40)        138.8552         estimate D2E/DX2                !
 ! D306  D(37,39,79,82)         -0.2039         estimate D2E/DX2                !
 ! D307  D(43,39,79,40)        -14.4695         estimate D2E/DX2                !
 ! D308  D(43,39,79,82)       -153.5286         estimate D2E/DX2                !
 ! D309  D(44,40,41,45)         -1.689          estimate D2E/DX2                !
 ! D310  D(44,40,41,80)       -149.8392         estimate D2E/DX2                !
 ! D311  D(79,40,41,45)        147.5939         estimate D2E/DX2                !
 ! D312  D(79,40,41,80)         -0.5563         estimate D2E/DX2                !
 ! D313  D(41,40,44,2)         151.6808         estimate D2E/DX2                !
 ! D314  D(41,40,44,47)         -0.9793         estimate D2E/DX2                !
 ! D315  D(79,40,44,2)           6.5274         estimate D2E/DX2                !
 ! D316  D(79,40,44,47)       -146.1327         estimate D2E/DX2                !
 ! D317  D(41,40,79,39)       -140.6271         estimate D2E/DX2                !
 ! D318  D(41,40,79,82)          3.2104         estimate D2E/DX2                !
 ! D319  D(44,40,79,39)          8.5587         estimate D2E/DX2                !
 ! D320  D(44,40,79,82)        152.3962         estimate D2E/DX2                !
 ! D321  D(40,41,45,4)        -150.3161         estimate D2E/DX2                !
 ! D322  D(40,41,45,48)          2.9855         estimate D2E/DX2                !
 ! D323  D(80,41,45,4)          -6.4099         estimate D2E/DX2                !
 ! D324  D(80,41,45,48)        146.8917         estimate D2E/DX2                !
 ! D325  D(40,41,80,42)        142.2064         estimate D2E/DX2                !
[...]
 Alpha virt. eigenvalues --    1.24737   1.24929   1.25328   1.25441   1.25872
 Alpha virt. eigenvalues --    1.26017   1.26189   1.26497   1.27447   1.27622
 Alpha virt. eigenvalues --    1.27762   1.28242   1.28499   1.28580   1.28839
 Alpha virt. eigenvalues --    1.29310   1.29773   1.29888   1.30383   1.30743
 Alpha virt. eigenvalues --    1.31128   1.31319   1.31577   1.31849   1.32285
 Alpha virt. eigenvalues --    1.32522   1.32665   1.33170   1.33301   1.33865
 Alpha virt. eigenvalues --    1.34474   1.34643   1.34769   1.35386   1.35906
 Alpha virt. eigenvalues --    1.36082   1.36807   1.37490   1.37775   1.37939
 Alpha virt. eigenvalues --    1.38198   1.39085   1.39680   1.40277   1.40728
 Alpha virt. eigenvalues --    1.40790   1.41529   1.41907   1.42520   1.42938
 Alpha virt. eigenvalues --    1.43438   1.43891   1.44342   1.44862   1.45641
 Alpha virt. eigenvalues --    1.46334   1.46631   1.47110   1.47456   1.47776
 Alpha virt. eigenvalues --    1.47855   1.48464   1.48862   1.50086   1.50671
 Alpha virt. eigenvalues --    1.51608   1.52203   1.52795   1.53244   1.53693
 Alpha virt. eigenvalues --    1.54087   1.54267   1.54874   1.55440   1.56002
 Alpha virt. eigenvalues --    1.56180   1.56707   1.56810   1.57967   1.58227
 Alpha virt. eigenvalues --    1.59102   1.59636   1.59713   1.60570   1.60685
 Alpha virt. eigenvalues --    1.61313   1.61543   1.61831   1.62370   1.62482
 Alpha virt. eigenvalues --    1.62810   1.63293   1.64108   1.64578   1.64731
 Alpha virt. eigenvalues --    1.64829   1.65235   1.65437   1.65732   1.66102
 Alpha virt. eigenvalues --    1.66306   1.66389   1.66664   1.66802   1.67133
 Alpha virt. eigenvalues --    1.67563   1.67889   1.68132   1.68382   1.68840
 Alpha virt. eigenvalues --    1.68952   1.69167   1.69479   1.69792   1.69955
 Alpha virt. eigenvalues --    1.70296   1.70352   1.70465   1.70705   1.70787
 Alpha virt. eigenvalues --    1.70975   1.71189   1.71594   1.71818   1.71946
 Alpha virt. eigenvalues --    1.72214   1.72593   1.72716   1.72886   1.73108
 Alpha virt. eigenvalues --    1.73366   1.73567   1.73987   1.74412   1.74495
 Alpha virt. eigenvalues --    1.74742   1.74911   1.75106   1.75276   1.75683
 Alpha virt. eigenvalues --    1.75873   1.76013   1.76411   1.76443   1.76726
 Alpha virt. eigenvalues --    1.77009   1.77180   1.77259   1.77684   1.77972
 Alpha virt. eigenvalues --    1.78405   1.78619   1.78856   1.78965   1.79319
 Alpha virt. eigenvalues --    1.79408   1.79826   1.80082   1.80692   1.80742
 Alpha virt. eigenvalues --    1.81297   1.81401   1.81738   1.82259   1.82687
 Alpha virt. eigenvalues --    1.83248   1.83665   1.83990   1.84230   1.84512
 Alpha virt. eigenvalues --    1.85397   1.85672   1.86041   1.86573   1.86923
 Alpha virt. eigenvalues --    1.87056   1.87725   1.87914   1.88538   1.88694
 Alpha virt. eigenvalues --    1.89409   1.89524   1.89944   1.90496   1.90803
 Alpha virt. eigenvalues --    1.91163   1.91353   1.92223   1.92446   1.92665
 Alpha virt. eigenvalues --    1.93325   1.93402   1.93905   1.94013   1.94606
 Alpha virt. eigenvalues --    1.94908   1.95347   1.95684   1.96054   1.96178
 Alpha virt. eigenvalues --    1.96259   1.96779   1.97131   1.97437   1.97955
 Alpha virt. eigenvalues --    1.98189   1.98266   1.98658   1.98974   1.99163
 Alpha virt. eigenvalues --    1.99333   1.99452   1.99852   1.99946   2.00482
 Alpha virt. eigenvalues --    2.00655   2.00846   2.01056   2.01186   2.01419
 Alpha virt. eigenvalues --    2.01527   2.01861   2.02045   2.02358   2.02818
 Alpha virt. eigenvalues --    2.03285   2.03362   2.03784   2.03944   2.04062
 Alpha virt. eigenvalues --    2.04349   2.04680   2.04865   2.05260   2.05411
 Alpha virt. eigenvalues --    2.05975   2.06343   2.06656   2.07111   2.07730
 Alpha virt. eigenvalues --    2.07912   2.08121   2.08839   2.09621   2.09919
 Alpha virt. eigenvalues --    2.10356   2.10795   2.11165   2.11445   2.11817
 Alpha virt. eigenvalues --    2.12022   2.12421   2.12629   2.13299   2.13679
 Alpha virt. eigenvalues --    2.13964   2.14456   2.15091   2.15360   2.15979
 Alpha virt. eigenvalues --    2.16217   2.17337   2.17632   2.18115   2.18267
 Alpha virt. eigenvalues --    2.18685   2.19172   2.19379   2.20030   2.20360
 Alpha virt. eigenvalues --    2.20849   2.21535   2.21700   2.22104   2.22384
 Alpha virt. eigenvalues --    2.22708   2.22870   2.23138   2.23584   2.24158
 Alpha virt. eigenvalues --    2.24619   2.24916   2.25151   2.25655   2.25894
 Alpha virt. eigenvalues --    2.26285   2.26840   2.27274   2.27304   2.27591
 Alpha virt. eigenvalues --    2.28102   2.28312   2.28943   2.29170   2.29519
 Alpha virt. eigenvalues --    2.30192   2.30815   2.31043   2.31263   2.31775
 Alpha virt. eigenvalues --    2.32264   2.32480   2.33211   2.33702   2.34466
 Alpha virt. eigenvalues --    2.34831   2.35336   2.36093   2.36445   2.37101
 Alpha virt. eigenvalues --    2.37763   2.38178   2.39205   2.39575   2.40099
 Alpha virt. eigenvalues --    2.40732   2.41028   2.41653   2.42092   2.42518
 Alpha virt. eigenvalues --    2.42746   2.43221   2.43800   2.44557   2.44891
 Alpha virt. eigenvalues --    2.45129   2.45541   2.45856   2.46912   2.47054
 Alpha virt. eigenvalues --    2.48643   2.49078   2.49453   2.50176   2.50532
 Alpha virt. eigenvalues --    2.51193   2.51472   2.51580   2.52469   2.52571
 Alpha virt. eigenvalues --    2.53264   2.53366   2.53880   2.54261   2.54697
 Alpha virt. eigenvalues --    2.54830   2.55025   2.55445   2.55693   2.56237
 Alpha virt. eigenvalues --    2.56433   2.56711   2.57199   2.57599   2.57771
 Alpha virt. eigenvalues --    2.58018   2.58319   2.58628   2.58962   2.59061
 Alpha virt. eigenvalues --    2.59503   2.59739   2.60098   2.60562   2.60701
 Alpha virt. eigenvalues --    2.61027   2.61255   2.62009   2.62543   2.63036
 Alpha virt. eigenvalues --    2.63475   2.63793   2.64162   2.64209   2.64600
 Alpha virt. eigenvalues --    2.64845   2.64893   2.65388   2.65817   2.65933
 Alpha virt. eigenvalues --    2.66032   2.66626   2.67310   2.67468   2.67794
 Alpha virt. eigenvalues --    2.67937   2.68207   2.68799   2.68927   2.69293
 Alpha virt. eigenvalues --    2.69860   2.70189   2.70579   2.71099   2.71558
 Alpha virt. eigenvalues --    2.72288   2.72697   2.72828   2.73700   2.73765
 Alpha virt. eigenvalues --    2.73925   2.74403   2.75456   2.75770   2.75988
 Alpha virt. eigenvalues --    2.76717   2.77051   2.77355   2.77956   2.78256
 Alpha virt. eigenvalues --    2.78427   2.79007   2.79628   2.79751   2.80406
 Alpha virt. eigenvalues --    2.80610   2.80923   2.81187   2.81615   2.81861
 Alpha virt. eigenvalues --    2.82503   2.82943   2.83422   2.84004   2.84706
 Alpha virt. eigenvalues --    2.84863   2.85065   2.85444   2.86343   2.86603
 Alpha virt. eigenvalues --    2.87128   2.88010   2.88785   2.88971   2.89541
 Alpha virt. eigenvalues --    2.89849   2.90085   2.90779   2.91064   2.91303
 Alpha virt. eigenvalues --    2.91427   2.92208   2.92442   2.92898   2.93540
 Alpha virt. eigenvalues --    2.94052   2.94322   2.95291   2.95417   2.95761
 Alpha virt. eigenvalues --    2.96233   2.97420   2.98229   2.98336   3.00051
 Alpha virt. eigenvalues --    3.00511   3.01071   3.02526   3.02780   3.04088
 Alpha virt. eigenvalues --    3.05656   3.08068   3.08353   3.08464   3.09829
 Alpha virt. eigenvalues --    3.11620   3.14151   3.14361   3.15654   3.16268
 Alpha virt. eigenvalues --    3.19021   3.19379   3.20590   3.22712   3.23543
 Alpha virt. eigenvalues --    3.26666   3.27410   3.29079   3.29572   3.31632
 Alpha virt. eigenvalues --    3.33508   3.34225   3.36104   3.37434   3.39048
 Alpha virt. eigenvalues --    3.40730   3.42484   3.43591   3.45236   3.48358
 Alpha virt. eigenvalues --    3.50318   3.50674   3.52248   3.54759   3.57344
 Alpha virt. eigenvalues --    3.59948   4.00551   4.01121   4.01576   4.01909
 Alpha virt. eigenvalues --    4.03454   4.03942   4.04615   4.04760   4.05497
 Alpha virt. eigenvalues --    4.05843   4.06947   4.07279   4.07613   4.08003
 Alpha virt. eigenvalues --    4.08427   4.08966   4.10320   4.10966   4.11692
 Alpha virt. eigenvalues --    4.12307   4.12978   4.13393   4.13838   4.15611
 Alpha virt. eigenvalues --    4.16349   4.17711   4.18354   4.19097   4.19983
 Alpha virt. eigenvalues --    4.20919   4.20933   4.22131   4.22469   4.22712
 Alpha virt. eigenvalues --    4.24114   4.24392   4.27027   4.27239   4.28222
 Alpha virt. eigenvalues --    4.28549   4.28723   4.29193   4.29285   4.29880
 Alpha virt. eigenvalues --    4.30658   4.32742   4.34171   4.34579   4.36289
 Alpha virt. eigenvalues --    4.39184   4.39945   4.40936   4.41332   4.41484
 Alpha virt. eigenvalues --    4.44073   4.45214   4.46076   4.47675   4.49168
 Alpha virt. eigenvalues --    4.50238   4.51948   4.53305   4.55193   4.55843
 Alpha virt. eigenvalues --    4.57180   4.59139   4.59898   4.62844   4.63152
 Alpha virt. eigenvalues --    4.65255   4.65595   4.68347   4.69490   4.71920
 Alpha virt. eigenvalues --    4.77301   4.81190   4.81635   4.84481   4.85896
 Alpha virt. eigenvalues --    4.89391   4.90871   4.91900   4.95652   5.04147
 Alpha virt. eigenvalues --    5.04614   5.07918   5.15609   5.16121   5.20471
 Alpha virt. eigenvalues --    5.24108
          Condensed to atoms (all electrons):
 Mulliken charges:
               1
     1  C    0.003195
     2  C   -0.025885
     3  C   -0.365664
     4  C   -0.025671
     5  C    0.034586
     6  C   -0.020110
     7  C    0.048821
     8  C   -0.025905
     9  C    0.045539
    10  C    0.030085
    11  C    0.026229
    12  C    0.070213
    13  C   -0.025659
    14  C   -0.050663
    15  C   -0.020221
    16  C    0.007479
    17  C    0.027246
    18  C    0.125077
    19  C    0.091179
    20  C    0.153007
    21  C   -0.375111
    22  C   -0.384563
    23  C    0.092973
    24  C    0.090413
    25  C    0.089369
    26  C    0.092422
    27  C    0.008083
    28  C    0.009600
    29  C    0.044805
    30  C    0.024973
    31  C   -0.026202
    32  C   -0.016754
    33  C   -0.023547
    34  C   -0.022926
    35  C    0.036799
    36  C    0.040383
    37  C    0.048171
    38  C    0.045139
    39  C    0.051134
    40  C   -0.030050
    41  C   -0.034176
    42  C    0.059084
    43  C   -0.034733
    44  C    0.058558
    45  C    0.058186
    46  C   -0.026962
    47  C    0.031576
    48  C    0.042181
    49  C    0.002906
    50  C    0.002719
    51  C    0.086944
    52  C    0.090394
    53  C    0.090823
    54  C    0.074607
    55  C   -0.371881
    56  C   -0.379483
    57  C    0.124453
    58  C    0.080039
    59  C    0.125975
    60  C    0.041794
    61  C   -0.369554
    62  C   -0.010905
    63  C    0.044477
    64  C    0.061077
    65  C    0.015668
    66  C    0.033372
    67  C    0.043331
    68  C    0.046389
    69  C   -0.019566
    70  C   -0.021458
    71  C   -0.005884
    72  C    0.006586
    73  C   -0.008837
    74  C   -0.007064
    75  C    0.003848
    76  C    0.000760
    77  C   -0.021283
    78  C   -0.021939
    79  C   -0.019685
    80  C   -0.024911
    81  C    0.000307
    82  C   -0.023957
    83  C    0.115911
    84  C    0.154526
    85  Cl  -0.010447
    86  Cl   0.003847
    87  Cl   0.007632
    88  Cl   0.003767
    89  Cl   0.007726
    90  Cl  -0.004729
 Sum of Mulliken charges =  -0.00000
 Mulliken charges with hydrogens summed into heavy atoms:
               1
     1  C    0.003195
     2  C   -0.025885
     3  C   -0.365664
     4  C   -0.025671
     5  C    0.034586
     6  C   -0.020110
     7  C    0.048821
     8  C   -0.025905
     9  C    0.045539
    10  C    0.030085
    11  C    0.026229
    12  C    0.070213
    13  C   -0.025659
    14  C   -0.050663
    15  C   -0.020221
    16  C    0.007479
    17  C    0.027246
    18  C    0.125077
    19  C    0.091179
    20  C    0.153007
    21  C   -0.375111
    22  C   -0.384563
    23  C    0.092973
    24  C    0.090413
    25  C    0.089369
    26  C    0.092422
    27  C    0.008083
    28  C    0.009600
    29  C    0.044805
    30  C    0.024973
    31  C   -0.026202
    32  C   -0.016754
    33  C   -0.023547
    34  C   -0.022926
    35  C    0.036799
    36  C    0.040383
    37  C    0.048171
    38  C    0.045139
    39  C    0.051134
    40  C   -0.030050
    41  C   -0.034176
    42  C    0.059084
    43  C   -0.034733
    44  C    0.058558
    45  C    0.058186
    46  C   -0.026962
    47  C    0.031576
    48  C    0.042181
    49  C    0.002906
    50  C    0.002719
    51  C    0.086944
    52  C    0.090394
    53  C    0.090823
    54  C    0.074607
    55  C   -0.371881
    56  C   -0.379483
    57  C    0.124453
    58  C    0.080039
    59  C    0.125975
    60  C    0.041794
    61  C   -0.369554
    62  C   -0.010905
    63  C    0.044477
    64  C    0.061077
    65  C    0.015668
    66  C    0.033372
    67  C    0.043331
    68  C    0.046389
    69  C   -0.019566
    70  C   -0.021458
    71  C   -0.005884
    72  C    0.006586
    73  C   -0.008837
    74  C   -0.007064
    75  C    0.003848
    76  C    0.000760
    77  C   -0.021283
    78  C   -0.021939
    79  C   -0.019685
    80  C   -0.024911
    81  C    0.000307
    82  C   -0.023957
    83  C    0.115911
    84  C    0.154526
    85  Cl  -0.010447
    86  Cl   0.003847
    87  Cl   0.007632
    88  Cl   0.003767
    89  Cl   0.007726
    90  Cl  -0.004729
 Electronic spatial extent (au):  <R**2>=          46566.2783
 Charge=              0.0000 electrons
 Dipole moment (field-independent basis, Debye):
    X=             -6.3266    Y=             -3.7524    Z=             -0.2684  Tot=              7.3606
 Quadrupole moment (field-independent basis, Debye-Ang):
   XX=           -550.9223   YY=           -547.0926   ZZ=           -532.9128
   XY=              0.2107   XZ=             -6.0859   YZ=             -0.2038
 Traceless Quadrupole moment (field-independent basis, Debye-Ang):
   XX=             -7.2797   YY=             -3.4500   ZZ=             10.7297
   XY=              0.2107   XZ=             -6.0859   YZ=             -0.2038
 Octapole moment (field-independent basis, Debye-Ang**2):
  XXX=            -19.7775  YYY=            -63.4436  ZZZ=              6.6639  XYY=             16.7072
  XXY=             15.1310  XXZ=             14.6084  XZZ=              7.7105  YZZ=             24.3874
  YYZ=              5.1952  XYZ=             17.1671
 Hexadecapole moment (field-independent basis, Debye-Ang**3):
 XXXX=         -26432.0445 YYYY=         -22951.8105 ZZZZ=         -18528.5138 XXXY=             87.0255
 XXXZ=             73.6788 YYYX=             17.1888 YYYZ=           -108.1448 ZZZX=            -97.4979
 ZZZY=             -6.0768 XXYY=          -8218.7698 XXZZ=          -7554.6838 YYZZ=          -6825.1936
 XXYZ=             36.5549 YYXZ=             -2.9978 ZZXY=              7.7570
 N-N= 1.880950275094D+04 E-N=-5.158296154272D+04  KE= 5.923810066628D+03
 No NMR shielding tensors so no spin-rotation constants.
 Leave Link  601 at Wed Jun 29 06:04:29 2022, MaxMem=  1342177280 cpu:              23.9 elap:               1.2
 (Enter /home/mkliu/g16/l9999.exe)
 1\1\GINC-NODE05\FOpt\RB3LYP\6-31G(d,p)\C84Cl6\MKLIU\29-Jun-2022\0\\#P 
 opt b3lyp/6-31G(d, p) empiricaldispersion=GD3\\force\\0,1\C,8.53022767
 14,18.8873525762,10.7451704765\C,12.4031461996,20.135336812,8.90740113
 83\C,8.2013417407,27.1430821677,10.5692155716\C,12.2718257956,25.59033
 27967,8.938943628\C,8.049541934,19.0955898552,9.4188706004\C,12.072141
 6521,19.4975123666,10.151988852\C,7.9368855996,26.9011269895,9.0768262
 946\C,11.8229299862,26.1397595355,10.1842142051\C,9.0086962908,19.1712
 068106,8.3174770145\C,12.3185101587,20.1510529018,11.3527259224\C,12.0
 745519559,25.47418594,11.370575144\C,8.941129919,26.7037007758,8.09845
 62501\C,10.381490765,19.0108554039,8.6284634016\C,10.2787933833,26.739
 328427,8.5633381691\C,10.8390956069,18.7899624737,9.9794697885\C,10.57
 88070844,26.8026829232,9.9923406055\C,9.9296414981,18.7583712145,11.02
 51973043\C,9.6023437115,26.7601371212,10.9905200556\C,10.2235528631,19
 .3695096249,12.2902389573\C,9.8624945458,26.0592565877,12.2066644455\C
 ,8.9361199824,19.7949987713,12.9634520285\C,8.7358039183,25.5817196022
 ,13.0952212509\C,7.9077778672,19.4744699191,11.8828567473\C,7.40753897
 32,25.5303909886,12.361301618\C,6.7516368456,20.1917544368,11.73937331
 77\C,7.1467000281,26.2579083551,11.2229008576\C,6.189656739,20.3441658
 45,10.4592419626\C,6.2681719475,25.7462528968,10.2461883892\C,6.783872
 5498,19.7793013996,9.3029147155\C,6.7018930773,26.252898498,8.95853371
 95\C,6.4322127295,20.374392653,8.0699475057\C,6.3531780736,25.58298021
 61,7.7946856068\C,7.3324704859,20.3523358965,6.9545008084\C,7.30007513
 54,25.4957191733,6.7103426813\C,8.6697118991,19.8988244581,7.100967725
 9\C,8.6377942599,25.9278099655,6.8878233416\C,9.7151920916,20.58711614
 4,6.335163687\C,9.7020264022,25.1659371043,6.2262890123\C,11.086342680
 3,20.5753668168,6.8375311838\C,12.7897586916,22.1747485607,7.695790900
 1\C,12.776103909,23.6035299133,7.6949832148\C,11.0508943596,25.1754985
 509,6.7956957879\C,11.398282514,19.7562577582,7.94297832\C,12.99353121
 09,21.4247596206,8.8836915945\C,12.9178147157,24.3319722964,8.90226524
 97\C,11.3092266495,25.9876550897,7.9375467031\C,13.2147359704,22.14457
 95093,10.1370230278\C,13.1664014129,23.5942006998,10.1471004794\C,12.9
 118084229,21.4636070048,11.3504817904\C,12.8007436167,24.224492129,11.
 3634837116\C,12.4667673839,22.1448865376,12.5178653062\C,12.420861015,
 23.504744827,12.5252921744\C,11.392475046,20.0581511784,12.446741432\C
 ,11.1063202168,25.4591764282,12.40088495\C,11.4968274382,21.2911125661
 ,13.3211267557\C,11.3897710935,24.2747817513,13.3283140779\C,8.9344252
 66,21.3036603323,13.2542624227\C,8.925407292,24.10539906,13.4543411388
 \C,7.7183191632,22.0142957823,13.1312245256\C,7.7335986389,23.40406381
 8,13.2276757845\C,6.4425345755,21.4007920693,12.5917961653\C,6.7851635
 98,24.2810996819,12.5350789443\C,5.7597312708,22.3237903083,11.5803173
 696\C,5.8868905149,23.7391967127,11.5837028617\C,5.5241898234,21.64191
 31592,10.3976033546\C,5.6447550411,24.468752839,10.3546144326\C,5.2831
 239538,22.3067985989,9.1542447847\C,5.3084809682,23.7528874456,9.12914
 45491\C,5.6080569483,21.5590648463,7.9900069134\C,5.5846865698,24.3799
 355371,7.8690922175\C,5.9304047077,22.2188621401,6.7640636258\C,5.9165
 848885,23.6043322348,6.7035419076\C,6.9886935451,21.4661467086,6.11036
 90292\C,6.9709890512,24.3020869486,5.9796524805\C,7.9783320342,22.1311
 201619,5.4174135873\C,7.9749529058,23.5858050375,5.3570990824\C,9.3399
 835076,21.6810756191,5.5126190319\C,9.3355025933,24.0374476193,5.44462
 31072\C,11.9171537383,21.7103911125,6.6475899878\C,11.8958519776,24.05
 00230508,6.6422650791\C,10.1749136067,22.8559379185,5.3972613675\C,11.
 4257336362,22.8703963115,5.9702870027\C,10.1484601672,22.0122948495,13
 .4356146375\C,10.1369649095,23.4326066889,13.5166087423\Cl,7.912174635
 7,28.9324701092,10.9924247975\Cl,8.6080463938,26.6248029455,14.6170003
 586\Cl,12.046092246,24.8300959015,14.9603166283\Cl,12.13894986,20.8894
 436717,15.0045123949\Cl,8.6126277941,18.8674436989,14.5233614022\Cl,5.
 2902004683,20.9984897096,13.9876640617\\Version=ES64L-G16RevA.03\State
 =1-A\HF=-5962.2219089\RMSD=8.021e-09\RMSF=6.800e-05\Dipole=-0.2926816,
 -0.7571063,-2.7798011\Quadrupole=9.1357977,-2.93122,-6.2045777,0.47886
 24,1.7561878,1.2982847\PG=C01 [X(C84Cl6)]\\@


 IT IS UNWORTHY OF EXCELLENT MEN TO LOSE HOURS LIKE SLAVES IN THE LABOR
 OF CALCULATION WHICH COULD BE SAFELY RELEGATED TO ANYONE ELSE
 IF A MACHINE WERE USED.
    -- G.W. VON LEIBNIZ
 Job cpu time:       1 days  4 hours 26 minutes 12.4 seconds.
 Elapsed time:       0 days  1 hours 11 minutes 11.7 seconds.
 File lengths (MBytes):  RWF=   1161 Int=      0 D2E=      0 Chk=    146 Scr=      1
 Normal termination of Gaussian 16 at Wed Jun 29 06:04:31 2022.
