 Entering Gaussian System, Link 0=g16
 Input=6_addons_C84_11_Cl22_rank_3.gjf
 Output=6_addons_C84_11_Cl22_rank_3.log
 Initial command:
 /home/mkliu/g16/l1.exe "/data/scratch/Gau-91747.inp" -scrdir="/data/scratch/"
 Entering Link 1 = /home/mkliu/g16/l1.exe PID=     91748.
  
 Copyright (c) 1988,1990,1992,1993,1995,1998,2003,2009,2016,
            Gaussian, Inc.  All Rights Reserved.
  
 This is part of the Gaussian(R) 16 program.  It is based on
 the Gaussian(R) 09 system (copyright 2009, Gaussian, Inc.),
 the Gaussian(R) 03 system (copyright 2003, Gaussian, Inc.),
 the Gaussian(R) 98 system (copyright 1998, Gaussian, Inc.),
 the Gaussian(R) 94 system (copyright 1995, Gaussian, Inc.),
 the Gaussian 92(TM) system (copyright 1992, Gaussian, Inc.),
 the Gaussian 90(TM) system (copyright 1990, Gaussian, Inc.),
 the Gaussian 88(TM) system (copyright 1988, Gaussian, Inc.),
 the Gaussian 86(TM) system (copyright 1986, Carnegie Mellon
 University), and the Gaussian 82(TM) system (copyright 1983,
 Carnegie Mellon University). Gaussian is a federally registered
 trademark of Gaussian, Inc.
  
 This software contains proprietary and confidential information,
 including trade secrets, belonging to Gaussian, Inc.
  
 This software is provided under written license and may be
 used, copied, transmitted, or stored only in accord with that
 written license.
  
 The following legend is applicable only to US Government
 contracts under FAR:
  
                    RESTRICTED RIGHTS LEGEND
  
 Use, reproduction and disclosure by the US Government is
 subject to restrictions as set forth in subparagraphs (a)
 and (c) of the Commercial Computer Software - Restricted
 Rights clause in FAR 52.227-19.
  
 Gaussian, Inc.
 340 Quinnipiac St., Bldg. 40, Wallingford CT 06492
  
  
 ---------------------------------------------------------------
 Warning -- This program may not be used in any manner that
 competes with the business of Gaussian, Inc. or will provide
 assistance to any competitor of Gaussian, Inc.  The licensee
 of this program is prohibited from giving any competitor of
 Gaussian, Inc. access to this program.  By using this program,
 the user acknowledges that Gaussian, Inc. is engaged in the
 business of creating and licensing software in the field of
 computational chemistry and represents and warrants to the
 licensee that it is not a competitor of Gaussian, Inc. and that
 it will not use this program in any manner prohibited above.
 ---------------------------------------------------------------
  

 Cite this work as:
 Gaussian 16, Revision A.03,
 M. J. Frisch, G. W. Trucks, H. B. Schlegel, G. E. Scuseria, 
 M. A. Robb, J. R. Cheeseman, G. Scalmani, V. Barone, 
 G. A. Petersson, H. Nakatsuji, X. Li, M. Caricato, A. V. Marenich, 
 J. Bloino, B. G. Janesko, R. Gomperts, B. Mennucci, H. P. Hratchian, 
 J. V. Ortiz, A. F. Izmaylov, J. L. Sonnenberg, D. Williams-Young, 
 F. Ding, F. Lipparini, F. Egidi, J. Goings, B. Peng, A. Petrone, 
 T. Henderson, D. Ranasinghe, V. G. Zakrzewski, J. Gao, N. Rega, 
 G. Zheng, W. Liang, M. Hada, M. Ehara, K. Toyota, R. Fukuda, 
 J. Hasegawa, M. Ishida, T. Nakajima, Y. Honda, O. Kitao, H. Nakai, 
 T. Vreven, K. Throssell, J. A. Montgomery, Jr., J. E. Peralta, 
 F. Ogliaro, M. J. Bearpark, J. J. Heyd, E. N. Brothers, K. N. Kudin, 
 V. N. Staroverov, T. A. Keith, R. Kobayashi, J. Normand, 
 K. Raghavachari, A. P. Rendell, J. C. Burant, S. S. Iyengar, 
 J. Tomasi, M. Cossi, J. M. Millam, M. Klene, C. Adamo, R. Cammi, 
 J. W. Ochterski, R. L. Martin, K. Morokuma, O. Farkas, 
 J. B. Foresman, and D. J. Fox, Gaussian, Inc., Wallingford CT, 2016.
 
 ******************************************
 Gaussian 16:  ES64L-G16RevA.03 25-Dec-2016
                26-Jun-2022 
 ******************************************
 %mem=10GB
 %chk=6_addons_C84_11_Cl22_rank_3.chk
 %nprocshared=24
 Will use up to   24 processors via shared memory.
 ------------------------------------------------
 #P opt b3lyp/6-31G(d, p) empiricaldispersion=GD3
 ------------------------------------------------
 1/18=20,19=15,26=3,38=1/1,3;
 2/9=110,12=2,17=6,18=5,40=1/2;
 3/5=1,6=6,7=101,11=2,25=1,30=1,71=1,74=-5,124=31/1,2,3;
 4//1;
 5/5=2,38=5/2;
 6/7=2,8=2,9=2,10=2,28=1/1;
 7//1,2,3,16;
 1/18=20,19=15,26=3/3(2);
 2/9=110/2;
 99//99;
 2/9=110/2;
 3/5=1,6=6,7=101,11=2,25=1,30=1,71=1,74=-5,124=31/1,2,3;
 4/5=5,16=3,69=1/1;
 5/5=2,38=5/2;
 7//1,2,3,16;
 1/18=20,19=15,26=3/3(-5);
 2/9=110/2;
 6/7=2,8=2,9=2,10=2,19=2,28=1/1;
 99/9=1/99;
 Leave Link    1 at Sun Jun 26 13:45:03 2022, MaxMem=  1342177280 cpu:               0.6 elap:               0.1
 (Enter /home/mkliu/g16/l101.exe)
 -----
 force
 -----
 Symbolic Z-matrix:
 Charge =  0 Multiplicity = 1
 C                     8.46084   18.64426   10.81006 
 C                     12.40681   20.15749   8.95982 
 C                     8.28425   26.85106   10.51476 
 C                     12.30391   25.57916   8.95855 
 C                     8.05863   19.1772   9.44385 
 C                     12.07714   19.5199   10.19296 
 C                     7.97843   26.81653   9.11848 
 C                     11.86714   26.15507   10.19253 
 C                     9.01051   19.25295   8.39123 
 C                     12.36227   20.16231   11.37875 
 C                     12.12854   25.49542   11.37334 
 C                     8.97794   26.64108   8.13646 
 C                     10.38867   19.0374   8.68448 
 C                     10.30745   26.70174   8.60567 
 C                     10.8379   18.80565   10.02261 
 C                     10.61601   26.81497   9.98977 
 C                     9.93824   18.72352   11.05995 
 C                     9.61396   26.7809   10.98342 
 C                     10.19804   19.436    12.25434 
 C                     9.8717    26.06099   12.20385 
 C                     8.97673   20.01994   12.72353 
 C                     8.7833    25.43189   12.84038 
 C                     7.92823   19.52638   11.91239 
 C                     7.45987   25.56116   12.36519 
 C                     6.78287   20.25194   11.76264 
 C                     7.20489   26.2646   11.22313 
 C                     5.96615   20.20519   10.50599 
 C                     6.06973   25.92888   10.29164 
 C                     6.8178    19.81955   9.32432 
 C                     6.68021   26.26938   8.96496 
 C                     6.46858   20.40085   8.11806 
 C                     6.37246   25.59801   7.82863 
 C                     7.37977   20.43391   7.05165 
 C                     7.34784   25.45017   6.80328 
 C                     8.70369   19.96955   7.18605 
 C                     8.68252   25.88717   6.95026 
 C                     9.73518   20.61677   6.40633 
 C                     9.73703   25.14748   6.28499 
 C                     11.08766   20.59839   6.90286 
 C                     12.8025   22.16944   7.74827 
 C                     12.78634   23.59719   7.7421 
 C                     11.0777   25.1635   6.84126 
 C                     11.38478   19.79459   8.01765 
 C                     13.00946   21.4326   8.93091 
 C                     12.95079   24.32654   8.93289 
 C                     11.34623   25.95959   7.96647 
 C                     13.25247   22.15025   10.16774 
 C                     13.20475   23.60373   10.16873 
 C                     12.96857   21.46671   11.36286 
 C                     12.85666   24.25491   11.36041 
 C                     12.44649   22.15624   12.5045 
 C                     12.39476   23.52434   12.50004 
 C                     11.39251   20.12581   12.43817 
 C                     11.13026   25.44584   12.39504 
 C                     11.37824   21.38863   13.0871 
 C                     11.27163   24.19765   13.0795 
 C                     8.94044   21.30568   13.31867 
 C                     8.91664   24.13041   13.44622 
 C                     7.70994   22.03737   13.18764 
 C                     7.71865   23.44099   13.31451 
 C                     6.67208   21.4963   12.40396 
 C                     6.65374   24.3549   12.74402 
 C                     5.91204   22.36214   11.52818 
 C                     6.00913   23.74722   11.52817 
 C                     5.57631   21.66     10.36717 
 C                     5.76423   24.44097   10.337 
 C                     5.37347   22.32963   9.1777 
 C                     5.44614   23.73584   9.16071 
 C                     5.40223   21.46919   7.94035 
 C                     5.38521   24.46137   7.82554 
 C                     5.9373    22.23782   6.77 
 C                     5.93338   23.59826   6.72126 
 C                     7.02118   21.51611   6.18515 
 C                     7.01292   24.27561   6.07036 
 C                     8.0159    22.15336   5.47639 
 C                     8.01802   23.58122   5.42372 
 C                     9.36929   21.69349   5.57515 
 C                     9.37257   24.03464   5.50845 
 C                     11.928    21.71265   6.71694 
 C                     11.91968   24.03929   6.69533 
 C                     10.19821   22.85638   5.4598 
 C                     11.44756   22.86911   6.03436 
 C                     10.18095   22.01706   13.50288 
 C                     10.16666   23.45853   13.53502 
 Cl                    4.53699   19.11775   10.64074 
 Cl                    7.84565   16.94515   10.93892 
 Cl                    3.76988   20.76578   7.63393 
 Cl                    3.68462   24.98749   7.53259 
 Cl                    4.56663   26.85063   10.65813 
 Cl                    5.38038   24.72428   13.97676 
 
 ITRead=  0  0  0  0  0  0  0  0  0  0  0  0  0  0  0  0  0  0  0  0
 ITRead=  0  0  0  0  0  0  0  0  0  0  0  0  0  0  0  0  0  0  0  0
 ITRead=  0  0  0  0  0  0  0  0  0  0  0  0  0  0  0  0  0  0  0  0
 ITRead=  0  0  0  0  0  0  0  0  0  0  0  0  0  0  0  0  0  0  0  0
 ITRead=  0  0  0  0  0  0  0  0  0  0
 MicOpt= -1 -1 -1 -1 -1 -1 -1 -1 -1 -1 -1 -1 -1 -1 -1 -1 -1 -1 -1 -1
 MicOpt= -1 -1 -1 -1 -1 -1 -1 -1 -1 -1 -1 -1 -1 -1 -1 -1 -1 -1 -1 -1
 MicOpt= -1 -1 -1 -1 -1 -1 -1 -1 -1 -1 -1 -1 -1 -1 -1 -1 -1 -1 -1 -1
 MicOpt= -1 -1 -1 -1 -1 -1 -1 -1 -1 -1 -1 -1 -1 -1 -1 -1 -1 -1 -1 -1
 MicOpt= -1 -1 -1 -1 -1 -1 -1 -1 -1 -1
 NAtoms=     90 NQM=       90 NQMF=       0 NMMI=      0 NMMIF=      0
                NMic=       0 NMicF=      0.
                    Isotopes and Nuclear Properties:
 (Nuclear quadrupole moments (NQMom) in fm**2, nuclear magnetic moments (NMagM)
  in nuclear magnetons)

  Atom         1           2           3           4           5           6           7           8           9          10
 IAtWgt=          12          12          12          12          12          12          12          12          12          12
 AtmWgt=  12.0000000  12.0000000  12.0000000  12.0000000  12.0000000  12.0000000  12.0000000  12.0000000  12.0000000  12.0000000
 NucSpn=           0           0           0           0           0           0           0           0           0           0
 AtZEff=  -0.0000000  -0.0000000  -0.0000000  -0.0000000  -0.0000000  -0.0000000  -0.0000000  -0.0000000  -0.0000000  -0.0000000
 NQMom=    0.0000000   0.0000000   0.0000000   0.0000000   0.0000000   0.0000000   0.0000000   0.0000000   0.0000000   0.0000000
 NMagM=    0.0000000   0.0000000   0.0000000   0.0000000   0.0000000   0.0000000   0.0000000   0.0000000   0.0000000   0.0000000
 AtZNuc=   6.0000000   6.0000000   6.0000000   6.0000000   6.0000000   6.0000000   6.0000000   6.0000000   6.0000000   6.0000000

  Atom        11          12          13          14          15          16          17          18          19          20
 IAtWgt=          12          12          12          12          12          12          12          12          12          12
 AtmWgt=  12.0000000  12.0000000  12.0000000  12.0000000  12.0000000  12.0000000  12.0000000  12.0000000  12.0000000  12.0000000
 NucSpn=           0           0           0           0           0           0           0           0           0           0
 AtZEff=  -0.0000000  -0.0000000  -0.0000000  -0.0000000  -0.0000000  -0.0000000  -0.0000000  -0.0000000  -0.0000000  -0.0000000
 NQMom=    0.0000000   0.0000000   0.0000000   0.0000000   0.0000000   0.0000000   0.0000000   0.0000000   0.0000000   0.0000000
 NMagM=    0.0000000   0.0000000   0.0000000   0.0000000   0.0000000   0.0000000   0.0000000   0.0000000   0.0000000   0.0000000
 AtZNuc=   6.0000000   6.0000000   6.0000000   6.0000000   6.0000000   6.0000000   6.0000000   6.0000000   6.0000000   6.0000000

  Atom        21          22          23          24          25          26          27          28          29          30
 IAtWgt=          12          12          12          12          12          12          12          12          12          12
 AtmWgt=  12.0000000  12.0000000  12.0000000  12.0000000  12.0000000  12.0000000  12.0000000  12.0000000  12.0000000  12.0000000
 NucSpn=           0           0           0           0           0           0           0           0           0           0
 AtZEff=  -0.0000000  -0.0000000  -0.0000000  -0.0000000  -0.0000000  -0.0000000  -0.0000000  -0.0000000  -0.0000000  -0.0000000
 NQMom=    0.0000000   0.0000000   0.0000000   0.0000000   0.0000000   0.0000000   0.0000000   0.0000000   0.0000000   0.0000000
 NMagM=    0.0000000   0.0000000   0.0000000   0.0000000   0.0000000   0.0000000   0.0000000   0.0000000   0.0000000   0.0000000
 AtZNuc=   6.0000000   6.0000000   6.0000000   6.0000000   6.0000000   6.0000000   6.0000000   6.0000000   6.0000000   6.0000000

  Atom        31          32          33          34          35          36          37          38          39          40
 IAtWgt=          12          12          12          12          12          12          12          12          12          12
 AtmWgt=  12.0000000  12.0000000  12.0000000  12.0000000  12.0000000  12.0000000  12.0000000  12.0000000  12.0000000  12.0000000
 NucSpn=           0           0           0           0           0           0           0           0           0           0
 AtZEff=  -0.0000000  -0.0000000  -0.0000000  -0.0000000  -0.0000000  -0.0000000  -0.0000000  -0.0000000  -0.0000000  -0.0000000
 NQMom=    0.0000000   0.0000000   0.0000000   0.0000000   0.0000000   0.0000000   0.0000000   0.0000000   0.0000000   0.0000000
 NMagM=    0.0000000   0.0000000   0.0000000   0.0000000   0.0000000   0.0000000   0.0000000   0.0000000   0.0000000   0.0000000
 AtZNuc=   6.0000000   6.0000000   6.0000000   6.0000000   6.0000000   6.0000000   6.0000000   6.0000000   6.0000000   6.0000000

  Atom        41          42          43          44          45          46          47          48          49          50
 IAtWgt=          12          12          12          12          12          12          12          12          12          12
 AtmWgt=  12.0000000  12.0000000  12.0000000  12.0000000  12.0000000  12.0000000  12.0000000  12.0000000  12.0000000  12.0000000
 NucSpn=           0           0           0           0           0           0           0           0           0           0
 AtZEff=  -0.0000000  -0.0000000  -0.0000000  -0.0000000  -0.0000000  -0.0000000  -0.0000000  -0.0000000  -0.0000000  -0.0000000
 NQMom=    0.0000000   0.0000000   0.0000000   0.0000000   0.0000000   0.0000000   0.0000000   0.0000000   0.0000000   0.0000000
 NMagM=    0.0000000   0.0000000   0.0000000   0.0000000   0.0000000   0.0000000   0.0000000   0.0000000   0.0000000   0.0000000
 AtZNuc=   6.0000000   6.0000000   6.0000000   6.0000000   6.0000000   6.0000000   6.0000000   6.0000000   6.0000000   6.0000000

  Atom        51          52          53          54          55          56          57          58          59          60
 IAtWgt=          12          12          12          12          12          12          12          12          12          12
 AtmWgt=  12.0000000  12.0000000  12.0000000  12.0000000  12.0000000  12.0000000  12.0000000  12.0000000  12.0000000  12.0000000
 NucSpn=           0           0           0           0           0           0           0           0           0           0
 AtZEff=  -0.0000000  -0.0000000  -0.0000000  -0.0000000  -0.0000000  -0.0000000  -0.0000000  -0.0000000  -0.0000000  -0.0000000
 NQMom=    0.0000000   0.0000000   0.0000000   0.0000000   0.0000000   0.0000000   0.0000000   0.0000000   0.0000000   0.0000000
 NMagM=    0.0000000   0.0000000   0.0000000   0.0000000   0.0000000   0.0000000   0.0000000   0.0000000   0.0000000   0.0000000
 AtZNuc=   6.0000000   6.0000000   6.0000000   6.0000000   6.0000000   6.0000000   6.0000000   6.0000000   6.0000000   6.0000000

  Atom        61          62          63          64          65          66          67          68          69          70
 IAtWgt=          12          12          12          12          12          12          12          12          12          12
 AtmWgt=  12.0000000  12.0000000  12.0000000  12.0000000  12.0000000  12.0000000  12.0000000  12.0000000  12.0000000  12.0000000
 NucSpn=           0           0           0           0           0           0           0           0           0           0
 AtZEff=  -0.0000000  -0.0000000  -0.0000000  -0.0000000  -0.0000000  -0.0000000  -0.0000000  -0.0000000  -0.0000000  -0.0000000
 NQMom=    0.0000000   0.0000000   0.0000000   0.0000000   0.0000000   0.0000000   0.0000000   0.0000000   0.0000000   0.0000000
 NMagM=    0.0000000   0.0000000   0.0000000   0.0000000   0.0000000   0.0000000   0.0000000   0.0000000   0.0000000   0.0000000
 AtZNuc=   6.0000000   6.0000000   6.0000000   6.0000000   6.0000000   6.0000000   6.0000000   6.0000000   6.0000000   6.0000000

  Atom        71          72          73          74          75          76          77          78          79          80
 IAtWgt=          12          12          12          12          12          12          12          12          12          12
 AtmWgt=  12.0000000  12.0000000  12.0000000  12.0000000  12.0000000  12.0000000  12.0000000  12.0000000  12.0000000  12.0000000
 NucSpn=           0           0           0           0           0           0           0           0           0           0
 AtZEff=  -0.0000000  -0.0000000  -0.0000000  -0.0000000  -0.0000000  -0.0000000  -0.0000000  -0.0000000  -0.0000000  -0.0000000
 NQMom=    0.0000000   0.0000000   0.0000000   0.0000000   0.0000000   0.0000000   0.0000000   0.0000000   0.0000000   0.0000000
 NMagM=    0.0000000   0.0000000   0.0000000   0.0000000   0.0000000   0.0000000   0.0000000   0.0000000   0.0000000   0.0000000
 AtZNuc=   6.0000000   6.0000000   6.0000000   6.0000000   6.0000000   6.0000000   6.0000000   6.0000000   6.0000000   6.0000000

  Atom        81          82          83          84          85          86          87          88          89          90
 IAtWgt=          12          12          12          12          35          35          35          35          35          35
 AtmWgt=  12.0000000  12.0000000  12.0000000  12.0000000  34.9688527  34.9688527  34.9688527  34.9688527  34.9688527  34.9688527
 NucSpn=           0           0           0           0           3           3           3           3           3           3
 AtZEff=  -0.0000000  -0.0000000  -0.0000000  -0.0000000  -0.0000000  -0.0000000  -0.0000000  -0.0000000  -0.0000000  -0.0000000
 NQMom=    0.0000000   0.0000000   0.0000000   0.0000000  -8.1650000  -8.1650000  -8.1650000  -8.1650000  -8.1650000  -8.1650000
 NMagM=    0.0000000   0.0000000   0.0000000   0.0000000   0.8218740   0.8218740   0.8218740   0.8218740   0.8218740   0.8218740
 AtZNuc=   6.0000000   6.0000000   6.0000000   6.0000000  17.0000000  17.0000000  17.0000000  17.0000000  17.0000000  17.0000000
 Leave Link  101 at Sun Jun 26 13:45:03 2022, MaxMem=  1342177280 cpu:               6.6 elap:               0.3
 (Enter /home/mkliu/g16/l103.exe)

 GradGradGradGradGradGradGradGradGradGradGradGradGradGradGradGradGradGrad
 Berny optimization.
 Initialization pass.
                           ----------------------------
                           !    Initial Parameters    !
                           ! (Angstroms and Degrees)  !
 --------------------------                            --------------------------
 ! Name  Definition              Value          Derivative Info.                !
 --------------------------------------------------------------------------------
 ! R1    R(1,5)                  1.5206         estimate D2E/DX2                !
 ! R2    R(1,17)                 1.5005         estimate D2E/DX2                !
 ! R3    R(1,23)                 1.509          estimate D2E/DX2                !
 ! R4    R(1,86)                 1.8116         estimate D2E/DX2                !
 ! R5    R(2,6)                  1.4268         estimate D2E/DX2                !
 ! R6    R(2,43)                 1.4366         estimate D2E/DX2                !
 ! R7    R(2,44)                 1.4107         estimate D2E/DX2                !
 ! R8    R(3,7)                  1.4298         estimate D2E/DX2                !
 ! R9    R(3,18)                 1.4116         estimate D2E/DX2                !
 ! R10   R(3,26)                 1.418          estimate D2E/DX2                !
 ! R11   R(4,8)                  1.4301         estimate D2E/DX2                !
 ! R12   R(4,45)                 1.41           estimate D2E/DX2                !
 ! R13   R(4,46)                 1.4304         estimate D2E/DX2                !
 ! R14   R(5,9)                  1.4212         estimate D2E/DX2                !
 ! R15   R(5,29)                 1.4023         estimate D2E/DX2                !
 ! R16   R(6,10)                 1.3784         estimate D2E/DX2                !
 ! R17   R(6,15)                 1.4404         estimate D2E/DX2                !
 ! R18   R(7,12)                 1.4121         estimate D2E/DX2                !
 ! R19   R(7,30)                 1.4172         estimate D2E/DX2                !
 ! R20   R(8,11)                 1.3776         estimate D2E/DX2                !
 ! R21   R(8,16)                 1.429          estimate D2E/DX2                !
 ! R22   R(9,13)                 1.4254         estimate D2E/DX2                !
 ! R23   R(9,35)                 1.4353         estimate D2E/DX2                !
 ! R24   R(10,49)                1.4385         estimate D2E/DX2                !
 ! R25   R(10,53)                1.4367         estimate D2E/DX2                !
 ! R26   R(11,50)                1.4385         estimate D2E/DX2                !
 ! R27   R(11,54)                1.4293         estimate D2E/DX2                !
 ! R28   R(12,14)                1.4112         estimate D2E/DX2                !
 ! R29   R(12,36)                1.4362         estimate D2E/DX2                !
 ! R30   R(13,15)                1.4304         estimate D2E/DX2                !
 ! R31   R(13,43)                1.4178         estimate D2E/DX2                !
 ! R32   R(14,16)                1.4226         estimate D2E/DX2                !
 ! R33   R(14,46)                1.4277         estimate D2E/DX2                !
 ! R34   R(15,17)                1.3756         estimate D2E/DX2                !
 ! R35   R(16,18)                1.4116         estimate D2E/DX2                !
 ! R36   R(17,19)                1.4148         estimate D2E/DX2                !
 ! R37   R(18,20)                1.4402         estimate D2E/DX2                !
 ! R38   R(19,21)                1.4327         estimate D2E/DX2                !
 ! R39   R(19,53)                1.3915         estimate D2E/DX2                !
 ! R40   R(20,22)                1.4091         estimate D2E/DX2                !
 ! R41   R(20,54)                1.4138         estimate D2E/DX2                !
 ! R42   R(21,23)                1.4145         estimate D2E/DX2                !
 ! R43   R(21,57)                1.4173         estimate D2E/DX2                !
 ! R44   R(22,24)                1.4121         estimate D2E/DX2                !
 ! R45   R(22,58)                1.4418         estimate D2E/DX2                !
 ! R46   R(23,25)                1.3641         estimate D2E/DX2                !
 ! R47   R(24,26)                1.3653         estimate D2E/DX2                !
 ! R48   R(24,62)                1.4995         estimate D2E/DX2                !
 ! R49   R(25,27)                1.4995         estimate D2E/DX2                !
 ! R50   R(25,61)                1.4043         estimate D2E/DX2                !
 ! R51   R(26,28)                1.5063         estimate D2E/DX2                !
 ! R52   R(27,29)                1.5068         estimate D2E/DX2                !
 ! R53   R(27,65)                1.5125         estimate D2E/DX2                !
 ! R54   R(27,85)                1.8009         estimate D2E/DX2                !
 ! R55   R(28,30)                1.4996         estimate D2E/DX2                !
 ! R56   R(28,66)                1.5196         estimate D2E/DX2                !
 ! R57   R(28,89)                1.8009         estimate D2E/DX2                !
 ! R58   R(29,31)                1.3838         estimate D2E/DX2                !
 ! R59   R(30,32)                1.3552         estimate D2E/DX2                !
 ! R60   R(31,33)                1.4031         estimate D2E/DX2                !
 ! R61   R(31,69)                1.5199         estimate D2E/DX2                !
 ! R62   R(32,34)                1.4229         estimate D2E/DX2                !
 ! R63   R(32,70)                1.5055         estimate D2E/DX2                !
 ! R64   R(33,35)                1.4094         estimate D2E/DX2                !
 ! R65   R(33,73)                1.432          estimate D2E/DX2                !
 ! R66   R(34,36)                1.4121         estimate D2E/DX2                !
 ! R67   R(34,74)                1.4244         estimate D2E/DX2                !
 ! R68   R(35,37)                1.446          estimate D2E/DX2                !
 ! R69   R(36,38)                1.4497         estimate D2E/DX2                !
 ! R70   R(37,39)                1.4409         estimate D2E/DX2                !
 ! R71   R(37,77)                1.4086         estimate D2E/DX2                !
 ! R72   R(38,42)                1.4516         estimate D2E/DX2                !
 ! R73   R(38,78)                1.4051         estimate D2E/DX2                !
 ! R74   R(39,43)                1.4061         estimate D2E/DX2                !
 ! R75   R(39,79)                1.4079         estimate D2E/DX2                !
 ! R76   R(40,41)                1.4279         estimate D2E/DX2                !
 ! R77   R(40,44)                1.4087         estimate D2E/DX2                !
 ! R78   R(40,79)                1.4272         estimate D2E/DX2                !
 ! R79   R(41,45)                1.406          estimate D2E/DX2                !
 ! R80   R(41,80)                1.4291         estimate D2E/DX2                !
 ! R81   R(42,46)                1.4043         estimate D2E/DX2                !
 ! R82   R(42,80)                1.4121         estimate D2E/DX2                !
 ! R83   R(44,47)                1.4505         estimate D2E/DX2                !
 ! R84   R(45,48)                1.454          estimate D2E/DX2                !
 ! R85   R(47,48)                1.4543         estimate D2E/DX2                !
 ! R86   R(47,49)                1.4058         estimate D2E/DX2                !
 ! R87   R(48,50)                1.4019         estimate D2E/DX2                !
 ! R88   R(49,51)                1.4323         estimate D2E/DX2                !
 ! R89   R(50,52)                1.4303         estimate D2E/DX2                !
 ! R90   R(51,52)                1.3691         estimate D2E/DX2                !
 ! R91   R(51,55)                1.4387         estimate D2E/DX2                !
 ! R92   R(52,56)                1.432          estimate D2E/DX2                !
 ! R93   R(53,55)                1.4199         estimate D2E/DX2                !
 ! R94   R(54,56)                1.4305         estimate D2E/DX2                !
 ! R95   R(55,83)                1.4147         estimate D2E/DX2                !
 ! R96   R(56,84)                1.4053         estimate D2E/DX2                !
 ! R97   R(57,59)                1.4376         estimate D2E/DX2                !
 ! R98   R(57,83)                1.4418         estimate D2E/DX2                !
 ! R99   R(58,60)                1.3885         estimate D2E/DX2                !
 ! R100  R(58,84)                1.4219         estimate D2E/DX2                !
 ! R101  R(59,60)                1.4094         estimate D2E/DX2                !
 ! R102  R(59,61)                1.4086         estimate D2E/DX2                !
 ! R103  R(60,62)                1.5148         estimate D2E/DX2                !
 ! R104  R(61,63)                1.4472         estimate D2E/DX2                !
 ! R105  R(62,64)                1.5044         estimate D2E/DX2                !
 ! R106  R(62,90)                1.8104         estimate D2E/DX2                !
 ! R107  R(63,64)                1.3885         estimate D2E/DX2                !
 ! R108  R(63,65)                1.3977         estimate D2E/DX2                !
 ! R109  R(64,66)                1.4001         estimate D2E/DX2                !
 ! R110  R(65,67)                1.38           estimate D2E/DX2                !
 ! R111  R(66,68)                1.4078         estimate D2E/DX2                !
 ! R112  R(67,68)                1.4082         estimate D2E/DX2                !
 ! R113  R(67,69)                1.5074         estimate D2E/DX2                !
 ! R114  R(68,70)                1.5208         estimate D2E/DX2                !
 ! R115  R(69,71)                1.4989         estimate D2E/DX2                !
 ! R116  R(69,87)                1.8037         estimate D2E/DX2                !
 ! R117  R(70,72)                1.505          estimate D2E/DX2                !
 ! R118  R(70,88)                1.8041         estimate D2E/DX2                !
 ! R119  R(71,72)                1.3613         estimate D2E/DX2                !
 ! R120  R(71,73)                1.4275         estimate D2E/DX2                !
 ! R121  R(72,74)                1.431          estimate D2E/DX2                !
 ! R122  R(73,75)                1.3776         estimate D2E/DX2                !
 ! R123  R(74,76)                1.3822         estimate D2E/DX2                !
 ! R124  R(75,76)                1.4288         estimate D2E/DX2                !
 ! R125  R(75,77)                1.4328         estimate D2E/DX2                !
 ! R126  R(76,78)                1.4309         estimate D2E/DX2                !
 ! R127  R(77,81)                1.4327         estimate D2E/DX2                !
 ! R128  R(78,81)                1.4396         estimate D2E/DX2                !
 ! R129  R(79,82)                1.4262         estimate D2E/DX2                !
 ! R130  R(80,82)                1.4245         estimate D2E/DX2                !
 ! R131  R(81,82)                1.3752         estimate D2E/DX2                !
 ! R132  R(83,84)                1.4419         estimate D2E/DX2                !
 ! A1    A(5,1,17)             113.0507         estimate D2E/DX2                !
 ! A2    A(5,1,23)             110.9832         estimate D2E/DX2                !
 ! A3    A(5,1,86)             107.6254         estimate D2E/DX2                !
 ! A4    A(17,1,23)            101.2442         estimate D2E/DX2                !
 ! A5    A(17,1,86)            111.8422         estimate D2E/DX2                !
 ! A6    A(23,1,86)            112.1147         estimate D2E/DX2                !
 ! A7    A(6,2,43)             106.8309         estimate D2E/DX2                !
 ! A8    A(6,2,44)             121.3549         estimate D2E/DX2                !
 ! A9    A(43,2,44)            121.2528         estimate D2E/DX2                !
 ! A10   A(7,3,18)             121.6337         estimate D2E/DX2                !
 ! A11   A(7,3,26)             108.3637         estimate D2E/DX2                !
 ! A12   A(18,3,26)            122.0466         estimate D2E/DX2                !
 ! A13   A(8,4,45)             120.9023         estimate D2E/DX2                !
 ! A14   A(8,4,46)             106.6708         estimate D2E/DX2                !
 ! A15   A(45,4,46)            122.059          estimate D2E/DX2                !
 ! A16   A(1,5,9)              120.462          estimate D2E/DX2                !
 ! A17   A(1,5,29)             118.1096         estimate D2E/DX2                !
 ! A18   A(9,5,29)             120.3365         estimate D2E/DX2                !
 ! A19   A(2,6,10)             119.1715         estimate D2E/DX2                !
 ! A20   A(2,6,15)             108.5508         estimate D2E/DX2                !
 ! A21   A(10,6,15)            120.7155         estimate D2E/DX2                !
 ! A22   A(3,7,12)             122.0541         estimate D2E/DX2                !
 ! A23   A(3,7,30)             108.1227         estimate D2E/DX2                !
 ! A24   A(12,7,30)            121.6741         estimate D2E/DX2                !
 ! A25   A(4,8,11)             119.2633         estimate D2E/DX2                !
 ! A26   A(4,8,16)             109.3264         estimate D2E/DX2                !
 ! A27   A(11,8,16)            120.5897         estimate D2E/DX2                !
 ! A28   A(5,9,13)             119.152          estimate D2E/DX2                !
 ! A29   A(5,9,35)             120.354          estimate D2E/DX2                !
 ! A30   A(13,9,35)            117.0603         estimate D2E/DX2                !
 ! A31   A(6,10,49)            120.0181         estimate D2E/DX2                !
 ! A32   A(6,10,53)            118.8735         estimate D2E/DX2                !
 ! A33   A(49,10,53)           108.4012         estimate D2E/DX2                !
 ! A34   A(8,11,50)            120.0851         estimate D2E/DX2                !
 ! A35   A(8,11,54)            119.7886         estimate D2E/DX2                !
 ! A36   A(50,11,54)           109.2715         estimate D2E/DX2                !
 ! A37   A(7,12,14)            115.4848         estimate D2E/DX2                !
 ! A38   A(7,12,36)            119.6028         estimate D2E/DX2                !
 ! A39   A(14,12,36)           119.4038         estimate D2E/DX2                !
 ! A40   A(9,13,15)            121.3727         estimate D2E/DX2                !
 ! A41   A(9,13,43)            120.1163         estimate D2E/DX2                !
 ! A42   A(15,13,43)           107.8096         estimate D2E/DX2                !
 ! A43   A(12,14,16)           122.0909         estimate D2E/DX2                !
 ! A44   A(12,14,46)           120.9484         estimate D2E/DX2                !
 ! A45   A(16,14,46)           108.6114         estimate D2E/DX2                !
 ! A46   A(6,15,13)            107.4863         estimate D2E/DX2                !
 ! A47   A(6,15,17)            120.2046         estimate D2E/DX2                !
 ! A48   A(13,15,17)           120.6461         estimate D2E/DX2                !
 ! A49   A(8,16,14)            106.9302         estimate D2E/DX2                !
 ! A50   A(8,16,18)            120.6979         estimate D2E/DX2                !
 ! A51   A(14,16,18)           121.9366         estimate D2E/DX2                !
 ! A52   A(1,17,15)            121.4347         estimate D2E/DX2                !
 ! A53   A(1,17,19)            110.3651         estimate D2E/DX2                !
 ! A54   A(15,17,19)           119.1084         estimate D2E/DX2                !
 ! A55   A(3,18,16)            115.7079         estimate D2E/DX2                !
 ! A56   A(3,18,20)            118.3433         estimate D2E/DX2                !
 ! A57   A(16,18,20)           118.7854         estimate D2E/DX2                !
 ! A58   A(17,19,21)           108.976          estimate D2E/DX2                !
 ! A59   A(17,19,53)           121.2503         estimate D2E/DX2                !
 ! A60   A(21,19,53)           119.1053         estimate D2E/DX2                !
 ! A61   A(18,20,22)           117.888          estimate D2E/DX2                !
 ! A62   A(18,20,54)           119.432          estimate D2E/DX2                !
 ! A63   A(22,20,54)           115.6095         estimate D2E/DX2                !
 ! A64   A(19,21,23)           107.5691         estimate D2E/DX2                !
 ! A65   A(19,21,57)           121.9438         estimate D2E/DX2                !
 ! A66   A(23,21,57)           122.5723         estimate D2E/DX2                !
 ! A67   A(20,22,24)           122.0747         estimate D2E/DX2                !
 ! A68   A(20,22,58)           121.4268         estimate D2E/DX2                !
 ! A69   A(24,22,58)           108.1026         estimate D2E/DX2                !
 ! A70   A(1,23,21)            111.1776         estimate D2E/DX2                !
 ! A71   A(1,23,25)            121.8112         estimate D2E/DX2                !
 ! A72   A(21,23,25)           119.9826         estimate D2E/DX2                !
 ! A73   A(22,24,26)           120.2436         estimate D2E/DX2                !
 ! A74   A(22,24,62)           110.1935         estimate D2E/DX2                !
 ! A75   A(26,24,62)           121.6949         estimate D2E/DX2                !
 ! A76   A(23,25,27)           122.1919         estimate D2E/DX2                !
 ! A77   A(23,25,61)           119.173          estimate D2E/DX2                !
 ! A78   A(27,25,61)           111.5547         estimate D2E/DX2                !
 ! A79   A(3,26,24)            119.2612         estimate D2E/DX2                !
 ! A80   A(3,26,28)            110.909          estimate D2E/DX2                !
 ! A81   A(24,26,28)           122.9            estimate D2E/DX2                !
 ! A82   A(25,27,29)           110.9388         estimate D2E/DX2                !
 ! A83   A(25,27,65)           100.7962         estimate D2E/DX2                !
 ! A84   A(25,27,85)           112.8534         estimate D2E/DX2                !
 ! A85   A(29,27,65)           108.655          estimate D2E/DX2                !
 ! A86   A(29,27,85)           110.6514         estimate D2E/DX2                !
 ! A87   A(65,27,85)           112.5269         estimate D2E/DX2                !
 ! A88   A(26,28,30)           100.9351         estimate D2E/DX2                !
 ! A89   A(26,28,66)           110.565          estimate D2E/DX2                !
 ! A90   A(26,28,89)           112.8965         estimate D2E/DX2                !
 ! A91   A(30,28,66)           109.3038         estimate D2E/DX2                !
 ! A92   A(30,28,89)           113.804          estimate D2E/DX2                !
 ! A93   A(66,28,89)           109.1032         estimate D2E/DX2                !
 ! A94   A(5,29,27)            123.4011         estimate D2E/DX2                !
 ! A95   A(5,29,31)            119.3417         estimate D2E/DX2                !
 ! A96   A(27,29,31)           115.688          estimate D2E/DX2                !
 ! A97   A(7,30,28)            111.393          estimate D2E/DX2                !
 ! A98   A(7,30,32)            119.3488         estimate D2E/DX2                !
 ! A99   A(28,30,32)           122.4707         estimate D2E/DX2                !
 ! A100  A(29,31,33)           120.5673         estimate D2E/DX2                !
 ! A101  A(29,31,69)           125.0475         estimate D2E/DX2                !
 ! A102  A(33,31,69)           110.4998         estimate D2E/DX2                !
 ! A103  A(30,32,34)           120.0014         estimate D2E/DX2                !
 ! A104  A(30,32,70)           121.6438         estimate D2E/DX2                !
 ! A105  A(34,32,70)           111.6904         estimate D2E/DX2                !
 ! A106  A(31,33,35)           121.9911         estimate D2E/DX2                !
 ! A107  A(31,33,73)           108.3666         estimate D2E/DX2                !
 ! A108  A(35,33,73)           122.8145         estimate D2E/DX2                !
 ! A109  A(32,34,36)           122.7361         estimate D2E/DX2                !
 ! A110  A(32,34,74)           107.1746         estimate D2E/DX2                !
 ! A111  A(36,34,74)           122.0724         estimate D2E/DX2                !
 ! A112  A(9,35,33)            116.4466         estimate D2E/DX2                !
 ! A113  A(9,35,37)            121.5842         estimate D2E/DX2                !
 ! A114  A(33,35,37)           118.1119         estimate D2E/DX2                !
 ! A115  A(12,36,34)           116.2849         estimate D2E/DX2                !
 ! A116  A(12,36,38)           119.8164         estimate D2E/DX2                !
 ! A117  A(34,36,38)           118.8064         estimate D2E/DX2                !
 ! A118  A(35,37,39)           118.5597         estimate D2E/DX2                !
 ! A119  A(35,37,77)           118.3619         estimate D2E/DX2                !
 ! A120  A(39,37,77)           117.189          estimate D2E/DX2                !
 ! A121  A(36,38,42)           119.362          estimate D2E/DX2                !
 ! A122  A(36,38,78)           117.9726         estimate D2E/DX2                !
 ! A123  A(42,38,78)           117.3931         estimate D2E/DX2                !
 ! A124  A(37,39,43)           118.6101         estimate D2E/DX2                !
 ! A125  A(37,39,79)           120.3079         estimate D2E/DX2                !
 ! A126  A(43,39,79)           115.5297         estimate D2E/DX2                !
 ! A127  A(41,40,44)           121.8916         estimate D2E/DX2                !
 ! A128  A(41,40,79)           108.0578         estimate D2E/DX2                !
 ! A129  A(44,40,79)           121.9551         estimate D2E/DX2                !
 ! A130  A(40,41,45)           120.9113         estimate D2E/DX2                !
 ! A131  A(40,41,80)           108.6242         estimate D2E/DX2                !
 ! A132  A(45,41,80)           122.0588         estimate D2E/DX2                !
 ! A133  A(38,42,46)           119.3359         estimate D2E/DX2                !
 ! A134  A(38,42,80)           120.1531         estimate D2E/DX2                !
 ! A135  A(46,42,80)           114.8417         estimate D2E/DX2                !
 ! A136  A(2,43,13)            109.0421         estimate D2E/DX2                !
 ! A137  A(2,43,39)            121.7269         estimate D2E/DX2                !
 ! A138  A(13,43,39)           121.9858         estimate D2E/DX2                !
 ! A139  A(2,44,40)            115.293          estimate D2E/DX2                !
 ! A140  A(2,44,47)            120.089          estimate D2E/DX2                !
 ! A141  A(40,44,47)           118.7962         estimate D2E/DX2                !
 ! A142  A(4,45,41)            114.9976         estimate D2E/DX2                !
 ! A143  A(4,45,48)            120.4153         estimate D2E/DX2                !
 ! A144  A(41,45,48)           118.841          estimate D2E/DX2                !
 ! A145  A(4,46,14)            108.3521         estimate D2E/DX2                !
 ! A146  A(4,46,42)            122.2077         estimate D2E/DX2                !
 ! A147  A(14,46,42)           120.9498         estimate D2E/DX2                !
 ! A148  A(44,47,48)           119.3143         estimate D2E/DX2                !
 ! A149  A(44,47,49)           116.7774         estimate D2E/DX2                !
 ! A150  A(48,47,49)           118.6054         estimate D2E/DX2                !
 ! A151  A(45,48,47)           120.131          estimate D2E/DX2                !
 ! A152  A(45,48,50)           116.6294         estimate D2E/DX2                !
 ! A153  A(47,48,50)           118.2278         estimate D2E/DX2                !
 ! A154  A(10,49,47)           122.3726         estimate D2E/DX2                !
 ! A155  A(10,49,51)           105.9091         estimate D2E/DX2                !
 ! A156  A(47,49,51)           121.1432         estimate D2E/DX2                !
 ! A157  A(11,50,48)           122.2694         estimate D2E/DX2                !
 ! A158  A(11,50,52)           105.6553         estimate D2E/DX2                !
 ! A159  A(48,50,52)           121.3473         estimate D2E/DX2                !
 ! A160  A(49,51,52)           119.4888         estimate D2E/DX2                !
 ! A161  A(49,51,55)           109.6683         estimate D2E/DX2                !
 ! A162  A(52,51,55)           120.4269         estimate D2E/DX2                !
 ! A163  A(50,52,51)           120.0529         estimate D2E/DX2                !
 ! A164  A(50,52,56)           109.6058         estimate D2E/DX2                !
 ! A165  A(51,52,56)           119.8787         estimate D2E/DX2                !
 ! A166  A(10,53,19)           119.6418         estimate D2E/DX2                !
 ! A167  A(10,53,55)           108.736          estimate D2E/DX2                !
 ! A168  A(19,53,55)           119.5134         estimate D2E/DX2                !
 ! A169  A(11,54,20)           120.6619         estimate D2E/DX2                !
 ! A170  A(11,54,56)           107.6539         estimate D2E/DX2                !
 ! A171  A(20,54,56)           122.161          estimate D2E/DX2                !
 ! A172  A(51,55,53)           106.3792         estimate D2E/DX2                !
 ! A173  A(51,55,83)           120.6918         estimate D2E/DX2                !
 ! A174  A(53,55,83)           122.5424         estimate D2E/DX2                !
 ! A175  A(52,56,54)           107.1065         estimate D2E/DX2                !
 ! A176  A(52,56,84)           120.0394         estimate D2E/DX2                !
 ! A177  A(54,56,84)           122.433          estimate D2E/DX2                !
 ! A178  A(21,57,59)           116.4474         estimate D2E/DX2                !
 ! A179  A(21,57,83)           118.6344         estimate D2E/DX2                !
 ! A180  A(59,57,83)           119.7991         estimate D2E/DX2                !
 ! A181  A(22,58,60)           109.1822         estimate D2E/DX2                !
 ! A182  A(22,58,84)           122.2818         estimate D2E/DX2                !
 ! A183  A(60,58,84)           121.9926         estimate D2E/DX2                !
 ! A184  A(57,59,60)           119.5639         estimate D2E/DX2                !
 ! A185  A(57,59,61)           119.07           estimate D2E/DX2                !
 ! A186  A(60,59,61)           115.9256         estimate D2E/DX2                !
 ! A187  A(58,60,59)           120.5565         estimate D2E/DX2                !
 ! A188  A(58,60,62)           110.0421         estimate D2E/DX2                !
 ! A189  A(59,60,62)           124.2354         estimate D2E/DX2                !
 ! A190  A(25,61,59)           122.4345         estimate D2E/DX2                !
 ! A191  A(25,61,63)           107.1713         estimate D2E/DX2                !
 ! A192  A(59,61,63)           119.5933         estimate D2E/DX2                !
 ! A193  A(24,62,60)           101.6858         estimate D2E/DX2                !
 ! A194  A(24,62,64)           110.5564         estimate D2E/DX2                !
 ! A195  A(24,62,90)           112.7072         estimate D2E/DX2                !
 ! A196  A(60,62,64)           111.2168         estimate D2E/DX2                !
 ! A197  A(60,62,90)           111.1685         estimate D2E/DX2                !
 ! A198  A(64,62,90)           109.3522         estimate D2E/DX2                !
 ! A199  A(61,63,64)           124.0631         estimate D2E/DX2                !
 ! A200  A(61,63,65)           109.1639         estimate D2E/DX2                !
 ! A201  A(64,63,65)           121.1916         estimate D2E/DX2                !
 ! A202  A(62,64,63)           115.6529         estimate D2E/DX2                !
 ! A203  A(62,64,66)           124.2238         estimate D2E/DX2                !
 ! A204  A(63,64,66)           118.8211         estimate D2E/DX2                !
 ! A205  A(27,65,63)           110.1833         estimate D2E/DX2                !
 ! A206  A(27,65,67)           125.7131         estimate D2E/DX2                !
 ! A207  A(63,65,67)           120.4976         estimate D2E/DX2                !
 ! A208  A(28,66,64)           118.3855         estimate D2E/DX2                !
 ! A209  A(28,66,68)           120.7228         estimate D2E/DX2                !
 ! A210  A(64,66,68)           120.146          estimate D2E/DX2                !
 ! A211  A(65,67,68)           119.1686         estimate D2E/DX2                !
 ! A212  A(65,67,69)           115.324          estimate D2E/DX2                !
 ! A213  A(68,67,69)           123.9951         estimate D2E/DX2                !
 ! A214  A(66,68,67)           120.1143         estimate D2E/DX2                !
 ! A215  A(66,68,70)           120.2419         estimate D2E/DX2                !
 ! A216  A(67,68,70)           119.008          estimate D2E/DX2                !
 ! A217  A(31,69,67)           108.5806         estimate D2E/DX2                !
 ! A218  A(31,69,71)           101.6122         estimate D2E/DX2                !
 ! A219  A(31,69,87)           112.377          estimate D2E/DX2                !
 ! A220  A(67,69,71)           110.7945         estimate D2E/DX2                !
 ! A221  A(67,69,87)           110.1694         estimate D2E/DX2                !
 ! A222  A(71,69,87)           112.9791         estimate D2E/DX2                !
 ! A223  A(32,70,68)           109.3965         estimate D2E/DX2                !
 ! A224  A(32,70,72)           101.2822         estimate D2E/DX2                !
 ! A225  A(32,70,88)           113.4715         estimate D2E/DX2                !
 ! A226  A(68,70,72)           110.8552         estimate D2E/DX2                !
 ! A227  A(68,70,88)           108.6303         estimate D2E/DX2                !
 ! A228  A(72,70,88)           113.0455         estimate D2E/DX2                !
 ! A229  A(69,71,72)           122.6418         estimate D2E/DX2                !
 ! A230  A(69,71,73)           109.3709         estimate D2E/DX2                !
 ! A231  A(72,71,73)           119.5228         estimate D2E/DX2                !
 ! A232  A(70,72,71)           123.2239         estimate D2E/DX2                !
 ! A233  A(70,72,74)           109.6982         estimate D2E/DX2                !
 ! A234  A(71,72,74)           119.1527         estimate D2E/DX2                !
 ! A235  A(33,73,71)           108.9239         estimate D2E/DX2                !
 ! A236  A(33,73,75)           118.6901         estimate D2E/DX2                !
 ! A237  A(71,73,75)           121.6797         estimate D2E/DX2                !
 ! A238  A(34,74,72)           109.4903         estimate D2E/DX2                !
 ! A239  A(34,74,76)           118.9467         estimate D2E/DX2                !
 ! A240  A(72,74,76)           121.5705         estimate D2E/DX2                !
 ! A241  A(73,75,76)           118.8341         estimate D2E/DX2                !
 ! A242  A(73,75,77)           119.8748         estimate D2E/DX2                !
 ! A243  A(76,75,77)           108.777          estimate D2E/DX2                !
 ! A244  A(74,76,75)           118.9282         estimate D2E/DX2                !
 ! A245  A(74,76,78)           120.0962         estimate D2E/DX2                !
 ! A246  A(75,76,78)           108.4135         estimate D2E/DX2                !
 ! A247  A(37,77,75)           122.0992         estimate D2E/DX2                !
 ! A248  A(37,77,81)           121.1752         estimate D2E/DX2                !
 ! A249  A(75,77,81)           106.2863         estimate D2E/DX2                !
 ! A250  A(38,78,76)           121.9532         estimate D2E/DX2                !
 ! A251  A(38,78,81)           121.2088         estimate D2E/DX2                !
 ! A252  A(76,78,81)           106.3535         estimate D2E/DX2                !
 ! A253  A(39,79,40)           121.5724         estimate D2E/DX2                !
 ! A254  A(39,79,82)           120.2554         estimate D2E/DX2                !
 ! A255  A(40,79,82)           107.0205         estimate D2E/DX2                !
 ! A256  A(41,80,42)           122.1533         estimate D2E/DX2                !
 ! A257  A(41,80,82)           106.663          estimate D2E/DX2                !
 ! A258  A(42,80,82)           120.2868         estimate D2E/DX2                !
 ! A259  A(77,81,78)           109.2556         estimate D2E/DX2                !
 ! A260  A(77,81,82)           119.9662         estimate D2E/DX2                !
 ! A261  A(78,81,82)           119.9573         estimate D2E/DX2                !
 ! A262  A(79,82,80)           109.4135         estimate D2E/DX2                !
 ! A263  A(79,82,81)           119.8997         estimate D2E/DX2                !
 ! A264  A(80,82,81)           120.1708         estimate D2E/DX2                !
 ! A265  A(55,83,57)           118.1281         estimate D2E/DX2                !
 ! A266  A(55,83,84)           117.3249         estimate D2E/DX2                !
 ! A267  A(57,83,84)           119.1803         estimate D2E/DX2                !
 ! A268  A(56,84,58)           114.9914         estimate D2E/DX2                !
 ! A269  A(56,84,83)           120.7161         estimate D2E/DX2                !
 ! A270  A(58,84,83)           118.6657         estimate D2E/DX2                !
 ! D1    D(17,1,5,9)            21.6029         estimate D2E/DX2                !
 ! D2    D(17,1,5,29)         -146.4916         estimate D2E/DX2                !
 ! D3    D(23,1,5,9)           134.5673         estimate D2E/DX2                !
 ! D4    D(23,1,5,29)          -33.5272         estimate D2E/DX2                !
 ! D5    D(86,1,5,9)          -102.4143         estimate D2E/DX2                !
 ! D6    D(86,1,5,29)           89.4912         estimate D2E/DX2                !
 ! D7    D(5,1,17,15)          -21.6611         estimate D2E/DX2                !
 ! D8    D(5,1,17,19)          124.9594         estimate D2E/DX2                !
 ! D9    D(23,1,17,15)        -140.4366         estimate D2E/DX2                !
 ! D10   D(23,1,17,19)           6.184          estimate D2E/DX2                !
 ! D11   D(86,1,17,15)         100.0121         estimate D2E/DX2                !
 ! D12   D(86,1,17,19)        -113.3673         estimate D2E/DX2                !
 ! D13   D(5,1,23,21)         -121.8636         estimate D2E/DX2                !
 ! D14   D(5,1,23,25)           28.7093         estimate D2E/DX2                !
 ! D15   D(17,1,23,21)          -1.6112         estimate D2E/DX2                !
 ! D16   D(17,1,23,25)         148.9617         estimate D2E/DX2                !
 ! D17   D(86,1,23,21)         117.7453         estimate D2E/DX2                !
 ! D18   D(86,1,23,25)         -91.6818         estimate D2E/DX2                !
 ! D19   D(43,2,6,10)         -145.3955         estimate D2E/DX2                !
 ! D20   D(43,2,6,15)           -1.8468         estimate D2E/DX2                !
 ! D21   D(44,2,6,10)           -0.4055         estimate D2E/DX2                !
 ! D22   D(44,2,6,15)          143.1433         estimate D2E/DX2                !
 ! D23   D(6,2,43,13)            4.5679         estimate D2E/DX2                !
 ! D24   D(6,2,43,39)          155.2853         estimate D2E/DX2                !
 ! D25   D(44,2,43,13)        -140.4656         estimate D2E/DX2                !
 ! D26   D(44,2,43,39)          10.2518         estimate D2E/DX2                !
 ! D27   D(6,2,44,40)         -155.5844         estimate D2E/DX2                !
 ! D28   D(6,2,44,47)           -2.768          estimate D2E/DX2                !
 ! D29   D(43,2,44,40)         -15.5523         estimate D2E/DX2                !
 ! D30   D(43,2,44,47)         137.2641         estimate D2E/DX2                !
 ! D31   D(18,3,7,12)            3.3551         estimate D2E/DX2                !
 ! D32   D(18,3,7,30)          152.3163         estimate D2E/DX2                !
 ! D33   D(26,3,7,12)         -146.089          estimate D2E/DX2                !
 ! D34   D(26,3,7,30)            2.8722         estimate D2E/DX2                !
 ! D35   D(7,3,18,16)            6.2955         estimate D2E/DX2                !
 ! D36   D(7,3,18,20)         -143.8072         estimate D2E/DX2                !
 ! D37   D(26,3,18,16)         151.5989         estimate D2E/DX2                !
 ! D38   D(26,3,18,20)           1.4962         estimate D2E/DX2                !
 ! D39   D(7,3,26,24)          146.4919         estimate D2E/DX2                !
 ! D40   D(7,3,26,28)           -5.2186         estimate D2E/DX2                !
 ! D41   D(18,3,26,24)          -2.8004         estimate D2E/DX2                !
 ! D42   D(18,3,26,28)        -154.5109         estimate D2E/DX2                !
 ! D43   D(45,4,8,11)            2.4019         estimate D2E/DX2                !
 ! D44   D(45,4,8,16)         -142.1537         estimate D2E/DX2                !
 ! D45   D(46,4,8,11)          147.9891         estimate D2E/DX2                !
 ! D46   D(46,4,8,16)            3.4335         estimate D2E/DX2                !
 ! D47   D(8,4,45,41)          152.0436         estimate D2E/DX2                !
 ! D48   D(8,4,45,48)           -0.9421         estimate D2E/DX2                !
 ! D49   D(46,4,45,41)          11.7472         estimate D2E/DX2                !
 ! D50   D(46,4,45,48)        -141.2386         estimate D2E/DX2                !
 ! D51   D(8,4,46,14)           -2.7814         estimate D2E/DX2                !
 ! D52   D(8,4,46,42)         -150.9224         estimate D2E/DX2                !
 ! D53   D(45,4,46,14)         142.3161         estimate D2E/DX2                !
 ! D54   D(45,4,46,42)          -5.8249         estimate D2E/DX2                !
 ! D55   D(1,5,9,13)           -10.35           estimate D2E/DX2                !
 ! D56   D(1,5,9,35)          -168.8333         estimate D2E/DX2                !
 ! D57   D(29,5,9,13)          157.4787         estimate D2E/DX2                !
 ! D58   D(29,5,9,35)           -1.0045         estimate D2E/DX2                !
 ! D59   D(1,5,29,27)           10.1809         estimate D2E/DX2                !
 ! D60   D(1,5,29,31)          175.2664         estimate D2E/DX2                !
 ! D61   D(9,5,29,27)         -157.9291         estimate D2E/DX2                !
 ! D62   D(9,5,29,31)            7.1564         estimate D2E/DX2                !
 ! D63   D(2,6,10,49)            0.8129         estimate D2E/DX2                !
 ! D64   D(2,6,10,53)          138.1137         estimate D2E/DX2                !
 ! D65   D(15,6,10,49)        -138.2537         estimate D2E/DX2                !
 ! D66   D(15,6,10,53)          -0.9529         estimate D2E/DX2                !
 ! D67   D(2,6,15,13)           -1.4966         estimate D2E/DX2                !
 ! D68   D(2,6,15,17)         -144.7967         estimate D2E/DX2                !
 ! D69   D(10,6,15,13)         141.3871         estimate D2E/DX2                !
 ! D70   D(10,6,15,17)          -1.913          estimate D2E/DX2                !
 ! D71   D(3,7,12,14)           -9.0296         estimate D2E/DX2                !
 ! D72   D(3,7,12,36)          144.6513         estimate D2E/DX2                !
 ! D73   D(30,7,12,14)        -153.8734         estimate D2E/DX2                !
 ! D74   D(30,7,12,36)          -0.1925         estimate D2E/DX2                !
 ! D75   D(3,7,30,28)            0.5213         estimate D2E/DX2                !
 ! D76   D(3,7,30,32)         -151.3365         estimate D2E/DX2                !
 ! D77   D(12,7,30,28)         149.6242         estimate D2E/DX2                !
 ! D78   D(12,7,30,32)          -2.2335         estimate D2E/DX2                !
 ! D79   D(4,8,11,50)            1.2362         estimate D2E/DX2                !
 ! D80   D(4,8,11,54)         -139.22           estimate D2E/DX2                !
 ! D81   D(16,8,11,50)         141.7642         estimate D2E/DX2                !
 ! D82   D(16,8,11,54)           1.308          estimate D2E/DX2                !
 ! D83   D(4,8,16,14)           -2.7574         estimate D2E/DX2                !
 ! D84   D(4,8,16,18)          142.7075         estimate D2E/DX2                !
 ! D85   D(11,8,16,14)        -146.764          estimate D2E/DX2                !
 ! D86   D(11,8,16,18)          -1.2991         estimate D2E/DX2                !
 ! D87   D(5,9,13,15)           -2.7938         estimate D2E/DX2                !
 ! D88   D(5,9,13,43)         -142.9527         estimate D2E/DX2                !
 ! D89   D(35,9,13,15)         156.388          estimate D2E/DX2                !
 ! D90   D(35,9,13,43)          16.2292         estimate D2E/DX2                !
 ! D91   D(5,9,35,33)           -7.4988         estimate D2E/DX2                !
 ! D92   D(5,9,35,37)          149.96           estimate D2E/DX2                !
 ! D93   D(13,9,35,33)        -166.4176         estimate D2E/DX2                !
 ! D94   D(13,9,35,37)          -8.9588         estimate D2E/DX2                !
 ! D95   D(6,10,49,47)           2.0661         estimate D2E/DX2                !
 ! D96   D(6,10,49,51)         146.8944         estimate D2E/DX2                !
 ! D97   D(53,10,49,47)       -139.1895         estimate D2E/DX2                !
 ! D98   D(53,10,49,51)          5.6388         estimate D2E/DX2                !
 ! D99   D(6,10,53,19)           0.6657         estimate D2E/DX2                !
 ! D100  D(6,10,53,55)        -141.6629         estimate D2E/DX2                !
 ! D101  D(49,10,53,19)        142.4351         estimate D2E/DX2                !
 ! D102  D(49,10,53,55)          0.1065         estimate D2E/DX2                !
 ! D103  D(8,11,50,48)          -6.6443         estimate D2E/DX2                !
 ! D104  D(8,11,50,52)        -151.3217         estimate D2E/DX2                !
 ! D105  D(54,11,50,48)        137.5286         estimate D2E/DX2                !
 ! D106  D(54,11,50,52)         -7.1488         estimate D2E/DX2                !
 ! D107  D(8,11,54,20)           0.3725         estimate D2E/DX2                !
 ! D108  D(8,11,54,56)         147.3104         estimate D2E/DX2                !
 ! D109  D(50,11,54,20)       -143.9234         estimate D2E/DX2                !
 ! D110  D(50,11,54,56)          3.0145         estimate D2E/DX2                !
 ! D111  D(7,12,14,16)           5.2619         estimate D2E/DX2                !
 ! D112  D(7,12,14,46)         149.8747         estimate D2E/DX2                !
 ! D113  D(36,12,14,16)       -148.4747         estimate D2E/DX2                !
 ! D114  D(36,12,14,46)         -3.8618         estimate D2E/DX2                !
 ! D115  D(7,12,36,34)           4.7232         estimate D2E/DX2                !
 ! D116  D(7,12,36,38)        -149.7606         estimate D2E/DX2                !
 ! D117  D(14,12,36,34)        157.3742         estimate D2E/DX2                !
 ! D118  D(14,12,36,38)          2.8903         estimate D2E/DX2                !
 ! D119  D(9,13,15,6)         -140.0978         estimate D2E/DX2                !
 ! D120  D(9,13,15,17)           3.0083         estimate D2E/DX2                !
 ! D121  D(43,13,15,6)           4.3058         estimate D2E/DX2                !
 ! D122  D(43,13,15,17)        147.412          estimate D2E/DX2                !
 ! D123  D(9,13,43,2)          139.4006         estimate D2E/DX2                !
 ! D124  D(9,13,43,39)         -11.2263         estimate D2E/DX2                !
 ! D125  D(15,13,43,2)          -5.5328         estimate D2E/DX2                !
 ! D126  D(15,13,43,39)       -156.1597         estimate D2E/DX2                !
 ! D127  D(12,14,16,8)         149.3841         estimate D2E/DX2                !
 ! D128  D(12,14,16,18)          4.443          estimate D2E/DX2                !
 ! D129  D(46,14,16,8)           0.989          estimate D2E/DX2                !
 ! D130  D(46,14,16,18)       -143.9522         estimate D2E/DX2                !
 ! D131  D(12,14,46,4)        -147.6947         estimate D2E/DX2                !
 ! D132  D(12,14,46,42)          0.9223         estimate D2E/DX2                !
 ! D133  D(16,14,46,4)           1.1279         estimate D2E/DX2                !
 ! D134  D(16,14,46,42)        149.745          estimate D2E/DX2                !
 ! D135  D(6,15,17,1)          148.7785         estimate D2E/DX2                !
 ! D136  D(6,15,17,19)           4.9605         estimate D2E/DX2                !
 ! D137  D(13,15,17,1)          10.2726         estimate D2E/DX2                !
 ! D138  D(13,15,17,19)       -133.5454         estimate D2E/DX2                !
 ! D139  D(8,16,18,3)         -150.3566         estimate D2E/DX2                !
 ! D140  D(8,16,18,20)          -0.3927         estimate D2E/DX2                !
 ! D141  D(14,16,18,3)         -10.0795         estimate D2E/DX2                !
 ! D142  D(14,16,18,20)        139.8844         estimate D2E/DX2                !
 ! D143  D(1,17,19,21)          -8.6701         estimate D2E/DX2                !
 ! D144  D(1,17,19,53)        -152.7979         estimate D2E/DX2                !
 ! D145  D(15,17,19,21)        138.8303         estimate D2E/DX2                !
 ! D146  D(15,17,19,53)         -5.2976         estimate D2E/DX2                !
 ! D147  D(3,18,20,22)           1.8794         estimate D2E/DX2                !
 ! D148  D(3,18,20,54)         151.2047         estimate D2E/DX2                !
 ! D149  D(16,18,20,22)       -147.2947         estimate D2E/DX2                !
 ! D150  D(16,18,20,54)          2.0306         estimate D2E/DX2                !
 ! D151  D(17,19,21,23)          7.3798         estimate D2E/DX2                !
 ! D152  D(17,19,21,57)       -142.2638         estimate D2E/DX2                !
 ! D153  D(53,19,21,23)        152.3951         estimate D2E/DX2                !
 ! D154  D(53,19,21,57)          2.7515         estimate D2E/DX2                !
 ! D155  D(17,19,53,10)          2.4571         estimate D2E/DX2                !
 ! D156  D(17,19,53,55)        140.7715         estimate D2E/DX2                !
 ! D157  D(21,19,53,10)       -138.1809         estimate D2E/DX2                !
 ! D158  D(21,19,53,55)          0.1335         estimate D2E/DX2                !
 ! D159  D(18,20,22,24)         -4.0928         estimate D2E/DX2                !
 ! D160  D(18,20,22,58)        140.2643         estimate D2E/DX2                !
 ! D161  D(54,20,22,24)       -154.5728         estimate D2E/DX2                !
 ! D162  D(54,20,22,58)        -10.2157         estimate D2E/DX2                !
 ! D163  D(18,20,54,11)         -2.049          estimate D2E/DX2                !
 ! D164  D(18,20,54,56)       -144.1636         estimate D2E/DX2                !
 ! D165  D(22,20,54,11)        147.9485         estimate D2E/DX2                !
 ! D166  D(22,20,54,56)          5.8338         estimate D2E/DX2                !
 ! D167  D(19,21,23,1)          -3.3844         estimate D2E/DX2                !
 ! D168  D(19,21,23,25)       -154.5669         estimate D2E/DX2                !
 ! D169  D(57,21,23,1)         146.0258         estimate D2E/DX2                !
 ! D170  D(57,21,23,25)         -5.1567         estimate D2E/DX2                !
 ! D171  D(19,21,57,59)        152.1221         estimate D2E/DX2                !
 ! D172  D(19,21,57,83)         -2.5658         estimate D2E/DX2                !
 ! D173  D(23,21,57,59)          6.993          estimate D2E/DX2                !
 ! D174  D(23,21,57,83)       -147.6949         estimate D2E/DX2                !
 ! D175  D(20,22,24,26)          2.8793         estimate D2E/DX2                !
 ! D176  D(20,22,24,62)        152.4713         estimate D2E/DX2                !
 ! D177  D(58,22,24,26)       -145.5774         estimate D2E/DX2                !
 ! D178  D(58,22,24,62)          4.0147         estimate D2E/DX2                !
 ! D179  D(20,22,58,60)       -146.7459         estimate D2E/DX2                !
 ! D180  D(20,22,58,84)          5.2953         estimate D2E/DX2                !
 ! D181  D(24,22,58,60)          1.9556         estimate D2E/DX2                !
 ! D182  D(24,22,58,84)        153.9968         estimate D2E/DX2                !
 ! D183  D(1,23,25,27)           1.0282         estimate D2E/DX2                !
 ! D184  D(1,23,25,61)        -147.0363         estimate D2E/DX2                !
 ! D185  D(21,23,25,27)        149.0959         estimate D2E/DX2                !
 ! D186  D(21,23,25,61)          1.0314         estimate D2E/DX2                !
 ! D187  D(22,24,26,3)           0.6176         estimate D2E/DX2                !
 ! D188  D(22,24,26,28)        148.7954         estimate D2E/DX2                !
 ! D189  D(62,24,26,3)        -145.4435         estimate D2E/DX2                !
 ! D190  D(62,24,26,28)          2.7343         estimate D2E/DX2                !
 ! D191  D(22,24,62,60)         -7.7271         estimate D2E/DX2                !
 ! D192  D(22,24,62,64)       -125.9077         estimate D2E/DX2                !
 ! D193  D(22,24,62,90)        111.3699         estimate D2E/DX2                !
 ! D194  D(26,24,62,60)        141.3485         estimate D2E/DX2                !
 ! D195  D(26,24,62,64)         23.1679         estimate D2E/DX2                !
 ! D196  D(26,24,62,90)        -99.5546         estimate D2E/DX2                !
 ! D197  D(23,25,27,29)        -25.2245         estimate D2E/DX2                !
 ! D198  D(23,25,27,65)       -140.1616         estimate D2E/DX2                !
 ! D199  D(23,25,27,85)         99.5991         estimate D2E/DX2                !
 ! D200  D(61,25,27,29)        125.0005         estimate D2E/DX2                !
 ! D201  D(61,25,27,65)         10.0634         estimate D2E/DX2                !
 ! D202  D(61,25,27,85)       -110.1759         estimate D2E/DX2                !
 ! D203  D(23,25,61,59)          0.8298         estimate D2E/DX2                !
 ! D204  D(23,25,61,63)        144.8061         estimate D2E/DX2                !
 ! D205  D(27,25,61,59)       -150.3995         estimate D2E/DX2                !
 ! D206  D(27,25,61,63)         -6.4232         estimate D2E/DX2                !
 ! D207  D(3,26,28,30)           5.1755         estimate D2E/DX2                !
 ! D208  D(3,26,28,66)         120.7759         estimate D2E/DX2                !
 ! D209  D(3,26,28,89)        -116.6835         estimate D2E/DX2                !
 ! D210  D(24,26,28,30)       -145.3241         estimate D2E/DX2                !
 ! D211  D(24,26,28,66)        -29.7236         estimate D2E/DX2                !
 ! D212  D(24,26,28,89)         92.8169         estimate D2E/DX2                !
 ! D213  D(25,27,29,5)          19.3128         estimate D2E/DX2                !
 ! D214  D(25,27,29,31)       -146.2709         estimate D2E/DX2                !
 ! D215  D(65,27,29,5)         129.2423         estimate D2E/DX2                !
 ! D216  D(65,27,29,31)        -36.3414         estimate D2E/DX2                !
 ! D217  D(85,27,29,5)        -106.7453         estimate D2E/DX2                !
 ! D218  D(85,27,29,31)         87.6709         estimate D2E/DX2                !
 ! D219  D(25,27,65,63)        -10.2551         estimate D2E/DX2                !
 ! D220  D(25,27,65,67)        148.2119         estimate D2E/DX2                !
 ! D221  D(29,27,65,63)       -126.8938         estimate D2E/DX2                !
 ! D222  D(29,27,65,67)         31.5733         estimate D2E/DX2                !
 ! D223  D(85,27,65,63)        110.2173         estimate D2E/DX2                !
 ! D224  D(85,27,65,67)        -91.3156         estimate D2E/DX2                !
 ! D225  D(26,28,30,7)          -3.3902         estimate D2E/DX2                !
 ! D226  D(26,28,30,32)        147.4459         estimate D2E/DX2                !
 ! D227  D(66,28,30,7)        -119.9257         estimate D2E/DX2                !
 ! D228  D(66,28,30,32)         30.9105         estimate D2E/DX2                !
 ! D229  D(89,28,30,7)         117.8304         estimate D2E/DX2                !
 ! D230  D(89,28,30,32)        -91.3334         estimate D2E/DX2                !
 ! D231  D(26,28,66,64)         29.8381         estimate D2E/DX2                !
 ! D232  D(26,28,66,68)       -140.2837         estimate D2E/DX2                !
 ! D233  D(30,28,66,64)        140.0865         estimate D2E/DX2                !
 ! D234  D(30,28,66,68)        -30.0353         estimate D2E/DX2                !
 ! D235  D(89,28,66,64)        -94.8917         estimate D2E/DX2                !
 ! D236  D(89,28,66,68)         94.9865         estimate D2E/DX2                !
 ! D237  D(5,29,31,33)          -4.5135         estimate D2E/DX2                !
 ! D238  D(5,29,31,69)        -160.1716         estimate D2E/DX2                !
 ! D239  D(27,29,31,33)        161.6925         estimate D2E/DX2                !
 ! D240  D(27,29,31,69)          6.0343         estimate D2E/DX2                !
 ! D241  D(7,30,32,34)          -0.1112         estimate D2E/DX2                !
 ! D242  D(7,30,32,70)         148.8835         estimate D2E/DX2                !
 ! D243  D(28,30,32,34)       -148.7425         estimate D2E/DX2                !
 ! D244  D(28,30,32,70)          0.2523         estimate D2E/DX2                !
 ! D245  D(29,31,33,35)         -4.5155         estimate D2E/DX2                !
 ! D246  D(29,31,33,73)       -156.236          estimate D2E/DX2                !
 ! D247  D(69,31,33,35)        154.3685         estimate D2E/DX2                !
 ! D248  D(69,31,33,73)          2.6481         estimate D2E/DX2                !
 ! D249  D(29,31,69,67)         32.577          estimate D2E/DX2                !
 ! D250  D(29,31,69,71)        149.4133         estimate D2E/DX2                !
 ! D251  D(29,31,69,87)        -89.5485         estimate D2E/DX2                !
 ! D252  D(33,31,69,67)       -125.1578         estimate D2E/DX2                !
 ! D253  D(33,31,69,71)         -8.3214         estimate D2E/DX2                !
 ! D254  D(33,31,69,87)        112.7167         estimate D2E/DX2                !
 ! D255  D(30,32,34,36)          5.0686         estimate D2E/DX2                !
 ! D256  D(30,32,34,74)        154.3185         estimate D2E/DX2                !
 ! D257  D(70,32,34,36)       -146.7706         estimate D2E/DX2                !
 ! D258  D(70,32,34,74)          2.4794         estimate D2E/DX2                !
 ! D259  D(30,32,70,68)        -31.7106         estimate D2E/DX2                !
 ! D260  D(30,32,70,72)       -148.7825         estimate D2E/DX2                !
 ! D261  D(30,32,70,88)         89.7638         estimate D2E/DX2                !
 ! D262  D(34,32,70,68)        119.5981         estimate D2E/DX2                !
 ! D263  D(34,32,70,72)          2.5262         estimate D2E/DX2                !
 ! D264  D(34,32,70,88)       -118.9275         estimate D2E/DX2                !
 ! D265  D(31,33,35,9)          10.3226         estimate D2E/DX2                !
 ! D266  D(31,33,35,37)       -147.9469         estimate D2E/DX2                !
 ! D267  D(73,33,35,9)         157.9778         estimate D2E/DX2                !
 ! D268  D(73,33,35,37)         -0.2917         estimate D2E/DX2                !
 ! D269  D(31,33,73,71)          4.6696         estimate D2E/DX2                !
 ! D270  D(31,33,73,75)        149.8047         estimate D2E/DX2                !
 ! D271  D(35,33,73,71)       -146.7679         estimate D2E/DX2                !
 ! D272  D(35,33,73,75)         -1.6329         estimate D2E/DX2                !
 ! D273  D(32,34,36,12)         -7.2379         estimate D2E/DX2                !
 ! D274  D(32,34,36,38)        147.515          estimate D2E/DX2                !
 ! D275  D(74,34,36,12)       -152.0346         estimate D2E/DX2                !
 ! D276  D(74,34,36,38)          2.7182         estimate D2E/DX2                !
 ! D277  D(32,34,74,72)         -6.8507         estimate D2E/DX2                !
 ! D278  D(32,34,74,76)       -152.9919         estimate D2E/DX2                !
 ! D279  D(36,34,74,72)        142.6486         estimate D2E/DX2                !
 ! D280  D(36,34,74,76)         -3.4926         estimate D2E/DX2                !
 ! D281  D(9,35,37,39)          -3.5645         estimate D2E/DX2                !
 ! D282  D(9,35,37,77)        -155.8196         estimate D2E/DX2                !
 ! D283  D(33,35,37,39)        153.5347         estimate D2E/DX2                !
 ! D284  D(33,35,37,77)          1.2796         estimate D2E/DX2                !
 ! D285  D(12,36,38,42)          0.9193         estimate D2E/DX2                !
 ! D286  D(12,36,38,78)        154.6254         estimate D2E/DX2                !
 ! D287  D(34,36,38,42)       -152.9277         estimate D2E/DX2                !
 ! D288  D(34,36,38,78)          0.7785         estimate D2E/DX2                !
 ! D289  D(35,37,39,43)          9.0057         estimate D2E/DX2                !
 ! D290  D(35,37,39,79)       -143.552          estimate D2E/DX2                !
 ! D291  D(77,37,39,43)        161.5835         estimate D2E/DX2                !
 ! D292  D(77,37,39,79)          9.0258         estimate D2E/DX2                !
 ! D293  D(35,37,77,75)         -0.415          estimate D2E/DX2                !
 ! D294  D(35,37,77,81)        139.6205         estimate D2E/DX2                !
 ! D295  D(39,37,77,75)       -153.0484         estimate D2E/DX2                !
 ! D296  D(39,37,77,81)        -13.0129         estimate D2E/DX2                !
 ! D297  D(36,38,42,46)         -3.825          estimate D2E/DX2                !
 ! D298  D(36,38,42,80)        148.2791         estimate D2E/DX2                !
 ! D299  D(78,38,42,46)       -157.6808         estimate D2E/DX2                !
 ! D300  D(78,38,42,80)         -5.5768         estimate D2E/DX2                !
 ! D301  D(36,38,78,76)         -3.5228         estimate D2E/DX2                !
 ! D302  D(36,38,78,81)       -143.5072         estimate D2E/DX2                !
 ! D303  D(42,38,78,76)        150.7029         estimate D2E/DX2                !
 ! D304  D(42,38,78,81)         10.7185         estimate D2E/DX2                !
 ! D305  D(37,39,43,2)        -148.8033         estimate D2E/DX2                !
 ! D306  D(37,39,43,13)         -1.8357         estimate D2E/DX2                !
 ! D307  D(79,39,43,2)           5.0342         estimate D2E/DX2                !
 ! D308  D(79,39,43,13)        152.0018         estimate D2E/DX2                !
 ! D309  D(37,39,79,40)        139.0861         estimate D2E/DX2                !
 ! D310  D(37,39,79,82)         -0.0454         estimate D2E/DX2                !
 ! D311  D(43,39,79,40)        -14.2753         estimate D2E/DX2                !
 ! D312  D(43,39,79,82)       -153.4068         estimate D2E/DX2                !
 ! D313  D(44,40,41,45)         -1.3284         estimate D2E/DX2                !
 ! D314  D(44,40,41,80)       -150.0479         estimate D2E/DX2                !
 ! D315  D(79,40,41,45)        147.8219         estimate D2E/DX2                !
 ! D316  D(79,40,41,80)         -0.8975         estimate D2E/DX2                !
 ! D317  D(41,40,44,2)         151.3064         estimate D2E/DX2                !
 ! D318  D(41,40,44,47)         -1.8818         estimate D2E/DX2                !
 ! D319  D(79,40,44,2)           6.3782         estimate D2E/DX2                !
 ! D320  D(79,40,44,47)       -146.81           estimate D2E/DX2                !
 ! D321  D(41,40,79,39)       -140.2609         estimate D2E/DX2                !
 ! D322  D(41,40,79,82)          3.5049         estimate D2E/DX2                !
 ! D323  D(44,40,79,39)          8.8658         estimate D2E/DX2                !
 ! D324  D(44,40,79,82)        152.6316         estimate D2E/DX2                !
 ! D325  D(40,41,45,4)        -150.4325         estimate D2E/DX2                !
[...]
 Alpha virt. eigenvalues --    1.23503   1.23645   1.23773   1.24037   1.24384
 Alpha virt. eigenvalues --    1.24853   1.25250   1.25412   1.25742   1.26022
 Alpha virt. eigenvalues --    1.26075   1.26511   1.26917   1.27143   1.27425
 Alpha virt. eigenvalues --    1.27663   1.27949   1.28032   1.28677   1.28990
 Alpha virt. eigenvalues --    1.29131   1.29518   1.30262   1.30332   1.30392
 Alpha virt. eigenvalues --    1.30913   1.31462   1.31743   1.31807   1.32148
 Alpha virt. eigenvalues --    1.32687   1.32946   1.33086   1.33303   1.33828
 Alpha virt. eigenvalues --    1.34145   1.34663   1.34871   1.35095   1.35951
 Alpha virt. eigenvalues --    1.36338   1.36719   1.36920   1.38010   1.38747
 Alpha virt. eigenvalues --    1.38886   1.39160   1.39910   1.40449   1.40709
 Alpha virt. eigenvalues --    1.40765   1.41413   1.42063   1.42863   1.43266
 Alpha virt. eigenvalues --    1.43847   1.43984   1.44911   1.45162   1.45620
 Alpha virt. eigenvalues --    1.45729   1.46542   1.46992   1.47187   1.48094
 Alpha virt. eigenvalues --    1.48580   1.49156   1.49794   1.50084   1.50669
 Alpha virt. eigenvalues --    1.51302   1.51847   1.52202   1.52786   1.53541
 Alpha virt. eigenvalues --    1.54245   1.54608   1.54771   1.55478   1.55838
 Alpha virt. eigenvalues --    1.56069   1.56570   1.56831   1.57428   1.57899
 Alpha virt. eigenvalues --    1.59357   1.59657   1.59853   1.60150   1.60493
 Alpha virt. eigenvalues --    1.61179   1.61680   1.61856   1.62123   1.62778
 Alpha virt. eigenvalues --    1.63129   1.63580   1.63978   1.64476   1.64610
 Alpha virt. eigenvalues --    1.64926   1.65117   1.65289   1.65900   1.66147
 Alpha virt. eigenvalues --    1.66335   1.66412   1.66612   1.66799   1.67196
 Alpha virt. eigenvalues --    1.67754   1.68016   1.68184   1.68344   1.68558
 Alpha virt. eigenvalues --    1.68920   1.69405   1.69518   1.69676   1.69812
 Alpha virt. eigenvalues --    1.69865   1.70280   1.70424   1.70649   1.70966
 Alpha virt. eigenvalues --    1.71107   1.71551   1.71577   1.71740   1.72046
 Alpha virt. eigenvalues --    1.72487   1.72680   1.72938   1.73196   1.73471
 Alpha virt. eigenvalues --    1.73830   1.74062   1.74218   1.74555   1.74821
 Alpha virt. eigenvalues --    1.74982   1.75337   1.75502   1.75555   1.75673
 Alpha virt. eigenvalues --    1.76001   1.76222   1.76263   1.76477   1.76891
 Alpha virt. eigenvalues --    1.77016   1.77279   1.77545   1.77785   1.77876
 Alpha virt. eigenvalues --    1.77965   1.78323   1.78610   1.78880   1.79071
 Alpha virt. eigenvalues --    1.79445   1.79985   1.80135   1.80307   1.80614
 Alpha virt. eigenvalues --    1.81224   1.81605   1.81832   1.82134   1.82892
 Alpha virt. eigenvalues --    1.83125   1.83690   1.83937   1.84217   1.84446
 Alpha virt. eigenvalues --    1.85068   1.85643   1.86196   1.86395   1.86614
 Alpha virt. eigenvalues --    1.87312   1.87486   1.88169   1.88437   1.89235
 Alpha virt. eigenvalues --    1.89477   1.89649   1.89857   1.90052   1.90592
 Alpha virt. eigenvalues --    1.91290   1.91936   1.92331   1.92615   1.92860
 Alpha virt. eigenvalues --    1.93452   1.93812   1.93983   1.94521   1.94544
 Alpha virt. eigenvalues --    1.94723   1.95365   1.95662   1.96186   1.96289
 Alpha virt. eigenvalues --    1.96591   1.96895   1.97043   1.97447   1.97691
 Alpha virt. eigenvalues --    1.98063   1.98233   1.98392   1.98892   1.99166
 Alpha virt. eigenvalues --    1.99194   1.99643   1.99757   1.99888   2.00275
 Alpha virt. eigenvalues --    2.00736   2.01083   2.01178   2.01413   2.01615
 Alpha virt. eigenvalues --    2.01812   2.02114   2.02282   2.02462   2.02809
 Alpha virt. eigenvalues --    2.02892   2.03030   2.03628   2.03883   2.04131
 Alpha virt. eigenvalues --    2.04181   2.04568   2.04700   2.05187   2.05455
 Alpha virt. eigenvalues --    2.06031   2.06116   2.07112   2.07676   2.07777
 Alpha virt. eigenvalues --    2.08051   2.08211   2.08631   2.09017   2.09371
 Alpha virt. eigenvalues --    2.09884   2.10618   2.11114   2.11411   2.12183
 Alpha virt. eigenvalues --    2.12512   2.13047   2.13347   2.13525   2.14300
 Alpha virt. eigenvalues --    2.14534   2.14658   2.14970   2.15094   2.15563
 Alpha virt. eigenvalues --    2.15722   2.16608   2.17419   2.17817   2.18383
 Alpha virt. eigenvalues --    2.18865   2.19746   2.19991   2.20027   2.20416
 Alpha virt. eigenvalues --    2.20587   2.20823   2.21282   2.21906   2.22147
 Alpha virt. eigenvalues --    2.22434   2.22869   2.23427   2.23726   2.24066
 Alpha virt. eigenvalues --    2.24268   2.24435   2.25052   2.25354   2.26214
 Alpha virt. eigenvalues --    2.26480   2.26865   2.27409   2.27524   2.27726
 Alpha virt. eigenvalues --    2.28362   2.28932   2.29052   2.29202   2.29790
 Alpha virt. eigenvalues --    2.30006   2.30527   2.31282   2.31569   2.31936
 Alpha virt. eigenvalues --    2.32313   2.32671   2.33427   2.33791   2.34251
 Alpha virt. eigenvalues --    2.35568   2.36227   2.36321   2.36665   2.37565
 Alpha virt. eigenvalues --    2.37847   2.38508   2.39021   2.39495   2.39997
 Alpha virt. eigenvalues --    2.40202   2.40978   2.41435   2.41879   2.42708
 Alpha virt. eigenvalues --    2.42917   2.43612   2.44000   2.44111   2.44370
 Alpha virt. eigenvalues --    2.45031   2.46235   2.46753   2.46856   2.47238
 Alpha virt. eigenvalues --    2.48087   2.49000   2.49561   2.50113   2.50292
 Alpha virt. eigenvalues --    2.50865   2.51562   2.51914   2.52314   2.52478
 Alpha virt. eigenvalues --    2.52945   2.53247   2.53632   2.54039   2.54434
 Alpha virt. eigenvalues --    2.54860   2.55035   2.55631   2.55916   2.56094
 Alpha virt. eigenvalues --    2.56168   2.56736   2.57120   2.57676   2.58092
 Alpha virt. eigenvalues --    2.58172   2.58499   2.58632   2.58827   2.59118
 Alpha virt. eigenvalues --    2.59332   2.59759   2.60272   2.60608   2.60970
 Alpha virt. eigenvalues --    2.61326   2.61828   2.61983   2.62625   2.62763
 Alpha virt. eigenvalues --    2.63187   2.63655   2.63702   2.64458   2.64615
 Alpha virt. eigenvalues --    2.64727   2.64853   2.65272   2.65586   2.65729
 Alpha virt. eigenvalues --    2.66173   2.66567   2.67215   2.67731   2.67870
 Alpha virt. eigenvalues --    2.68306   2.68620   2.69040   2.69364   2.69852
 Alpha virt. eigenvalues --    2.70139   2.70530   2.70969   2.71146   2.71543
 Alpha virt. eigenvalues --    2.72184   2.72402   2.72843   2.73061   2.73768
 Alpha virt. eigenvalues --    2.74053   2.74454   2.74869   2.75134   2.76200
 Alpha virt. eigenvalues --    2.76516   2.76796   2.77180   2.77601   2.77911
 Alpha virt. eigenvalues --    2.78679   2.78932   2.79243   2.79692   2.80391
 Alpha virt. eigenvalues --    2.80436   2.81099   2.81486   2.81630   2.82214
 Alpha virt. eigenvalues --    2.82606   2.83000   2.83622   2.83735   2.84409
 Alpha virt. eigenvalues --    2.84920   2.85771   2.86212   2.86761   2.87118
 Alpha virt. eigenvalues --    2.87243   2.87618   2.88157   2.88847   2.89084
 Alpha virt. eigenvalues --    2.89561   2.89956   2.90497   2.91100   2.91473
 Alpha virt. eigenvalues --    2.91823   2.91959   2.92849   2.93319   2.93441
 Alpha virt. eigenvalues --    2.93800   2.94213   2.94680   2.95301   2.96344
 Alpha virt. eigenvalues --    2.97256   2.97538   2.97797   2.99042   2.99980
 Alpha virt. eigenvalues --    3.00750   3.01124   3.02580   3.03304   3.03685
 Alpha virt. eigenvalues --    3.04493   3.07438   3.07721   3.09246   3.10022
 Alpha virt. eigenvalues --    3.11828   3.13440   3.16289   3.16457   3.16692
 Alpha virt. eigenvalues --    3.18503   3.20352   3.20885   3.22796   3.24349
 Alpha virt. eigenvalues --    3.26286   3.26816   3.28168   3.29284   3.31470
 Alpha virt. eigenvalues --    3.32852   3.35097   3.36256   3.37638   3.38466
 Alpha virt. eigenvalues --    3.40672   3.42728   3.43432   3.45524   3.46891
 Alpha virt. eigenvalues --    3.48702   3.51151   3.51904   3.56634   3.59497
 Alpha virt. eigenvalues --    3.59929   4.00803   4.01260   4.01605   4.01998
 Alpha virt. eigenvalues --    4.02903   4.04281   4.04697   4.05193   4.05532
 Alpha virt. eigenvalues --    4.05995   4.06774   4.07116   4.08039   4.08391
 Alpha virt. eigenvalues --    4.08657   4.09262   4.10068   4.10634   4.10937
 Alpha virt. eigenvalues --    4.12178   4.12404   4.13613   4.14478   4.16046
 Alpha virt. eigenvalues --    4.16637   4.17553   4.17666   4.19277   4.19858
 Alpha virt. eigenvalues --    4.20777   4.21587   4.22041   4.22208   4.23162
 Alpha virt. eigenvalues --    4.24041   4.25131   4.26684   4.27141   4.27944
 Alpha virt. eigenvalues --    4.28021   4.28997   4.29229   4.29402   4.29985
 Alpha virt. eigenvalues --    4.31165   4.33045   4.34281   4.34875   4.37007
 Alpha virt. eigenvalues --    4.37845   4.40214   4.41125   4.41727   4.42297
 Alpha virt. eigenvalues --    4.43959   4.44336   4.47162   4.47812   4.48504
 Alpha virt. eigenvalues --    4.49972   4.52324   4.52883   4.54902   4.57340
 Alpha virt. eigenvalues --    4.57493   4.59253   4.59846   4.62889   4.63191
 Alpha virt. eigenvalues --    4.64036   4.66335   4.68471   4.69116   4.73792
 Alpha virt. eigenvalues --    4.78874   4.80157   4.81249   4.83735   4.85388
 Alpha virt. eigenvalues --    4.89139   4.91847   4.93571   4.94490   5.03442
 Alpha virt. eigenvalues --    5.05393   5.11442   5.13094   5.15006   5.20846
 Alpha virt. eigenvalues --    5.25489
          Condensed to atoms (all electrons):
 Mulliken charges:
               1
     1  C   -0.360795
     2  C   -0.022640
     3  C    0.003917
     4  C   -0.030634
     5  C    0.090066
     6  C   -0.008286
     7  C    0.005941
     8  C   -0.017294
     9  C    0.060318
    10  C    0.000880
    11  C   -0.001177
    12  C    0.049737
    13  C   -0.044859
    14  C   -0.027926
    15  C    0.008827
    16  C   -0.021743
    17  C    0.076758
    18  C    0.045758
    19  C    0.024974
    20  C    0.050908
    21  C    0.004804
    22  C    0.003205
    23  C    0.094215
    24  C    0.087899
    25  C    0.090915
    26  C    0.090501
    27  C   -0.381173
    28  C   -0.378720
    29  C    0.154100
    30  C    0.087431
    31  C    0.076638
    32  C    0.088924
    33  C    0.009519
    34  C    0.005490
    35  C    0.028612
    36  C    0.030805
    37  C    0.049928
    38  C    0.052753
    39  C    0.052311
    40  C   -0.031498
    41  C   -0.035169
    42  C    0.057634
    43  C   -0.026055
    44  C    0.053369
    45  C    0.063142
    46  C   -0.036439
    47  C    0.048361
    48  C    0.050013
    49  C   -0.024463
    50  C   -0.025979
    51  C   -0.006611
    52  C   -0.015711
    53  C   -0.015322
    54  C   -0.014050
    55  C   -0.012393
    56  C   -0.017710
    57  C    0.032658
    58  C    0.017825
    59  C    0.064946
    60  C    0.047015
    61  C   -0.015635
    62  C   -0.369776
    63  C    0.041511
    64  C    0.122941
    65  C    0.082231
    66  C    0.130758
    67  C    0.150484
    68  C    0.116152
    69  C   -0.379098
    70  C   -0.373426
    71  C    0.089294
    72  C    0.094615
    73  C    0.023967
    74  C    0.023530
    75  C   -0.015031
    76  C   -0.014974
    77  C   -0.023979
    78  C   -0.027146
    79  C   -0.024486
    80  C   -0.028746
    81  C   -0.002299
    82  C   -0.020457
    83  C    0.046174
    84  C    0.049233
    85  Cl   0.013459
    86  Cl  -0.006495
    87  Cl   0.004502
    88  Cl   0.002442
    89  Cl   0.010959
    90  Cl  -0.005148
 Sum of Mulliken charges =  -0.00000
 Mulliken charges with hydrogens summed into heavy atoms:
               1
     1  C   -0.360795
     2  C   -0.022640
     3  C    0.003917
     4  C   -0.030634
     5  C    0.090066
     6  C   -0.008286
     7  C    0.005941
     8  C   -0.017294
     9  C    0.060318
    10  C    0.000880
    11  C   -0.001177
    12  C    0.049737
    13  C   -0.044859
    14  C   -0.027926
    15  C    0.008827
    16  C   -0.021743
    17  C    0.076758
    18  C    0.045758
    19  C    0.024974
    20  C    0.050908
    21  C    0.004804
    22  C    0.003205
    23  C    0.094215
    24  C    0.087899
    25  C    0.090915
    26  C    0.090501
    27  C   -0.381173
    28  C   -0.378720
    29  C    0.154100
    30  C    0.087431
    31  C    0.076638
    32  C    0.088924
    33  C    0.009519
    34  C    0.005490
    35  C    0.028612
    36  C    0.030805
    37  C    0.049928
    38  C    0.052753
    39  C    0.052311
    40  C   -0.031498
    41  C   -0.035169
    42  C    0.057634
    43  C   -0.026055
    44  C    0.053369
    45  C    0.063142
    46  C   -0.036439
    47  C    0.048361
    48  C    0.050013
    49  C   -0.024463
    50  C   -0.025979
    51  C   -0.006611
    52  C   -0.015711
    53  C   -0.015322
    54  C   -0.014050
    55  C   -0.012393
    56  C   -0.017710
    57  C    0.032658
    58  C    0.017825
    59  C    0.064946
    60  C    0.047015
    61  C   -0.015635
    62  C   -0.369776
    63  C    0.041511
    64  C    0.122941
    65  C    0.082231
    66  C    0.130758
    67  C    0.150484
    68  C    0.116152
    69  C   -0.379098
    70  C   -0.373426
    71  C    0.089294
    72  C    0.094615
    73  C    0.023967
    74  C    0.023530
    75  C   -0.015031
    76  C   -0.014974
    77  C   -0.023979
    78  C   -0.027146
    79  C   -0.024486
    80  C   -0.028746
    81  C   -0.002299
    82  C   -0.020457
    83  C    0.046174
    84  C    0.049233
    85  Cl   0.013459
    86  Cl  -0.006495
    87  Cl   0.004502
    88  Cl   0.002442
    89  Cl   0.010959
    90  Cl  -0.005148
 Electronic spatial extent (au):  <R**2>=          46381.3812
 Charge=              0.0000 electrons
 Dipole moment (field-independent basis, Debye):
    X=              5.3287    Y=             -3.2757    Z=              0.2384  Tot=              6.2595
 Quadrupole moment (field-independent basis, Debye-Ang):
   XX=           -552.8572   YY=           -548.5560   ZZ=           -529.6420
   XY=              1.8395   XZ=             -8.5966   YZ=              1.3699
 Traceless Quadrupole moment (field-independent basis, Debye-Ang):
   XX=             -9.1721   YY=             -4.8709   ZZ=             14.0430
   XY=              1.8395   XZ=             -8.5966   YZ=              1.3699
 Octapole moment (field-independent basis, Debye-Ang**2):
  XXX=              4.8558  YYY=            -38.8127  ZZZ=             -9.5705  XYY=            -28.8644
  XXY=             20.0747  XXZ=            -18.8171  XZZ=             -7.3553  YZZ=             28.7023
  YYZ=             -7.3336  XYZ=             21.7150
 Hexadecapole moment (field-independent basis, Debye-Ang**3):
 XXXX=         -25641.7097 YYYY=         -22963.6223 ZZZZ=         -19123.1120 XXXY=            -76.7661
 XXXZ=             52.9621 YYYX=             -7.1814 YYYZ=            105.8865 ZZZX=           -107.1692
 ZZZY=             25.0879 XXYY=          -8076.9958 XXZZ=          -7497.6281 YYZZ=          -6910.8843
 XXYZ=            -38.3052 YYXZ=              0.9977 ZZXY=              6.8964
 N-N= 1.882663723967D+04 E-N=-5.161722643587D+04  KE= 5.923807605832D+03
 No NMR shielding tensors so no spin-rotation constants.
 Leave Link  601 at Sun Jun 26 15:01:59 2022, MaxMem=  1342177280 cpu:              24.1 elap:               1.2
 (Enter /home/mkliu/g16/l9999.exe)
 1\1\GINC-NODE05\FOpt\RB3LYP\6-31G(d,p)\C84Cl6\MKLIU\26-Jun-2022\0\\#P 
 opt b3lyp/6-31G(d, p) empiricaldispersion=GD3\\force\\0,1\C,8.46182892
 79,18.6174389242,10.8193691773\C,12.435144014,20.1326209424,8.95576236
 92\C,8.2765359614,26.8835798687,10.5215150949\C,12.3272055174,25.60692
 65515,8.9516737391\C,8.0496260887,19.1482526468,9.4402056908\C,12.1012
 129191,19.4995203725,10.1959356706\C,7.9669649672,26.8445608208,9.1144
 346687\C,11.881898046,26.1769500417,10.1945954682\C,9.0133437148,19.22
 04176931,8.379125629\C,12.387171958,20.1390374554,11.3891431811\C,12.1
 411518929,25.5125875884,11.3809478052\C,8.9776077698,26.6723974416,8.1
 287721561\C,10.4031834844,19.0049184682,8.6771935759\C,10.3188823808,2
 6.7309193318,8.5965469372\C,10.8530806591,18.7775961783,10.023559342\C
 ,10.6306560866,26.8480080354,9.989212476\C,9.9528138462,18.7038377471,
 11.0659652654\C,9.6151095892,26.8068655208,10.9849913416\C,10.21149765
 28,19.4114574485,12.2695760516\C,9.8701416665,26.0786092469,12.2181732
 389\C,8.9784717249,19.9912866121,12.743974687\C,8.7733460124,25.452048
 1791,12.8580632732\C,7.9192069689,19.5007633335,11.9386215221\C,7.4458
 325221,25.5896521467,12.3893442132\C,6.7759453255,20.2357433425,11.785
 1043459\C,7.1992054591,26.2885230353,11.2363303847\C,5.9554622916,20.1
 87576412,10.5162157495\C,6.055261231,25.9470258352,10.2938124701\C,6.7
 997659741,19.7912388938,9.3164064214\C,6.6632006718,26.2987723394,8.95
 35884596\C,6.4497144013,20.3761281364,8.1011654954\C,6.3538379749,25.6
 260203634,7.8148132425\C,7.3651252635,20.4160298223,7.0337949922\C,7.3
 31693175,25.4718523477,6.7813173337\C,8.6979638637,19.9454545808,7.168
 963924\C,8.6763344673,25.9116932024,6.9328920524\C,9.7420046856,20.605
 9024891,6.3864973141\C,9.7423800787,25.1616762203,6.2614115656\C,11.10
 42085632,20.5847331565,6.8901241058\C,12.8347688742,22.1649273618,7.73
 10412473\C,12.8158641047,23.6014108308,7.7253239856\C,11.0979432309,25
 .1787980898,6.8269013614\C,11.4022771852,19.7657672958,8.0042820354\C,
 13.034130427,21.4187674524,8.9199578544\C,12.9683373869,24.3402932202,
 8.9218309091\C,11.3674675574,25.9928539551,7.9480669119\C,13.278907912
 8,22.1408414569,10.1734993758\C,13.2259202554,23.6115540816,10.1760451
 284\C,12.9952331381,21.4538219246,11.3769835927\C,12.8770695007,24.264
 2039289,11.3757735095\C,12.4732232055,22.1526055314,12.5247232336\C,12
 .4177055773,23.5233705004,12.5205509424\C,11.4123100651,20.1020283338,
 12.4568979762\C,11.1386983361,25.4559902447,12.4051410147\C,11.4000319
 013,21.3727067346,13.1057026614\C,11.2882776877,24.2015302069,13.10127
 49435\C,8.9385125504,21.287657088,13.3432174788\C,8.911005789,24.13433
 50382,13.469367394\C,7.6971219326,22.0262836032,13.213878294\C,7.71766
 68873,23.4431738229,13.3339945779\C,6.6586438745,21.4858029824,12.4223
 11424\C,6.6389493735,24.3653139362,12.7601122337\C,5.8776342174,22.356
 7944646,11.5435595937\C,5.9759794733,23.748837481,11.545691051\C,5.538
 3066375,21.6539121715,10.3820772197\C,5.7298665919,24.4499691804,10.34
 72967151\C,5.3309649681,22.3240197229,9.1825374357\C,5.405646156,23.74
 01055466,9.1608967749\C,5.3826878872,21.467804377,7.9276748618\C,5.365
 1562915,24.4722109051,7.8133243299\C,5.9276736736,22.2411587497,6.7524
 188215\C,5.9211242553,23.6042830702,6.6996400705\C,7.0161922161,21.514
 0449731,6.1654291152\C,7.0048861073,24.2895271274,6.0440701692\C,8.009
 5493127,22.1516947198,5.4505035665\C,8.0110629568,23.5905712534,5.3936
 319196\C,9.373244046,21.6923953219,5.5502059907\C,9.3744779002,24.0410
 754477,5.4802474044\C,11.9511467948,21.7086619548,6.6954228904\C,11.94
 67592485,24.0460652591,6.6665065909\C,10.2117951673,22.8559245393,5.43
 36641847\C,11.465703778,22.8705763506,6.0105622087\C,10.1920362955,22.
 0054955844,13.5267576856\C,10.1745158941,23.4604579436,13.5553483996\C
 l,4.504426542,19.0675702407,10.7073227542\Cl,7.86896628,16.8660840412,
 10.9908636095\Cl,3.7135440937,20.7694276338,7.5500113631\Cl,3.63717440
 81,25.0190003226,7.4544937787\Cl,4.5469051444,26.9313496802,10.6797470
 551\Cl,5.3615572263,24.7373326808,14.054588851\\Version=ES64L-G16RevA.
 03\State=1-A\HF=-5962.2151325\RMSD=6.903e-09\RMSF=6.874e-05\Dipole=2.4
 118987,0.4905684,0.0833913\Quadrupole=-8.3562907,-3.2196879,11.5759786
 ,0.5980265,4.532113,0.2696117\PG=C01 [X(C84Cl6)]\\@


 A people that values its privileges above its principles soon loses both.
 -- Dwight D. Eisenhower
 Job cpu time:       1 days  6 hours 37 minutes 56.2 seconds.
 Elapsed time:       0 days  1 hours 16 minutes 41.3 seconds.
 File lengths (MBytes):  RWF=   1161 Int=      0 D2E=      0 Chk=    146 Scr=      1
 Normal termination of Gaussian 16 at Sun Jun 26 15:02:01 2022.
