 Entering Gaussian System, Link 0=g16
 Input=6_addons_C84_11_Cl22_rank_6.gjf
 Output=6_addons_C84_11_Cl22_rank_6.log
 Initial command:
 /home/mkliu/g16/l1.exe "/data/scratch/Gau-21858.inp" -scrdir="/data/scratch/"
 Entering Link 1 = /home/mkliu/g16/l1.exe PID=     21859.
  
 Copyright (c) 1988,1990,1992,1993,1995,1998,2003,2009,2016,
            Gaussian, Inc.  All Rights Reserved.
  
 This is part of the Gaussian(R) 16 program.  It is based on
 the Gaussian(R) 09 system (copyright 2009, Gaussian, Inc.),
 the Gaussian(R) 03 system (copyright 2003, Gaussian, Inc.),
 the Gaussian(R) 98 system (copyright 1998, Gaussian, Inc.),
 the Gaussian(R) 94 system (copyright 1995, Gaussian, Inc.),
 the Gaussian 92(TM) system (copyright 1992, Gaussian, Inc.),
 the Gaussian 90(TM) system (copyright 1990, Gaussian, Inc.),
 the Gaussian 88(TM) system (copyright 1988, Gaussian, Inc.),
 the Gaussian 86(TM) system (copyright 1986, Carnegie Mellon
 University), and the Gaussian 82(TM) system (copyright 1983,
 Carnegie Mellon University). Gaussian is a federally registered
 trademark of Gaussian, Inc.
  
 This software contains proprietary and confidential information,
 including trade secrets, belonging to Gaussian, Inc.
  
 This software is provided under written license and may be
 used, copied, transmitted, or stored only in accord with that
 written license.
  
 The following legend is applicable only to US Government
 contracts under FAR:
  
                    RESTRICTED RIGHTS LEGEND
  
 Use, reproduction and disclosure by the US Government is
 subject to restrictions as set forth in subparagraphs (a)
 and (c) of the Commercial Computer Software - Restricted
 Rights clause in FAR 52.227-19.
  
 Gaussian, Inc.
 340 Quinnipiac St., Bldg. 40, Wallingford CT 06492
  
  
 ---------------------------------------------------------------
 Warning -- This program may not be used in any manner that
 competes with the business of Gaussian, Inc. or will provide
 assistance to any competitor of Gaussian, Inc.  The licensee
 of this program is prohibited from giving any competitor of
 Gaussian, Inc. access to this program.  By using this program,
 the user acknowledges that Gaussian, Inc. is engaged in the
 business of creating and licensing software in the field of
 computational chemistry and represents and warrants to the
 licensee that it is not a competitor of Gaussian, Inc. and that
 it will not use this program in any manner prohibited above.
 ---------------------------------------------------------------
  

 Cite this work as:
 Gaussian 16, Revision A.03,
 M. J. Frisch, G. W. Trucks, H. B. Schlegel, G. E. Scuseria, 
 M. A. Robb, J. R. Cheeseman, G. Scalmani, V. Barone, 
 G. A. Petersson, H. Nakatsuji, X. Li, M. Caricato, A. V. Marenich, 
 J. Bloino, B. G. Janesko, R. Gomperts, B. Mennucci, H. P. Hratchian, 
 J. V. Ortiz, A. F. Izmaylov, J. L. Sonnenberg, D. Williams-Young, 
 F. Ding, F. Lipparini, F. Egidi, J. Goings, B. Peng, A. Petrone, 
 T. Henderson, D. Ranasinghe, V. G. Zakrzewski, J. Gao, N. Rega, 
 G. Zheng, W. Liang, M. Hada, M. Ehara, K. Toyota, R. Fukuda, 
 J. Hasegawa, M. Ishida, T. Nakajima, Y. Honda, O. Kitao, H. Nakai, 
 T. Vreven, K. Throssell, J. A. Montgomery, Jr., J. E. Peralta, 
 F. Ogliaro, M. J. Bearpark, J. J. Heyd, E. N. Brothers, K. N. Kudin, 
 V. N. Staroverov, T. A. Keith, R. Kobayashi, J. Normand, 
 K. Raghavachari, A. P. Rendell, J. C. Burant, S. S. Iyengar, 
 J. Tomasi, M. Cossi, J. M. Millam, M. Klene, C. Adamo, R. Cammi, 
 J. W. Ochterski, R. L. Martin, K. Morokuma, O. Farkas, 
 J. B. Foresman, and D. J. Fox, Gaussian, Inc., Wallingford CT, 2016.
 
 ******************************************
 Gaussian 16:  ES64L-G16RevA.03 25-Dec-2016
                28-Jun-2022 
 ******************************************
 %mem=10GB
 %chk=6_addons_C84_11_Cl22_rank_6.chk
 %nprocshared=24
 Will use up to   24 processors via shared memory.
 ------------------------------------------------
 #P opt b3lyp/6-31G(d, p) empiricaldispersion=GD3
 ------------------------------------------------
 1/18=20,19=15,26=3,38=1/1,3;
 2/9=110,12=2,17=6,18=5,40=1/2;
 3/5=1,6=6,7=101,11=2,25=1,30=1,71=1,74=-5,124=31/1,2,3;
 4//1;
 5/5=2,38=5/2;
 6/7=2,8=2,9=2,10=2,28=1/1;
 7//1,2,3,16;
 1/18=20,19=15,26=3/3(2);
 2/9=110/2;
 99//99;
 2/9=110/2;
 3/5=1,6=6,7=101,11=2,25=1,30=1,71=1,74=-5,124=31/1,2,3;
 4/5=5,16=3,69=1/1;
 5/5=2,38=5/2;
 7//1,2,3,16;
 1/18=20,19=15,26=3/3(-5);
 2/9=110/2;
 6/7=2,8=2,9=2,10=2,19=2,28=1/1;
 99/9=1/99;
 Leave Link    1 at Tue Jun 28 13:21:00 2022, MaxMem=  1342177280 cpu:               0.6 elap:               0.1
 (Enter /home/mkliu/g16/l101.exe)
 -----
 force
 -----
 Symbolic Z-matrix:
 Charge =  0 Multiplicity = 1
 C                     8.51427   18.85093   10.77744 
 C                     12.37906   20.1519   8.96481 
 C                     8.28948   26.87568   10.53869 
 C                     12.26231   25.55347   9.00656 
 C                     8.03879   19.10133   9.46451 
 C                     12.06145   19.50699   10.19749 
 C                     7.88581   27.11563   9.09461 
 C                     11.8733   26.15041   10.20321 
 C                     8.9943    19.18833   8.38194 
 C                     12.3357   20.15077   11.38547 
 C                     12.11863   25.48452   11.38857 
 C                     8.94603   26.58824   8.15758 
 C                     10.36138   19.02552   8.68994 
 C                     10.24063   26.63558   8.62338 
 C                     10.81731   18.80109   10.0229 
 C                     10.67346   27.04051   10.01367 
 C                     9.90348   18.73652   11.05655 
 C                     9.57478   26.76749   11.00399 
 C                     10.18591   19.41657   12.29895 
 C                     9.85212   26.0308   12.21266 
 C                     8.96937   19.9857   12.78033 
 C                     8.78863   25.39825   12.87813 
 C                     7.92297   19.50925   11.91386 
 C                     7.47038   25.47407   12.34843 
 C                     6.76248   20.22677   11.78356 
 C                     7.22645   26.19172   11.19556 
 C                     5.95337   20.18309   10.52561 
 C                     6.28891   25.71157   10.23523 
 C                     6.78234   19.77069   9.33468 
 C                     6.66066   26.25389   8.98042 
 C                     6.44235   20.35489   8.14213 
 C                     6.35334   25.5781   7.84638 
 C                     7.35135   20.35638   7.03217 
 C                     7.20224   25.64003   6.60356 
 C                     8.67268   19.90828   7.17675 
 C                     8.6561    25.81592   7.01026 
 C                     9.70014   20.60109   6.42729 
 C                     9.67296   25.07845   6.3804 
 C                     11.04476   20.59507   6.92051 
 C                     12.74158   22.18478   7.76954 
 C                     12.77319   23.58305   7.75665 
 C                     10.97561   25.09103   6.90408 
 C                     11.36487   19.78387   8.01981 
 C                     12.97093   21.42968   8.94584 
 C                     12.92505   24.29789   8.94802 
 C                     11.24212   25.86409   8.02274 
 C                     13.22739   22.13556   10.17716 
 C                     13.1815   23.58253   10.17622 
 C                     12.94254   21.44999   11.37869 
 C                     12.8302   24.2407   11.36962 
 C                     12.42599   22.14142   12.51819 
 C                     12.37389   23.51117   12.50927 
 C                     11.36937   20.10658   12.45903 
 C                     11.12248   25.43526   12.41579 
 C                     11.36049   21.37599   13.11165 
 C                     11.25885   24.18965   13.09576 
 C                     8.92597   21.26953   13.35934 
 C                     8.91861   24.11663   13.50481 
 C                     7.6927    22.00497   13.20879 
 C                     7.70469   23.40344   13.31409 
 C                     6.64875   21.4705   12.41585 
 C                     6.7999    24.23742   12.5644 
 C                     5.82359   22.30851   11.57432 
 C                     5.92852   23.72297   11.5954 
 C                     5.47395   21.6155   10.42441 
 C                     5.67814   24.4428   10.37264 
 C                     5.27235   22.2798   9.20062 
 C                     5.35226   23.72552   9.17466 
 C                     5.60405   21.54556   8.04501 
 C                     5.65424   24.34432   7.93916 
 C                     5.95421   22.19666   6.84305 
 C                     5.9692    23.58836   6.77309 
 C                     7.0051    21.46144   6.20809 
 C                     6.96567   24.27534   6.02043 
 C                     7.98885   22.14974   5.51998 
 C                     7.95593   23.56968   5.40236 
 C                     9.33707   21.70325   5.62278 
 C                     9.35535   24.09696   5.2621 
 C                     11.86121   21.7292   6.73416 
 C                     12.04672   24.10283   6.53083 
 C                     10.17364   22.8413   5.45043 
 C                     11.41309   22.85319   6.00633 
 C                     10.16959   21.99538   13.53331 
 C                     10.15357   23.4462   13.57068 
 Cl                    11.13143   28.7912   10.06817 
 Cl                    7.56936   28.85772   8.76158 
 Cl                    6.73645   26.97815   5.48777 
 Cl                    9.65578   24.90473   3.6794 
 Cl                    13.1951   24.86314   5.35725 
 Cl                    4.55246   19.03892   10.66106 
 
 ITRead=  0  0  0  0  0  0  0  0  0  0  0  0  0  0  0  0  0  0  0  0
 ITRead=  0  0  0  0  0  0  0  0  0  0  0  0  0  0  0  0  0  0  0  0
 ITRead=  0  0  0  0  0  0  0  0  0  0  0  0  0  0  0  0  0  0  0  0
 ITRead=  0  0  0  0  0  0  0  0  0  0  0  0  0  0  0  0  0  0  0  0
 ITRead=  0  0  0  0  0  0  0  0  0  0
 MicOpt= -1 -1 -1 -1 -1 -1 -1 -1 -1 -1 -1 -1 -1 -1 -1 -1 -1 -1 -1 -1
 MicOpt= -1 -1 -1 -1 -1 -1 -1 -1 -1 -1 -1 -1 -1 -1 -1 -1 -1 -1 -1 -1
 MicOpt= -1 -1 -1 -1 -1 -1 -1 -1 -1 -1 -1 -1 -1 -1 -1 -1 -1 -1 -1 -1
 MicOpt= -1 -1 -1 -1 -1 -1 -1 -1 -1 -1 -1 -1 -1 -1 -1 -1 -1 -1 -1 -1
 MicOpt= -1 -1 -1 -1 -1 -1 -1 -1 -1 -1
 NAtoms=     90 NQM=       90 NQMF=       0 NMMI=      0 NMMIF=      0
                NMic=       0 NMicF=      0.
                    Isotopes and Nuclear Properties:
 (Nuclear quadrupole moments (NQMom) in fm**2, nuclear magnetic moments (NMagM)
  in nuclear magnetons)

  Atom         1           2           3           4           5           6           7           8           9          10
 IAtWgt=          12          12          12          12          12          12          12          12          12          12
 AtmWgt=  12.0000000  12.0000000  12.0000000  12.0000000  12.0000000  12.0000000  12.0000000  12.0000000  12.0000000  12.0000000
 NucSpn=           0           0           0           0           0           0           0           0           0           0
 AtZEff=  -0.0000000  -0.0000000  -0.0000000  -0.0000000  -0.0000000  -0.0000000  -0.0000000  -0.0000000  -0.0000000  -0.0000000
 NQMom=    0.0000000   0.0000000   0.0000000   0.0000000   0.0000000   0.0000000   0.0000000   0.0000000   0.0000000   0.0000000
 NMagM=    0.0000000   0.0000000   0.0000000   0.0000000   0.0000000   0.0000000   0.0000000   0.0000000   0.0000000   0.0000000
 AtZNuc=   6.0000000   6.0000000   6.0000000   6.0000000   6.0000000   6.0000000   6.0000000   6.0000000   6.0000000   6.0000000

  Atom        11          12          13          14          15          16          17          18          19          20
 IAtWgt=          12          12          12          12          12          12          12          12          12          12
 AtmWgt=  12.0000000  12.0000000  12.0000000  12.0000000  12.0000000  12.0000000  12.0000000  12.0000000  12.0000000  12.0000000
 NucSpn=           0           0           0           0           0           0           0           0           0           0
 AtZEff=  -0.0000000  -0.0000000  -0.0000000  -0.0000000  -0.0000000  -0.0000000  -0.0000000  -0.0000000  -0.0000000  -0.0000000
 NQMom=    0.0000000   0.0000000   0.0000000   0.0000000   0.0000000   0.0000000   0.0000000   0.0000000   0.0000000   0.0000000
 NMagM=    0.0000000   0.0000000   0.0000000   0.0000000   0.0000000   0.0000000   0.0000000   0.0000000   0.0000000   0.0000000
 AtZNuc=   6.0000000   6.0000000   6.0000000   6.0000000   6.0000000   6.0000000   6.0000000   6.0000000   6.0000000   6.0000000

  Atom        21          22          23          24          25          26          27          28          29          30
 IAtWgt=          12          12          12          12          12          12          12          12          12          12
 AtmWgt=  12.0000000  12.0000000  12.0000000  12.0000000  12.0000000  12.0000000  12.0000000  12.0000000  12.0000000  12.0000000
 NucSpn=           0           0           0           0           0           0           0           0           0           0
 AtZEff=  -0.0000000  -0.0000000  -0.0000000  -0.0000000  -0.0000000  -0.0000000  -0.0000000  -0.0000000  -0.0000000  -0.0000000
 NQMom=    0.0000000   0.0000000   0.0000000   0.0000000   0.0000000   0.0000000   0.0000000   0.0000000   0.0000000   0.0000000
 NMagM=    0.0000000   0.0000000   0.0000000   0.0000000   0.0000000   0.0000000   0.0000000   0.0000000   0.0000000   0.0000000
 AtZNuc=   6.0000000   6.0000000   6.0000000   6.0000000   6.0000000   6.0000000   6.0000000   6.0000000   6.0000000   6.0000000

  Atom        31          32          33          34          35          36          37          38          39          40
 IAtWgt=          12          12          12          12          12          12          12          12          12          12
 AtmWgt=  12.0000000  12.0000000  12.0000000  12.0000000  12.0000000  12.0000000  12.0000000  12.0000000  12.0000000  12.0000000
 NucSpn=           0           0           0           0           0           0           0           0           0           0
 AtZEff=  -0.0000000  -0.0000000  -0.0000000  -0.0000000  -0.0000000  -0.0000000  -0.0000000  -0.0000000  -0.0000000  -0.0000000
 NQMom=    0.0000000   0.0000000   0.0000000   0.0000000   0.0000000   0.0000000   0.0000000   0.0000000   0.0000000   0.0000000
 NMagM=    0.0000000   0.0000000   0.0000000   0.0000000   0.0000000   0.0000000   0.0000000   0.0000000   0.0000000   0.0000000
 AtZNuc=   6.0000000   6.0000000   6.0000000   6.0000000   6.0000000   6.0000000   6.0000000   6.0000000   6.0000000   6.0000000

  Atom        41          42          43          44          45          46          47          48          49          50
 IAtWgt=          12          12          12          12          12          12          12          12          12          12
 AtmWgt=  12.0000000  12.0000000  12.0000000  12.0000000  12.0000000  12.0000000  12.0000000  12.0000000  12.0000000  12.0000000
 NucSpn=           0           0           0           0           0           0           0           0           0           0
 AtZEff=  -0.0000000  -0.0000000  -0.0000000  -0.0000000  -0.0000000  -0.0000000  -0.0000000  -0.0000000  -0.0000000  -0.0000000
 NQMom=    0.0000000   0.0000000   0.0000000   0.0000000   0.0000000   0.0000000   0.0000000   0.0000000   0.0000000   0.0000000
 NMagM=    0.0000000   0.0000000   0.0000000   0.0000000   0.0000000   0.0000000   0.0000000   0.0000000   0.0000000   0.0000000
 AtZNuc=   6.0000000   6.0000000   6.0000000   6.0000000   6.0000000   6.0000000   6.0000000   6.0000000   6.0000000   6.0000000

  Atom        51          52          53          54          55          56          57          58          59          60
 IAtWgt=          12          12          12          12          12          12          12          12          12          12
 AtmWgt=  12.0000000  12.0000000  12.0000000  12.0000000  12.0000000  12.0000000  12.0000000  12.0000000  12.0000000  12.0000000
 NucSpn=           0           0           0           0           0           0           0           0           0           0
 AtZEff=  -0.0000000  -0.0000000  -0.0000000  -0.0000000  -0.0000000  -0.0000000  -0.0000000  -0.0000000  -0.0000000  -0.0000000
 NQMom=    0.0000000   0.0000000   0.0000000   0.0000000   0.0000000   0.0000000   0.0000000   0.0000000   0.0000000   0.0000000
 NMagM=    0.0000000   0.0000000   0.0000000   0.0000000   0.0000000   0.0000000   0.0000000   0.0000000   0.0000000   0.0000000
 AtZNuc=   6.0000000   6.0000000   6.0000000   6.0000000   6.0000000   6.0000000   6.0000000   6.0000000   6.0000000   6.0000000

  Atom        61          62          63          64          65          66          67          68          69          70
 IAtWgt=          12          12          12          12          12          12          12          12          12          12
 AtmWgt=  12.0000000  12.0000000  12.0000000  12.0000000  12.0000000  12.0000000  12.0000000  12.0000000  12.0000000  12.0000000
 NucSpn=           0           0           0           0           0           0           0           0           0           0
 AtZEff=  -0.0000000  -0.0000000  -0.0000000  -0.0000000  -0.0000000  -0.0000000  -0.0000000  -0.0000000  -0.0000000  -0.0000000
 NQMom=    0.0000000   0.0000000   0.0000000   0.0000000   0.0000000   0.0000000   0.0000000   0.0000000   0.0000000   0.0000000
 NMagM=    0.0000000   0.0000000   0.0000000   0.0000000   0.0000000   0.0000000   0.0000000   0.0000000   0.0000000   0.0000000
 AtZNuc=   6.0000000   6.0000000   6.0000000   6.0000000   6.0000000   6.0000000   6.0000000   6.0000000   6.0000000   6.0000000

  Atom        71          72          73          74          75          76          77          78          79          80
 IAtWgt=          12          12          12          12          12          12          12          12          12          12
 AtmWgt=  12.0000000  12.0000000  12.0000000  12.0000000  12.0000000  12.0000000  12.0000000  12.0000000  12.0000000  12.0000000
 NucSpn=           0           0           0           0           0           0           0           0           0           0
 AtZEff=  -0.0000000  -0.0000000  -0.0000000  -0.0000000  -0.0000000  -0.0000000  -0.0000000  -0.0000000  -0.0000000  -0.0000000
 NQMom=    0.0000000   0.0000000   0.0000000   0.0000000   0.0000000   0.0000000   0.0000000   0.0000000   0.0000000   0.0000000
 NMagM=    0.0000000   0.0000000   0.0000000   0.0000000   0.0000000   0.0000000   0.0000000   0.0000000   0.0000000   0.0000000
 AtZNuc=   6.0000000   6.0000000   6.0000000   6.0000000   6.0000000   6.0000000   6.0000000   6.0000000   6.0000000   6.0000000

  Atom        81          82          83          84          85          86          87          88          89          90
 IAtWgt=          12          12          12          12          35          35          35          35          35          35
 AtmWgt=  12.0000000  12.0000000  12.0000000  12.0000000  34.9688527  34.9688527  34.9688527  34.9688527  34.9688527  34.9688527
 NucSpn=           0           0           0           0           3           3           3           3           3           3
 AtZEff=  -0.0000000  -0.0000000  -0.0000000  -0.0000000  -0.0000000  -0.0000000  -0.0000000  -0.0000000  -0.0000000  -0.0000000
 NQMom=    0.0000000   0.0000000   0.0000000   0.0000000  -8.1650000  -8.1650000  -8.1650000  -8.1650000  -8.1650000  -8.1650000
 NMagM=    0.0000000   0.0000000   0.0000000   0.0000000   0.8218740   0.8218740   0.8218740   0.8218740   0.8218740   0.8218740
 AtZNuc=   6.0000000   6.0000000   6.0000000   6.0000000  17.0000000  17.0000000  17.0000000  17.0000000  17.0000000  17.0000000
 Leave Link  101 at Tue Jun 28 13:21:00 2022, MaxMem=  1342177280 cpu:               6.6 elap:               0.3
 (Enter /home/mkliu/g16/l103.exe)

 GradGradGradGradGradGradGradGradGradGradGradGradGradGradGradGradGradGrad
 Berny optimization.
 Initialization pass.
                           ----------------------------
                           !    Initial Parameters    !
                           ! (Angstroms and Degrees)  !
 --------------------------                            --------------------------
 ! Name  Definition              Value          Derivative Info.                !
 --------------------------------------------------------------------------------
 ! R1    R(1,5)                  1.4186         estimate D2E/DX2                !
 ! R2    R(1,17)                 1.4216         estimate D2E/DX2                !
 ! R3    R(1,23)                 1.4403         estimate D2E/DX2                !
 ! R4    R(2,6)                  1.427          estimate D2E/DX2                !
 ! R5    R(2,43)                 1.4342         estimate D2E/DX2                !
 ! R6    R(2,44)                 1.4083         estimate D2E/DX2                !
 ! R7    R(3,7)                  1.5185         estimate D2E/DX2                !
 ! R8    R(3,18)                 1.3712         estimate D2E/DX2                !
 ! R9    R(3,26)                 1.4245         estimate D2E/DX2                !
 ! R10   R(4,8)                  1.3927         estimate D2E/DX2                !
 ! R11   R(4,45)                 1.421          estimate D2E/DX2                !
 ! R12   R(4,46)                 1.4509         estimate D2E/DX2                !
 ! R13   R(5,9)                  1.4466         estimate D2E/DX2                !
 ! R14   R(5,29)                 1.4295         estimate D2E/DX2                !
 ! R15   R(6,10)                 1.3788         estimate D2E/DX2                !
 ! R16   R(6,15)                 1.4411         estimate D2E/DX2                !
 ! R17   R(7,12)                 1.51           estimate D2E/DX2                !
 ! R18   R(7,30)                 1.5022         estimate D2E/DX2                !
 ! R19   R(7,86)                 1.8016         estimate D2E/DX2                !
 ! R20   R(8,11)                 1.3815         estimate D2E/DX2                !
 ! R21   R(8,16)                 1.5059         estimate D2E/DX2                !
 ! R22   R(9,13)                 1.4108         estimate D2E/DX2                !
 ! R23   R(9,35)                 1.4402         estimate D2E/DX2                !
 ! R24   R(10,49)                1.434          estimate D2E/DX2                !
 ! R25   R(10,53)                1.4451         estimate D2E/DX2                !
 ! R26   R(11,50)                1.4331         estimate D2E/DX2                !
 ! R27   R(11,54)                1.4318         estimate D2E/DX2                !
 ! R28   R(12,14)                1.3767         estimate D2E/DX2                !
 ! R29   R(12,36)                1.4131         estimate D2E/DX2                !
 ! R30   R(13,15)                1.4265         estimate D2E/DX2                !
 ! R31   R(13,43)                1.4252         estimate D2E/DX2                !
 ! R32   R(14,16)                1.5114         estimate D2E/DX2                !
 ! R33   R(14,46)                1.3996         estimate D2E/DX2                !
 ! R34   R(15,17)                1.3812         estimate D2E/DX2                !
 ! R35   R(16,18)                1.5041         estimate D2E/DX2                !
 ! R36   R(16,85)                1.8104         estimate D2E/DX2                !
 ! R37   R(17,19)                1.4442         estimate D2E/DX2                !
 ! R38   R(18,20)                1.4424         estimate D2E/DX2                !
 ! R39   R(19,21)                1.4267         estimate D2E/DX2                !
 ! R40   R(19,53)                1.3792         estimate D2E/DX2                !
 ! R41   R(20,22)                1.405          estimate D2E/DX2                !
 ! R42   R(20,54)                1.4176         estimate D2E/DX2                !
 ! R43   R(21,23)                1.4397         estimate D2E/DX2                !
 ! R44   R(21,57)                1.409          estimate D2E/DX2                !
 ! R45   R(22,24)                1.4227         estimate D2E/DX2                !
 ! R46   R(22,58)                1.4325         estimate D2E/DX2                !
 ! R47   R(23,25)                1.3706         estimate D2E/DX2                !
 ! R48   R(24,26)                1.3797         estimate D2E/DX2                !
 ! R49   R(24,62)                1.4232         estimate D2E/DX2                !
 ! R50   R(25,27)                1.4963         estimate D2E/DX2                !
 ! R51   R(25,61)                1.3999         estimate D2E/DX2                !
 ! R52   R(26,28)                1.4254         estimate D2E/DX2                !
 ! R53   R(27,29)                1.5085         estimate D2E/DX2                !
 ! R54   R(27,65)                1.5139         estimate D2E/DX2                !
 ! R55   R(27,90)                1.8138         estimate D2E/DX2                !
 ! R56   R(28,30)                1.4166         estimate D2E/DX2                !
 ! R57   R(28,66)                1.4148         estimate D2E/DX2                !
 ! R58   R(29,31)                1.3708         estimate D2E/DX2                !
 ! R59   R(30,32)                1.3554         estimate D2E/DX2                !
 ! R60   R(31,33)                1.4347         estimate D2E/DX2                !
 ! R61   R(31,69)                1.4594         estimate D2E/DX2                !
 ! R62   R(32,34)                1.5063         estimate D2E/DX2                !
 ! R63   R(32,70)                1.4211         estimate D2E/DX2                !
 ! R64   R(33,35)                1.4027         estimate D2E/DX2                !
 ! R65   R(33,73)                1.4213         estimate D2E/DX2                !
 ! R66   R(34,36)                1.5199         estimate D2E/DX2                !
 ! R67   R(34,74)                1.5028         estimate D2E/DX2                !
 ! R68   R(34,87)                1.8035         estimate D2E/DX2                !
 ! R69   R(35,37)                1.4482         estimate D2E/DX2                !
 ! R70   R(36,38)                1.4052         estimate D2E/DX2                !
 ! R71   R(37,39)                1.4322         estimate D2E/DX2                !
 ! R72   R(37,77)                1.412          estimate D2E/DX2                !
 ! R73   R(38,42)                1.404          estimate D2E/DX2                !
 ! R74   R(38,78)                1.5214         estimate D2E/DX2                !
 ! R75   R(39,43)                1.4032         estimate D2E/DX2                !
 ! R76   R(39,79)                1.4098         estimate D2E/DX2                !
 ! R77   R(40,41)                1.3987         estimate D2E/DX2                !
 ! R78   R(40,44)                1.4165         estimate D2E/DX2                !
 ! R79   R(40,79)                1.4334         estimate D2E/DX2                !
 ! R80   R(41,45)                1.3977         estimate D2E/DX2                !
 ! R81   R(41,80)                1.5168         estimate D2E/DX2                !
 ! R82   R(42,46)                1.3856         estimate D2E/DX2                !
 ! R83   R(42,80)                1.5044         estimate D2E/DX2                !
 ! R84   R(44,47)                1.4423         estimate D2E/DX2                !
 ! R85   R(45,48)                1.4443         estimate D2E/DX2                !
 ! R86   R(47,48)                1.4477         estimate D2E/DX2                !
 ! R87   R(47,49)                1.4124         estimate D2E/DX2                !
 ! R88   R(48,50)                1.4074         estimate D2E/DX2                !
 ! R89   R(49,51)                1.4295         estimate D2E/DX2                !
 ! R90   R(50,52)                1.428          estimate D2E/DX2                !
 ! R91   R(51,52)                1.3708         estimate D2E/DX2                !
 ! R92   R(51,55)                1.4399         estimate D2E/DX2                !
 ! R93   R(52,56)                1.431          estimate D2E/DX2                !
 ! R94   R(53,55)                1.4274         estimate D2E/DX2                !
 ! R95   R(54,56)                1.4257         estimate D2E/DX2                !
 ! R96   R(55,83)                1.407          estimate D2E/DX2                !
 ! R97   R(56,84)                1.4142         estimate D2E/DX2                !
 ! R98   R(57,59)                1.4438         estimate D2E/DX2                !
 ! R99   R(57,83)                1.4504         estimate D2E/DX2                !
 ! R100  R(58,60)                1.4208         estimate D2E/DX2                !
 ! R101  R(58,84)                1.4067         estimate D2E/DX2                !
 ! R102  R(59,60)                1.4025         estimate D2E/DX2                !
 ! R103  R(59,61)                1.4157         estimate D2E/DX2                !
 ! R104  R(60,62)                1.4409         estimate D2E/DX2                !
 ! R105  R(61,63)                1.4461         estimate D2E/DX2                !
 ! R106  R(62,64)                1.401          estimate D2E/DX2                !
 ! R107  R(63,64)                1.4185         estimate D2E/DX2                !
 ! R108  R(63,65)                1.3874         estimate D2E/DX2                !
 ! R109  R(64,66)                1.4408         estimate D2E/DX2                !
 ! R110  R(65,67)                1.407          estimate D2E/DX2                !
 ! R111  R(66,68)                1.4338         estimate D2E/DX2                !
 ! R112  R(67,68)                1.4482         estimate D2E/DX2                !
 ! R113  R(67,69)                1.4088         estimate D2E/DX2                !
 ! R114  R(68,70)                1.4144         estimate D2E/DX2                !
 ! R115  R(69,71)                1.4111         estimate D2E/DX2                !
 ! R116  R(70,72)                1.4249         estimate D2E/DX2                !
 ! R117  R(71,72)                1.3935         estimate D2E/DX2                !
 ! R118  R(71,73)                1.4311         estimate D2E/DX2                !
 ! R119  R(72,74)                1.4253         estimate D2E/DX2                !
 ! R120  R(73,75)                1.3838         estimate D2E/DX2                !
 ! R121  R(74,76)                1.364          estimate D2E/DX2                !
 ! R122  R(75,76)                1.4252         estimate D2E/DX2                !
 ! R123  R(75,77)                1.4239         estimate D2E/DX2                !
 ! R124  R(76,78)                1.502          estimate D2E/DX2                !
 ! R125  R(77,81)                1.4229         estimate D2E/DX2                !
 ! R126  R(78,81)                1.5105         estimate D2E/DX2                !
 ! R127  R(78,88)                1.8021         estimate D2E/DX2                !
 ! R128  R(79,82)                1.412          estimate D2E/DX2                !
 ! R129  R(80,82)                1.4961         estimate D2E/DX2                !
 ! R130  R(80,89)                1.8095         estimate D2E/DX2                !
 ! R131  R(81,82)                1.3585         estimate D2E/DX2                !
 ! R132  R(83,84)                1.4514         estimate D2E/DX2                !
 ! A1    A(5,1,17)             121.5636         estimate D2E/DX2                !
 ! A2    A(5,1,23)             120.7938         estimate D2E/DX2                !
 ! A3    A(17,1,23)            106.4428         estimate D2E/DX2                !
 ! A4    A(6,2,43)             107.2063         estimate D2E/DX2                !
 ! A5    A(6,2,44)             121.0123         estimate D2E/DX2                !
 ! A6    A(43,2,44)            121.4074         estimate D2E/DX2                !
 ! A7    A(7,3,18)             125.7573         estimate D2E/DX2                !
 ! A8    A(7,3,26)             108.4212         estimate D2E/DX2                !
 ! A9    A(18,3,26)            120.3394         estimate D2E/DX2                !
 ! A10   A(8,4,45)             122.984          estimate D2E/DX2                !
 ! A11   A(8,4,46)             107.1249         estimate D2E/DX2                !
 ! A12   A(45,4,46)            119.2865         estimate D2E/DX2                !
 ! A13   A(1,5,9)              118.8053         estimate D2E/DX2                !
 ! A14   A(1,5,29)             117.4694         estimate D2E/DX2                !
 ! A15   A(9,5,29)             118.9757         estimate D2E/DX2                !
 ! A16   A(2,6,10)             119.2758         estimate D2E/DX2                !
 ! A17   A(2,6,15)             107.9922         estimate D2E/DX2                !
 ! A18   A(10,6,15)            120.3207         estimate D2E/DX2                !
 ! A19   A(3,7,12)             110.3823         estimate D2E/DX2                !
 ! A20   A(3,7,30)             101.4464         estimate D2E/DX2                !
 ! A21   A(3,7,86)             112.041          estimate D2E/DX2                !
 ! A22   A(12,7,30)            108.9718         estimate D2E/DX2                !
 ! A23   A(12,7,86)            110.2625         estimate D2E/DX2                !
 ! A24   A(30,7,86)            113.4149         estimate D2E/DX2                !
 ! A25   A(4,8,11)             118.7518         estimate D2E/DX2                !
 ! A26   A(4,8,16)             111.576          estimate D2E/DX2                !
 ! A27   A(11,8,16)            122.3009         estimate D2E/DX2                !
 ! A28   A(5,9,13)             118.0184         estimate D2E/DX2                !
 ! A29   A(5,9,35)             120.5842         estimate D2E/DX2                !
 ! A30   A(13,9,35)            117.1795         estimate D2E/DX2                !
 ! A31   A(6,10,49)            120.2089         estimate D2E/DX2                !
 ! A32   A(6,10,53)            119.5263         estimate D2E/DX2                !
 ! A33   A(49,10,53)           108.3126         estimate D2E/DX2                !
 ! A34   A(8,11,50)            119.68           estimate D2E/DX2                !
 ! A35   A(8,11,54)            120.5706         estimate D2E/DX2                !
 ! A36   A(50,11,54)           108.9709         estimate D2E/DX2                !
 ! A37   A(7,12,14)            115.9948         estimate D2E/DX2                !
 ! A38   A(7,12,36)            123.4109         estimate D2E/DX2                !
 ! A39   A(14,12,36)           119.1077         estimate D2E/DX2                !
 ! A40   A(9,13,15)            122.1312         estimate D2E/DX2                !
 ! A41   A(9,13,43)            121.2142         estimate D2E/DX2                !
 ! A42   A(15,13,43)           107.3399         estimate D2E/DX2                !
 ! A43   A(12,14,16)           126.1411         estimate D2E/DX2                !
 ! A44   A(12,14,46)           120.579          estimate D2E/DX2                !
 ! A45   A(16,14,46)           109.7267         estimate D2E/DX2                !
 ! A46   A(6,15,13)            108.1838         estimate D2E/DX2                !
 ! A47   A(6,15,17)            120.2282         estimate D2E/DX2                !
 ! A48   A(13,15,17)           119.6818         estimate D2E/DX2                !
 ! A49   A(8,16,14)            100.6962         estimate D2E/DX2                !
 ! A50   A(8,16,18)            113.068          estimate D2E/DX2                !
 ! A51   A(8,16,85)            111.4831         estimate D2E/DX2                !
 ! A52   A(14,16,18)           110.3555         estimate D2E/DX2                !
 ! A53   A(14,16,85)           111.0524         estimate D2E/DX2                !
 ! A54   A(18,16,85)           109.9059         estimate D2E/DX2                !
 ! A55   A(1,17,15)            119.7263         estimate D2E/DX2                !
 ! A56   A(1,17,19)            108.7907         estimate D2E/DX2                !
 ! A57   A(15,17,19)           119.498          estimate D2E/DX2                !
 ! A58   A(3,18,16)            116.5475         estimate D2E/DX2                !
 ! A59   A(3,18,20)            120.3235         estimate D2E/DX2                !
 ! A60   A(16,18,20)           120.2632         estimate D2E/DX2                !
 ! A61   A(17,19,21)           108.1394         estimate D2E/DX2                !
 ! A62   A(17,19,53)           120.2129         estimate D2E/DX2                !
 ! A63   A(21,19,53)           119.5318         estimate D2E/DX2                !
 ! A64   A(18,20,22)           118.7702         estimate D2E/DX2                !
 ! A65   A(18,20,54)           120.4595         estimate D2E/DX2                !
 ! A66   A(22,20,54)           114.9161         estimate D2E/DX2                !
 ! A67   A(19,21,23)           106.5388         estimate D2E/DX2                !
 ! A68   A(19,21,57)           121.8952         estimate D2E/DX2                !
 ! A69   A(23,21,57)           121.7668         estimate D2E/DX2                !
 ! A70   A(20,22,24)           120.0676         estimate D2E/DX2                !
 ! A71   A(20,22,58)           122.7728         estimate D2E/DX2                !
 ! A72   A(24,22,58)           107.1354         estimate D2E/DX2                !
 ! A73   A(1,23,21)            109.1316         estimate D2E/DX2                !
 ! A74   A(1,23,25)            120.7885         estimate D2E/DX2                !
 ! A75   A(21,23,25)           119.9581         estimate D2E/DX2                !
 ! A76   A(22,24,26)           120.1746         estimate D2E/DX2                !
 ! A77   A(22,24,62)           109.494          estimate D2E/DX2                !
 ! A78   A(26,24,62)           119.7009         estimate D2E/DX2                !
 ! A79   A(23,25,27)           121.4986         estimate D2E/DX2                !
 ! A80   A(23,25,61)           119.4042         estimate D2E/DX2                !
 ! A81   A(27,25,61)           111.2064         estimate D2E/DX2                !
 ! A82   A(3,26,24)            120.2052         estimate D2E/DX2                !
 ! A83   A(3,26,28)            109.9922         estimate D2E/DX2                !
 ! A84   A(24,26,28)           120.2669         estimate D2E/DX2                !
 ! A85   A(25,27,29)           111.9959         estimate D2E/DX2                !
 ! A86   A(25,27,65)           101.5264         estimate D2E/DX2                !
 ! A87   A(25,27,90)           111.9169         estimate D2E/DX2                !
 ! A88   A(29,27,65)           112.3289         estimate D2E/DX2                !
 ! A89   A(29,27,90)           108.1152         estimate D2E/DX2                !
 ! A90   A(65,27,90)           110.9315         estimate D2E/DX2                !
 ! A91   A(26,28,30)           107.1701         estimate D2E/DX2                !
 ! A92   A(26,28,66)           121.3721         estimate D2E/DX2                !
 ! A93   A(30,28,66)           122.8618         estimate D2E/DX2                !
 ! A94   A(5,29,27)            122.6366         estimate D2E/DX2                !
 ! A95   A(5,29,31)            119.7724         estimate D2E/DX2                !
 ! A96   A(27,29,31)           115.7227         estimate D2E/DX2                !
 ! A97   A(7,30,28)            111.4871         estimate D2E/DX2                !
 ! A98   A(7,30,32)            122.3117         estimate D2E/DX2                !
 ! A99   A(28,30,32)           119.3884         estimate D2E/DX2                !
 ! A100  A(29,31,33)           121.0889         estimate D2E/DX2                !
 ! A101  A(29,31,69)           123.2346         estimate D2E/DX2                !
 ! A102  A(33,31,69)           108.1561         estimate D2E/DX2                !
 ! A103  A(30,32,34)           122.8218         estimate D2E/DX2                !
 ! A104  A(30,32,70)           119.3256         estimate D2E/DX2                !
 ! A105  A(34,32,70)           111.5179         estimate D2E/DX2                !
 ! A106  A(31,33,35)           121.1148         estimate D2E/DX2                !
 ! A107  A(31,33,73)           107.1591         estimate D2E/DX2                !
 ! A108  A(35,33,73)           122.5208         estimate D2E/DX2                !
 ! A109  A(32,34,36)           108.8473         estimate D2E/DX2                !
 ! A110  A(32,34,74)           101.192          estimate D2E/DX2                !
 ! A111  A(32,34,87)           113.2918         estimate D2E/DX2                !
 ! A112  A(36,34,74)           111.0696         estimate D2E/DX2                !
 ! A113  A(36,34,87)           109.0712         estimate D2E/DX2                !
 ! A114  A(74,34,87)           113.1449         estimate D2E/DX2                !
 ! A115  A(9,35,33)            117.1484         estimate D2E/DX2                !
 ! A116  A(9,35,37)            120.9142         estimate D2E/DX2                !
 ! A117  A(33,35,37)           117.5256         estimate D2E/DX2                !
 ! A118  A(12,36,34)           118.4744         estimate D2E/DX2                !
 ! A119  A(12,36,38)           120.151          estimate D2E/DX2                !
 ! A120  A(34,36,38)           120.766          estimate D2E/DX2                !
 ! A121  A(35,37,39)           119.0677         estimate D2E/DX2                !
 ! A122  A(35,37,77)           119.067          estimate D2E/DX2                !
 ! A123  A(39,37,77)           116.1601         estimate D2E/DX2                !
 ! A124  A(36,38,42)           119.9672         estimate D2E/DX2                !
 ! A125  A(36,38,78)           121.1284         estimate D2E/DX2                !
 ! A126  A(42,38,78)           118.2692         estimate D2E/DX2                !
 ! A127  A(37,39,43)           119.1033         estimate D2E/DX2                !
 ! A128  A(37,39,79)           119.6558         estimate D2E/DX2                !
 ! A129  A(43,39,79)           115.8812         estimate D2E/DX2                !
 ! A130  A(41,40,44)           122.4738         estimate D2E/DX2                !
 ! A131  A(41,40,79)           108.963          estimate D2E/DX2                !
 ! A132  A(44,40,79)           121.9959         estimate D2E/DX2                !
 ! A133  A(40,41,45)           120.3913         estimate D2E/DX2                !
 ! A134  A(40,41,80)           109.829          estimate D2E/DX2                !
 ! A135  A(45,41,80)           124.4492         estimate D2E/DX2                !
 ! A136  A(38,42,46)           118.9839         estimate D2E/DX2                !
 ! A137  A(38,42,80)           124.205          estimate D2E/DX2                !
 ! A138  A(46,42,80)           115.4575         estimate D2E/DX2                !
 ! A139  A(2,43,13)            108.9425         estimate D2E/DX2                !
 ! A140  A(2,43,39)            121.9484         estimate D2E/DX2                !
 ! A141  A(13,43,39)           121.0214         estimate D2E/DX2                !
 ! A142  A(2,44,40)            115.2648         estimate D2E/DX2                !
 ! A143  A(2,44,47)            120.4829         estimate D2E/DX2                !
 ! A144  A(40,44,47)           118.48           estimate D2E/DX2                !
 ! A145  A(4,45,41)            115.8724         estimate D2E/DX2                !
 ! A146  A(4,45,48)            119.041          estimate D2E/DX2                !
 ! A147  A(41,45,48)           119.3962         estimate D2E/DX2                !
 ! A148  A(4,46,14)            109.2768         estimate D2E/DX2                !
 ! A149  A(4,46,42)            124.2783         estimate D2E/DX2                !
 ! A150  A(14,46,42)           121.0881         estimate D2E/DX2                !
 ! A151  A(44,47,48)           118.8807         estimate D2E/DX2                !
 ! A152  A(44,47,49)           116.9268         estimate D2E/DX2                !
 ! A153  A(48,47,49)           118.6403         estimate D2E/DX2                !
 ! A154  A(45,48,47)           120.0812         estimate D2E/DX2                !
 ! A155  A(45,48,50)           116.4315         estimate D2E/DX2                !
 ! A156  A(47,48,50)           118.3447         estimate D2E/DX2                !
 ! A157  A(10,49,47)           121.9484         estimate D2E/DX2                !
 ! A158  A(10,49,51)           106.3532         estimate D2E/DX2                !
 ! A159  A(47,49,51)           121.0806         estimate D2E/DX2                !
 ! A160  A(11,50,48)           122.7539         estimate D2E/DX2                !
 ! A161  A(11,50,52)           105.9132         estimate D2E/DX2                !
 ! A162  A(48,50,52)           121.1692         estimate D2E/DX2                !
 ! A163  A(49,51,52)           119.4645         estimate D2E/DX2                !
 ! A164  A(49,51,55)           109.8046         estimate D2E/DX2                !
 ! A165  A(52,51,55)           120.3803         estimate D2E/DX2                !
 ! A166  A(50,52,51)           120.2344         estimate D2E/DX2                !
 ! A167  A(50,52,56)           109.5036         estimate D2E/DX2                !
 ! A168  A(51,52,56)           120.0491         estimate D2E/DX2                !
 ! A169  A(10,53,19)           120.1886         estimate D2E/DX2                !
 ! A170  A(10,53,55)           108.4594         estimate D2E/DX2                !
 ! A171  A(19,53,55)           119.5147         estimate D2E/DX2                !
 ! A172  A(11,54,20)           120.4118         estimate D2E/DX2                !
 ! A173  A(11,54,56)           107.8002         estimate D2E/DX2                !
 ! A174  A(20,54,56)           121.4058         estimate D2E/DX2                !
 ! A175  A(51,55,53)           106.2427         estimate D2E/DX2                !
 ! A176  A(51,55,83)           121.0523         estimate D2E/DX2                !
 ! A177  A(53,55,83)           122.2619         estimate D2E/DX2                !
 ! A178  A(52,56,54)           107.0567         estimate D2E/DX2                !
 ! A179  A(52,56,84)           119.828          estimate D2E/DX2                !
 ! A180  A(54,56,84)           123.0066         estimate D2E/DX2                !
 ! A181  A(21,57,59)           116.5885         estimate D2E/DX2                !
 ! A182  A(21,57,83)           118.6106         estimate D2E/DX2                !
 ! A183  A(59,57,83)           119.3406         estimate D2E/DX2                !
 ! A184  A(22,58,60)           108.2304         estimate D2E/DX2                !
 ! A185  A(22,58,84)           121.7703         estimate D2E/DX2                !
 ! A186  A(60,58,84)           121.1391         estimate D2E/DX2                !
 ! A187  A(57,59,60)           119.5241         estimate D2E/DX2                !
 ! A188  A(57,59,61)           119.7351         estimate D2E/DX2                !
 ! A189  A(60,59,61)           115.1386         estimate D2E/DX2                !
 ! A190  A(58,60,59)           121.1931         estimate D2E/DX2                !
 ! A191  A(58,60,62)           108.4099         estimate D2E/DX2                !
 ! A192  A(59,60,62)           122.1879         estimate D2E/DX2                !
 ! A193  A(25,61,59)           121.9041         estimate D2E/DX2                !
 ! A194  A(25,61,63)           107.3598         estimate D2E/DX2                !
 ! A195  A(59,61,63)           121.8647         estimate D2E/DX2                !
 ! A196  A(24,62,60)           106.6218         estimate D2E/DX2                !
 ! A197  A(24,62,64)           120.4716         estimate D2E/DX2                !
 ! A198  A(60,62,64)           122.5383         estimate D2E/DX2                !
 ! A199  A(61,63,64)           121.8016         estimate D2E/DX2                !
 ! A200  A(61,63,65)           109.673          estimate D2E/DX2                !
 ! A201  A(64,63,65)           121.941          estimate D2E/DX2                !
 ! A202  A(62,64,63)           114.9879         estimate D2E/DX2                !
 ! A203  A(62,64,66)           120.7694         estimate D2E/DX2                !
 ! A204  A(63,64,66)           118.2102         estimate D2E/DX2                !
 ! A205  A(27,65,63)           109.7192         estimate D2E/DX2                !
 ! A206  A(27,65,67)           123.3842         estimate D2E/DX2                !
 ! A207  A(63,65,67)           121.4121         estimate D2E/DX2                !
 ! A208  A(28,66,64)           117.0923         estimate D2E/DX2                !
 ! A209  A(28,66,68)           117.7482         estimate D2E/DX2                !
 ! A210  A(64,66,68)           119.9096         estimate D2E/DX2                !
 ! A211  A(65,67,68)           118.6226         estimate D2E/DX2                !
 ! A212  A(65,67,69)           115.7018         estimate D2E/DX2                !
 ! A213  A(68,67,69)           119.5129         estimate D2E/DX2                !
 ! A214  A(66,68,67)           119.7999         estimate D2E/DX2                !
 ! A215  A(66,68,70)           117.545          estimate D2E/DX2                !
 ! A216  A(67,68,70)           117.6585         estimate D2E/DX2                !
 ! A217  A(31,69,67)           120.3898         estimate D2E/DX2                !
 ! A218  A(31,69,71)           106.8935         estimate D2E/DX2                !
 ! A219  A(67,69,71)           121.1088         estimate D2E/DX2                !
 ! A220  A(32,70,68)           122.8118         estimate D2E/DX2                !
 ! A221  A(32,70,72)           107.3632         estimate D2E/DX2                !
 ! A222  A(68,70,72)           121.9998         estimate D2E/DX2                !
 ! A223  A(69,71,72)           120.4131         estimate D2E/DX2                !
 ! A224  A(69,71,73)           108.8497         estimate D2E/DX2                !
 ! A225  A(72,71,73)           118.8744         estimate D2E/DX2                !
 ! A226  A(70,72,71)           119.1021         estimate D2E/DX2                !
 ! A227  A(70,72,74)           109.3279         estimate D2E/DX2                !
 ! A228  A(71,72,74)           121.0242         estimate D2E/DX2                !
 ! A229  A(33,73,71)           108.7277         estimate D2E/DX2                !
 ! A230  A(33,73,75)           120.121          estimate D2E/DX2                !
 ! A231  A(71,73,75)           119.1506         estimate D2E/DX2                !
 ! A232  A(34,74,72)           110.051          estimate D2E/DX2                !
 ! A233  A(34,74,76)           122.0954         estimate D2E/DX2                !
 ! A234  A(72,74,76)           119.8345         estimate D2E/DX2                !
 ! A235  A(73,75,76)           121.3435         estimate D2E/DX2                !
 ! A236  A(73,75,77)           118.7657         estimate D2E/DX2                !
 ! A237  A(76,75,77)           109.8911         estimate D2E/DX2                !
 ! A238  A(74,76,75)           119.6566         estimate D2E/DX2                !
 ! A239  A(74,76,78)           122.4865         estimate D2E/DX2                !
 ! A240  A(75,76,78)           109.6292         estimate D2E/DX2                !
 ! A241  A(37,77,75)           121.9603         estimate D2E/DX2                !
 ! A242  A(37,77,81)           122.8285         estimate D2E/DX2                !
 ! A243  A(75,77,81)           107.2857         estimate D2E/DX2                !
 ! A244  A(38,78,76)           110.6291         estimate D2E/DX2                !
 ! A245  A(38,78,81)           109.3613         estimate D2E/DX2                !
 ! A246  A(38,78,88)           108.7578         estimate D2E/DX2                !
 ! A247  A(76,78,81)           101.6111         estimate D2E/DX2                !
 ! A248  A(76,78,88)           113.2456         estimate D2E/DX2                !
 ! A249  A(81,78,88)           113.0658         estimate D2E/DX2                !
 ! A250  A(39,79,40)           121.0568         estimate D2E/DX2                !
 ! A251  A(39,79,82)           121.6476         estimate D2E/DX2                !
 ! A252  A(40,79,82)           108.3148         estimate D2E/DX2                !
 ! A253  A(41,80,42)           111.4448         estimate D2E/DX2                !
 ! A254  A(41,80,82)           101.5337         estimate D2E/DX2                !
 ! A255  A(41,80,89)           111.3576         estimate D2E/DX2                !
 ! A256  A(42,80,82)           109.5193         estimate D2E/DX2                !
 ! A257  A(42,80,89)           109.6807         estimate D2E/DX2                !
 ! A258  A(82,80,89)           113.1036         estimate D2E/DX2                !
 ! A259  A(77,81,78)           111.1893         estimate D2E/DX2                !
 ! A260  A(77,81,82)           119.5941         estimate D2E/DX2                !
 ! A261  A(78,81,82)           122.5481         estimate D2E/DX2                !
 ! A262  A(79,82,80)           110.4736         estimate D2E/DX2                !
 ! A263  A(79,82,81)           119.5717         estimate D2E/DX2                !
 ! A264  A(80,82,81)           122.4934         estimate D2E/DX2                !
 ! A265  A(55,83,57)           118.0            estimate D2E/DX2                !
 ! A266  A(55,83,84)           117.2006         estimate D2E/DX2                !
 ! A267  A(57,83,84)           119.595          estimate D2E/DX2                !
 ! A268  A(56,84,58)           114.825          estimate D2E/DX2                !
 ! A269  A(56,84,83)           120.5461         estimate D2E/DX2                !
 ! A270  A(58,84,83)           119.0049         estimate D2E/DX2                !
 ! D1    D(17,1,5,9)             2.4677         estimate D2E/DX2                !
 ! D2    D(17,1,5,29)         -152.8956         estimate D2E/DX2                !
 ! D3    D(23,1,5,9)           141.3055         estimate D2E/DX2                !
 ! D4    D(23,1,5,29)          -14.0578         estimate D2E/DX2                !
 ! D5    D(5,1,17,15)           -3.3578         estimate D2E/DX2                !
 ! D6    D(5,1,17,19)          139.1289         estimate D2E/DX2                !
 ! D7    D(23,1,17,15)        -147.2358         estimate D2E/DX2                !
 ! D8    D(23,1,17,19)          -4.749          estimate D2E/DX2                !
 ! D9    D(5,1,23,21)         -135.053          estimate D2E/DX2                !
 ! D10   D(5,1,23,25)           10.2299         estimate D2E/DX2                !
 ! D11   D(17,1,23,21)           9.1629         estimate D2E/DX2                !
 ! D12   D(17,1,23,25)         154.4457         estimate D2E/DX2                !
 ! D13   D(43,2,6,10)         -145.1181         estimate D2E/DX2                !
 ! D14   D(43,2,6,15)           -2.8773         estimate D2E/DX2                !
 ! D15   D(44,2,6,10)            0.2362         estimate D2E/DX2                !
 ! D16   D(44,2,6,15)          142.4769         estimate D2E/DX2                !
 ! D17   D(6,2,43,13)            5.4678         estimate D2E/DX2                !
 ! D18   D(6,2,43,39)          154.3561         estimate D2E/DX2                !
 ! D19   D(44,2,43,13)        -139.7205         estimate D2E/DX2                !
 ! D20   D(44,2,43,39)           9.1678         estimate D2E/DX2                !
 ! D21   D(6,2,44,40)         -154.9793         estimate D2E/DX2                !
 ! D22   D(6,2,44,47)           -2.1476         estimate D2E/DX2                !
 ! D23   D(43,2,44,40)         -14.4947         estimate D2E/DX2                !
 ! D24   D(43,2,44,47)         138.337          estimate D2E/DX2                !
 ! D25   D(18,3,7,12)           26.8588         estimate D2E/DX2                !
 ! D26   D(18,3,7,30)          142.2683         estimate D2E/DX2                !
 ! D27   D(18,3,7,86)          -96.44           estimate D2E/DX2                !
 ! D28   D(26,3,7,12)         -126.7667         estimate D2E/DX2                !
 ! D29   D(26,3,7,30)          -11.3572         estimate D2E/DX2                !
 ! D30   D(26,3,7,86)          109.9344         estimate D2E/DX2                !
 ! D31   D(7,3,18,16)            6.1171         estimate D2E/DX2                !
 ! D32   D(7,3,18,20)         -154.7731         estimate D2E/DX2                !
 ! D33   D(26,3,18,16)         156.8846         estimate D2E/DX2                !
 ! D34   D(26,3,18,20)          -4.0055         estimate D2E/DX2                !
 ! D35   D(7,3,26,24)          158.8728         estimate D2E/DX2                !
 ! D36   D(7,3,26,28)           12.5267         estimate D2E/DX2                !
 ! D37   D(18,3,26,24)           3.5624         estimate D2E/DX2                !
 ! D38   D(18,3,26,28)        -142.7836         estimate D2E/DX2                !
 ! D39   D(45,4,8,11)           -1.2223         estimate D2E/DX2                !
 ! D40   D(45,4,8,16)         -151.9612         estimate D2E/DX2                !
 ! D41   D(46,4,8,11)          142.8928         estimate D2E/DX2                !
 ! D42   D(46,4,8,16)           -7.8462         estimate D2E/DX2                !
 ! D43   D(8,4,45,41)          154.9447         estimate D2E/DX2                !
 ! D44   D(8,4,45,48)            1.6593         estimate D2E/DX2                !
 ! D45   D(46,4,45,41)          14.9055         estimate D2E/DX2                !
 ! D46   D(46,4,45,48)        -138.3799         estimate D2E/DX2                !
 ! D47   D(8,4,46,14)           -0.371          estimate D2E/DX2                !
 ! D48   D(8,4,46,42)         -154.5803         estimate D2E/DX2                !
 ! D49   D(45,4,46,14)         145.3143         estimate D2E/DX2                !
 ! D50   D(45,4,46,42)          -8.895          estimate D2E/DX2                !
 ! D51   D(1,5,9,13)            -0.3272         estimate D2E/DX2                !
 ! D52   D(1,5,9,35)          -156.6091         estimate D2E/DX2                !
 ! D53   D(29,5,9,13)          154.6621         estimate D2E/DX2                !
 ! D54   D(29,5,9,35)           -1.6198         estimate D2E/DX2                !
 ! D55   D(1,5,29,27)           -1.2804         estimate D2E/DX2                !
 ! D56   D(1,5,29,31)          162.4865         estimate D2E/DX2                !
 ! D57   D(9,5,29,27)         -156.6005         estimate D2E/DX2                !
 ! D58   D(9,5,29,31)            7.1663         estimate D2E/DX2                !
 ! D59   D(2,6,10,49)           -0.4548         estimate D2E/DX2                !
 ! D60   D(2,6,10,53)          137.9282         estimate D2E/DX2                !
 ! D61   D(15,6,10,49)        -138.0247         estimate D2E/DX2                !
 ! D62   D(15,6,10,53)           0.3582         estimate D2E/DX2                !
 ! D63   D(2,6,15,13)           -0.7356         estimate D2E/DX2                !
 ! D64   D(2,6,15,17)         -143.3555         estimate D2E/DX2                !
 ! D65   D(10,6,15,13)         141.0377         estimate D2E/DX2                !
 ! D66   D(10,6,15,17)          -1.5822         estimate D2E/DX2                !
 ! D67   D(3,7,12,14)          -31.4249         estimate D2E/DX2                !
 ! D68   D(3,7,12,36)          134.5068         estimate D2E/DX2                !
 ! D69   D(30,7,12,14)        -142.0098         estimate D2E/DX2                !
 ! D70   D(30,7,12,36)          23.9219         estimate D2E/DX2                !
 ! D71   D(86,7,12,14)          92.9015         estimate D2E/DX2                !
 ! D72   D(86,7,12,36)        -101.1668         estimate D2E/DX2                !
 ! D73   D(3,7,30,28)            6.6974         estimate D2E/DX2                !
 ! D74   D(3,7,30,32)         -144.1087         estimate D2E/DX2                !
 ! D75   D(12,7,30,28)         123.1443         estimate D2E/DX2                !
 ! D76   D(12,7,30,32)         -27.6618         estimate D2E/DX2                !
 ! D77   D(86,7,30,28)        -113.6292         estimate D2E/DX2                !
 ! D78   D(86,7,30,32)          95.5647         estimate D2E/DX2                !
 ! D79   D(4,8,11,50)            3.5397         estimate D2E/DX2                !
 ! D80   D(4,8,11,54)         -136.9259         estimate D2E/DX2                !
 ! D81   D(16,8,11,50)         151.0087         estimate D2E/DX2                !
 ! D82   D(16,8,11,54)          10.5431         estimate D2E/DX2                !
 ! D83   D(4,8,16,14)           12.094          estimate D2E/DX2                !
 ! D84   D(4,8,16,18)          129.8173         estimate D2E/DX2                !
 ! D85   D(4,8,16,85)         -105.7591         estimate D2E/DX2                !
 ! D86   D(11,8,16,14)        -137.443          estimate D2E/DX2                !
 ! D87   D(11,8,16,18)         -19.7198         estimate D2E/DX2                !
 ! D88   D(11,8,16,85)         104.7039         estimate D2E/DX2                !
 ! D89   D(5,9,13,15)           -0.9439         estimate D2E/DX2                !
 ! D90   D(5,9,13,43)         -143.3258         estimate D2E/DX2                !
 ! D91   D(35,9,13,15)         156.1476         estimate D2E/DX2                !
 ! D92   D(35,9,13,43)          13.7656         estimate D2E/DX2                !
 ! D93   D(5,9,35,33)           -8.2899         estimate D2E/DX2                !
 ! D94   D(5,9,35,37)          147.5543         estimate D2E/DX2                !
 ! D95   D(13,9,35,33)        -164.7636         estimate D2E/DX2                !
 ! D96   D(13,9,35,37)          -8.9194         estimate D2E/DX2                !
 ! D97   D(6,10,49,47)           2.6843         estimate D2E/DX2                !
 ! D98   D(6,10,49,51)         147.4738         estimate D2E/DX2                !
 ! D99   D(53,10,49,47)       -139.8185         estimate D2E/DX2                !
 ! D100  D(53,10,49,51)          4.971          estimate D2E/DX2                !
 ! D101  D(6,10,53,19)           0.4871         estimate D2E/DX2                !
 ! D102  D(6,10,53,55)        -142.1732         estimate D2E/DX2                !
 ! D103  D(49,10,53,19)        143.289          estimate D2E/DX2                !
 ! D104  D(49,10,53,55)          0.6287         estimate D2E/DX2                !
 ! D105  D(8,11,50,48)          -6.6878         estimate D2E/DX2                !
 ! D106  D(8,11,50,52)        -152.1097         estimate D2E/DX2                !
 ! D107  D(54,11,50,48)        137.8937         estimate D2E/DX2                !
 ! D108  D(54,11,50,52)         -7.5281         estimate D2E/DX2                !
 ! D109  D(8,11,54,20)           2.165          estimate D2E/DX2                !
 ! D110  D(8,11,54,56)         147.5584         estimate D2E/DX2                !
 ! D111  D(50,11,54,20)       -142.0465         estimate D2E/DX2                !
 ! D112  D(50,11,54,56)          3.3469         estimate D2E/DX2                !
 ! D113  D(7,12,14,16)           6.0578         estimate D2E/DX2                !
 ! D114  D(7,12,14,46)         162.553          estimate D2E/DX2                !
 ! D115  D(36,12,14,16)       -160.5133         estimate D2E/DX2                !
 ! D116  D(36,12,14,46)         -4.0181         estimate D2E/DX2                !
 ! D117  D(7,12,36,34)           7.386          estimate D2E/DX2                !
 ! D118  D(7,12,36,38)        -163.7408         estimate D2E/DX2                !
 ! D119  D(14,12,36,34)        172.9043         estimate D2E/DX2                !
 ! D120  D(14,12,36,38)          1.7776         estimate D2E/DX2                !
 ! D121  D(9,13,15,6)         -142.7661         estimate D2E/DX2                !
 ! D122  D(9,13,15,17)           0.0933         estimate D2E/DX2                !
 ! D123  D(43,13,15,6)           4.0803         estimate D2E/DX2                !
 ! D124  D(43,13,15,17)        146.9398         estimate D2E/DX2                !
 ! D125  D(9,13,43,2)          141.2913         estimate D2E/DX2                !
 ! D126  D(9,13,43,39)          -7.9373         estimate D2E/DX2                !
 ! D127  D(15,13,43,2)          -5.9222         estimate D2E/DX2                !
 ! D128  D(15,13,43,39)       -155.1508         estimate D2E/DX2                !
 ! D129  D(12,14,16,8)         146.5438         estimate D2E/DX2                !
 ! D130  D(12,14,16,18)         26.8484         estimate D2E/DX2                !
 ! D131  D(12,14,16,85)        -95.2879         estimate D2E/DX2                !
 ! D132  D(46,14,16,8)         -12.0629         estimate D2E/DX2                !
 ! D133  D(46,14,16,18)       -131.7583         estimate D2E/DX2                !
 ! D134  D(46,14,16,85)        106.1054         estimate D2E/DX2                !
 ! D135  D(12,14,46,4)        -151.6715         estimate D2E/DX2                !
 ! D136  D(12,14,46,42)          3.5057         estimate D2E/DX2                !
 ! D137  D(16,14,46,4)           8.3201         estimate D2E/DX2                !
 ! D138  D(16,14,46,42)        163.4973         estimate D2E/DX2                !
 ! D139  D(6,15,17,1)          140.4334         estimate D2E/DX2                !
 ! D140  D(6,15,17,19)           1.9126         estimate D2E/DX2                !
 ! D141  D(13,15,17,1)           2.0308         estimate D2E/DX2                !
 ! D142  D(13,15,17,19)       -136.4901         estimate D2E/DX2                !
 ! D143  D(8,16,18,3)         -143.436          estimate D2E/DX2                !
 ! D144  D(8,16,18,20)          17.4664         estimate D2E/DX2                !
 ! D145  D(14,16,18,3)         -31.5244         estimate D2E/DX2                !
 ! D146  D(14,16,18,20)        129.3779         estimate D2E/DX2                !
 ! D147  D(85,16,18,3)          91.2847         estimate D2E/DX2                !
 ! D148  D(85,16,18,20)       -107.8129         estimate D2E/DX2                !
 ! D149  D(1,17,19,21)          -1.3756         estimate D2E/DX2                !
 ! D150  D(1,17,19,53)        -143.6537         estimate D2E/DX2                !
 ! D151  D(15,17,19,21)        141.2105         estimate D2E/DX2                !
 ! D152  D(15,17,19,53)         -1.0675         estimate D2E/DX2                !
 ! D153  D(3,18,20,22)           1.7829         estimate D2E/DX2                !
 ! D154  D(3,18,20,54)         153.4833         estimate D2E/DX2                !
 ! D155  D(16,18,20,22)       -158.3968         estimate D2E/DX2                !
 ! D156  D(16,18,20,54)         -6.6964         estimate D2E/DX2                !
 ! D157  D(17,19,21,23)          6.9314         estimate D2E/DX2                !
 ! D158  D(17,19,21,57)       -139.3371         estimate D2E/DX2                !
 ! D159  D(53,19,21,23)        149.5105         estimate D2E/DX2                !
 ! D160  D(53,19,21,57)          3.242          estimate D2E/DX2                !
 ! D161  D(17,19,53,10)         -0.1449         estimate D2E/DX2                !
 ! D162  D(17,19,53,55)        138.4693         estimate D2E/DX2                !
 ! D163  D(21,19,53,10)       -138.2136         estimate D2E/DX2                !
 ! D164  D(21,19,53,55)          0.4005         estimate D2E/DX2                !
 ! D165  D(18,20,22,24)          0.9134         estimate D2E/DX2                !
 ! D166  D(18,20,22,58)        141.9542         estimate D2E/DX2                !
 ! D167  D(54,20,22,24)       -152.305          estimate D2E/DX2                !
 ! D168  D(54,20,22,58)        -11.2642         estimate D2E/DX2                !
 ! D169  D(18,20,54,11)         -3.9738         estimate D2E/DX2                !
 ! D170  D(18,20,54,56)       -144.6598         estimate D2E/DX2                !
 ! D171  D(22,20,54,11)        148.7547         estimate D2E/DX2                !
 ! D172  D(22,20,54,56)          8.0687         estimate D2E/DX2                !
 ! D173  D(19,21,23,1)         -10.014          estimate D2E/DX2                !
 ! D174  D(19,21,23,25)       -155.6319         estimate D2E/DX2                !
 ! D175  D(57,21,23,1)         136.3077         estimate D2E/DX2                !
 ! D176  D(57,21,23,25)         -9.3102         estimate D2E/DX2                !
 ! D177  D(19,21,57,59)        150.3582         estimate D2E/DX2                !
 ! D178  D(19,21,57,83)         -3.4305         estimate D2E/DX2                !
 ! D179  D(23,21,57,59)          9.1228         estimate D2E/DX2                !
 ! D180  D(23,21,57,83)       -144.666          estimate D2E/DX2                !
 ! D181  D(20,22,24,26)         -1.3595         estimate D2E/DX2                !
 ! D182  D(20,22,24,62)        143.1103         estimate D2E/DX2                !
 ! D183  D(58,22,24,26)       -147.7699         estimate D2E/DX2                !
 ! D184  D(58,22,24,62)         -3.3002         estimate D2E/DX2                !
 ! D185  D(20,22,58,60)       -143.2393         estimate D2E/DX2                !
 ! D186  D(20,22,58,84)          4.3664         estimate D2E/DX2                !
 ! D187  D(24,22,58,60)          2.05           estimate D2E/DX2                !
 ! D188  D(24,22,58,84)        149.6557         estimate D2E/DX2                !
 ! D189  D(1,23,25,27)           9.6524         estimate D2E/DX2                !
 ! D190  D(1,23,25,61)        -136.684          estimate D2E/DX2                !
 ! D191  D(21,23,25,27)        151.2597         estimate D2E/DX2                !
 ! D192  D(21,23,25,61)          4.9233         estimate D2E/DX2                !
 ! D193  D(22,24,26,3)          -0.8402         estimate D2E/DX2                !
 ! D194  D(22,24,26,28)        142.0766         estimate D2E/DX2                !
 ! D195  D(62,24,26,3)        -141.7402         estimate D2E/DX2                !
 ! D196  D(62,24,26,28)          1.1766         estimate D2E/DX2                !
 ! D197  D(22,24,62,60)          3.2361         estimate D2E/DX2                !
 ! D198  D(22,24,62,64)       -142.5474         estimate D2E/DX2                !
 ! D199  D(26,24,62,60)        147.8999         estimate D2E/DX2                !
 ! D200  D(26,24,62,64)          2.1165         estimate D2E/DX2                !
 ! D201  D(23,25,27,29)        -22.7572         estimate D2E/DX2                !
 ! D202  D(23,25,27,65)       -142.7942         estimate D2E/DX2                !
 ! D203  D(23,25,27,90)         98.8427         estimate D2E/DX2                !
 ! D204  D(61,25,27,29)        126.0457         estimate D2E/DX2                !
 ! D205  D(61,25,27,65)          6.0087         estimate D2E/DX2                !
 ! D206  D(61,25,27,90)       -112.3544         estimate D2E/DX2                !
 ! D207  D(23,25,61,59)         -1.0519         estimate D2E/DX2                !
 ! D208  D(23,25,61,63)        146.7433         estimate D2E/DX2                !
 ! D209  D(27,25,61,59)       -150.5897         estimate D2E/DX2                !
 ! D210  D(27,25,61,63)         -2.7945         estimate D2E/DX2                !
 ! D211  D(3,26,28,30)          -8.058          estimate D2E/DX2                !
 ! D212  D(3,26,28,66)         140.5438         estimate D2E/DX2                !
 ! D213  D(24,26,28,30)       -154.3801         estimate D2E/DX2                !
 ! D214  D(24,26,28,66)         -5.7783         estimate D2E/DX2                !
 ! D215  D(25,27,29,5)          18.6224         estimate D2E/DX2                !
 ! D216  D(25,27,29,31)       -145.7527         estimate D2E/DX2                !
 ! D217  D(65,27,29,5)         132.1307         estimate D2E/DX2                !
 ! D218  D(65,27,29,31)        -32.2445         estimate D2E/DX2                !
 ! D219  D(90,27,29,5)        -105.1369         estimate D2E/DX2                !
 ! D220  D(90,27,29,31)         90.4879         estimate D2E/DX2                !
 ! D221  D(25,27,65,63)         -7.2139         estimate D2E/DX2                !
 ! D222  D(25,27,65,67)        146.8474         estimate D2E/DX2                !
 ! D223  D(29,27,65,63)       -127.0151         estimate D2E/DX2                !
 ! D224  D(29,27,65,67)         27.0462         estimate D2E/DX2                !
 ! D225  D(90,27,65,63)        111.855          estimate D2E/DX2                !
 ! D226  D(90,27,65,67)        -94.0837         estimate D2E/DX2                !
 ! D227  D(26,28,30,7)           0.3635         estimate D2E/DX2                !
 ! D228  D(26,28,30,32)        152.1263         estimate D2E/DX2                !
 ! D229  D(66,28,30,7)        -147.661          estimate D2E/DX2                !
 ! D230  D(66,28,30,32)          4.1018         estimate D2E/DX2                !
 ! D231  D(26,28,66,64)          6.744          estimate D2E/DX2                !
 ! D232  D(26,28,66,68)       -147.677          estimate D2E/DX2                !
 ! D233  D(30,28,66,64)        150.4031         estimate D2E/DX2                !
 ! D234  D(30,28,66,68)         -4.018          estimate D2E/DX2                !
 ! D235  D(5,29,31,33)          -2.6519         estimate D2E/DX2                !
 ! D236  D(5,29,31,69)        -148.7631         estimate D2E/DX2                !
 ! D237  D(27,29,31,33)        162.2008         estimate D2E/DX2                !
 ! D238  D(27,29,31,69)         16.0896         estimate D2E/DX2                !
 ! D239  D(7,30,32,34)          -0.5169         estimate D2E/DX2                !
 ! D240  D(7,30,32,70)         149.1333         estimate D2E/DX2                !
 ! D241  D(28,30,32,34)       -149.1243         estimate D2E/DX2                !
 ! D242  D(28,30,32,70)          0.5259         estimate D2E/DX2                !
 ! D243  D(29,31,33,35)         -7.8567         estimate D2E/DX2                !
 ! D244  D(29,31,33,73)       -155.3758         estimate D2E/DX2                !
 ! D245  D(69,31,33,35)        142.7489         estimate D2E/DX2                !
 ! D246  D(69,31,33,73)         -4.7701         estimate D2E/DX2                !
 ! D247  D(29,31,69,67)         10.076          estimate D2E/DX2                !
 ! D248  D(29,31,69,71)        153.5974         estimate D2E/DX2                !
 ! D249  D(33,31,69,67)       -139.7575         estimate D2E/DX2                !
 ! D250  D(33,31,69,71)          3.7639         estimate D2E/DX2                !
 ! D251  D(30,32,34,36)         32.1212         estimate D2E/DX2                !
 ! D252  D(30,32,34,74)        149.1716         estimate D2E/DX2                !
 ! D253  D(30,32,34,87)        -89.4017         estimate D2E/DX2                !
 ! D254  D(70,32,34,36)       -119.6151         estimate D2E/DX2                !
 ! D255  D(70,32,34,74)         -2.5647         estimate D2E/DX2                !
 ! D256  D(70,32,34,87)        118.862          estimate D2E/DX2                !
 ! D257  D(30,32,70,68)         -5.2317         estimate D2E/DX2                !
 ! D258  D(30,32,70,72)       -154.7974         estimate D2E/DX2                !
 ! D259  D(34,32,70,68)        147.6116         estimate D2E/DX2                !
 ! D260  D(34,32,70,72)         -1.9542         estimate D2E/DX2                !
 ! D261  D(31,33,35,9)          13.0179         estimate D2E/DX2                !
 ! D262  D(31,33,35,37)       -143.6601         estimate D2E/DX2                !
 ! D263  D(73,33,35,9)         155.5341         estimate D2E/DX2                !
 ! D264  D(73,33,35,37)         -1.1438         estimate D2E/DX2                !
 ! D265  D(31,33,73,71)          3.9899         estimate D2E/DX2                !
 ! D266  D(31,33,73,75)        146.2991         estimate D2E/DX2                !
 ! D267  D(35,33,73,71)       -142.9678         estimate D2E/DX2                !
 ! D268  D(35,33,73,75)         -0.6585         estimate D2E/DX2                !
 ! D269  D(32,34,36,12)        -34.4749         estimate D2E/DX2                !
 ! D270  D(32,34,36,38)        136.5952         estimate D2E/DX2                !
 ! D271  D(74,34,36,12)       -145.0415         estimate D2E/DX2                !
 ! D272  D(74,34,36,38)         26.0286         estimate D2E/DX2                !
 ! D273  D(87,34,36,12)         89.5873         estimate D2E/DX2                !
 ! D274  D(87,34,36,38)        -99.3427         estimate D2E/DX2                !
 ! D275  D(32,34,74,72)          6.2388         estimate D2E/DX2                !
 ! D276  D(32,34,74,76)       -142.4162         estimate D2E/DX2                !
 ! D277  D(36,34,74,72)        121.6513         estimate D2E/DX2                !
 ! D278  D(36,34,74,76)        -27.0037         estimate D2E/DX2                !
 ! D279  D(87,34,74,72)       -115.2908         estimate D2E/DX2                !
 ! D280  D(87,34,74,76)         96.0542         estimate D2E/DX2                !
 ! D281  D(9,35,37,39)          -1.7565         estimate D2E/DX2                !
 ! D282  D(9,35,37,77)        -154.1389         estimate D2E/DX2                !
 ! D283  D(33,35,37,39)        154.0001         estimate D2E/DX2                !
 ! D284  D(33,35,37,77)          1.6176         estimate D2E/DX2                !
 ! D285  D(12,36,38,42)          1.0361         estimate D2E/DX2                !
 ! D286  D(12,36,38,78)        171.7424         estimate D2E/DX2                !
 ! D287  D(34,36,38,42)       -169.8848         estimate D2E/DX2                !
 ! D288  D(34,36,38,78)          0.8215         estimate D2E/DX2                !
 ! D289  D(35,37,39,43)          7.9037         estimate D2E/DX2                !
 ! D290  D(35,37,39,79)       -145.2009         estimate D2E/DX2                !
 ! D291  D(77,37,39,43)        161.0686         estimate D2E/DX2                !
 ! D292  D(77,37,39,79)          7.964          estimate D2E/DX2                !
 ! D293  D(35,37,77,75)         -0.3698         estimate D2E/DX2                !
 ! D294  D(35,37,77,81)        144.6459         estimate D2E/DX2                !
 ! D295  D(39,37,77,75)       -153.5349         estimate D2E/DX2                !
 ! D296  D(39,37,77,81)         -8.5193         estimate D2E/DX2                !
 ! D297  D(36,38,42,46)         -1.5986         estimate D2E/DX2                !
 ! D298  D(36,38,42,80)        164.4935         estimate D2E/DX2                !
 ! D299  D(78,38,42,46)       -172.568          estimate D2E/DX2                !
 ! D300  D(78,38,42,80)         -6.4759         estimate D2E/DX2                !
 ! D301  D(36,38,78,76)        -26.9741         estimate D2E/DX2                !
 ! D302  D(36,38,78,81)       -138.0886         estimate D2E/DX2                !
 ! D303  D(36,38,78,88)         98.0005         estimate D2E/DX2                !
 ! D304  D(42,38,78,76)        143.8857         estimate D2E/DX2                !
 ! D305  D(42,38,78,81)         32.7712         estimate D2E/DX2                !
 ! D306  D(42,38,78,88)        -91.1397         estimate D2E/DX2                !
 ! D307  D(37,39,43,2)        -148.5253         estimate D2E/DX2                !
 ! D308  D(37,39,43,13)         -3.296          estimate D2E/DX2                !
 ! D309  D(79,39,43,2)           5.5663         estimate D2E/DX2                !
 ! D310  D(79,39,43,13)        150.7956         estimate D2E/DX2                !
 ! D311  D(37,39,79,40)        139.8199         estimate D2E/DX2                !
 ! D312  D(37,39,79,82)         -3.5084         estimate D2E/DX2                !
 ! D313  D(43,39,79,40)        -14.1201         estimate D2E/DX2                !
 ! D314  D(43,39,79,82)       -157.4483         estimate D2E/DX2                !
 ! D315  D(44,40,41,45)         -5.4356         estimate D2E/DX2                !
 ! D316  D(44,40,41,80)       -160.7488         estimate D2E/DX2                !
 ! D317  D(79,40,41,45)        146.5447         estimate D2E/DX2                !
 ! D318  D(79,40,41,80)         -8.7685         estimate D2E/DX2                !
 ! D319  D(41,40,44,2)         154.3051         estimate D2E/DX2                !
 ! D320  D(41,40,44,47)          0.8994         estimate D2E/DX2                !
 ! D321  D(79,40,44,2)           5.8968         estimate D2E/DX2                !
 ! D322  D(79,40,44,47)       -147.509          estimate D2E/DX2                !
 ! D323  D(41,40,79,39)       -143.4555         estimate D2E/DX2                !
 ! D324  D(41,40,79,82)          4.1636         estimate D2E/DX2                !
 ! D325  D(44,40,79,39)          8.6846         estimate D2E/DX2                !
[...]
 Alpha virt. eigenvalues --    1.23673   1.23767   1.24047   1.24225   1.24443
 Alpha virt. eigenvalues --    1.24677   1.25020   1.25189   1.25279   1.25477
 Alpha virt. eigenvalues --    1.26133   1.26224   1.26712   1.27078   1.27564
 Alpha virt. eigenvalues --    1.28149   1.28187   1.28352   1.28756   1.28837
 Alpha virt. eigenvalues --    1.29183   1.29839   1.29987   1.30123   1.30495
 Alpha virt. eigenvalues --    1.30573   1.31041   1.31431   1.31723   1.32103
 Alpha virt. eigenvalues --    1.32627   1.32763   1.32997   1.33560   1.33669
 Alpha virt. eigenvalues --    1.33947   1.34681   1.34880   1.35051   1.35578
 Alpha virt. eigenvalues --    1.36324   1.36639   1.37072   1.37566   1.38176
 Alpha virt. eigenvalues --    1.38510   1.38888   1.39407   1.39814   1.40275
 Alpha virt. eigenvalues --    1.40587   1.41080   1.41998   1.42389   1.42750
 Alpha virt. eigenvalues --    1.43276   1.44125   1.44871   1.45007   1.45539
 Alpha virt. eigenvalues --    1.45844   1.46600   1.47018   1.47695   1.47921
 Alpha virt. eigenvalues --    1.48486   1.48692   1.49424   1.49969   1.50234
 Alpha virt. eigenvalues --    1.51246   1.51785   1.52736   1.52831   1.53030
 Alpha virt. eigenvalues --    1.53462   1.53800   1.54855   1.55230   1.55965
 Alpha virt. eigenvalues --    1.56582   1.56901   1.57166   1.57769   1.58051
 Alpha virt. eigenvalues --    1.58231   1.58928   1.59233   1.60324   1.60422
 Alpha virt. eigenvalues --    1.60850   1.61649   1.62050   1.62726   1.62878
 Alpha virt. eigenvalues --    1.63401   1.63571   1.64028   1.64667   1.64881
 Alpha virt. eigenvalues --    1.65223   1.65382   1.65703   1.65744   1.65800
 Alpha virt. eigenvalues --    1.66140   1.66381   1.66571   1.66734   1.67078
 Alpha virt. eigenvalues --    1.67466   1.67676   1.67989   1.68031   1.68513
 Alpha virt. eigenvalues --    1.68964   1.68997   1.69285   1.69679   1.69904
 Alpha virt. eigenvalues --    1.70115   1.70276   1.70362   1.70430   1.70730
 Alpha virt. eigenvalues --    1.70951   1.71182   1.71437   1.71839   1.71874
 Alpha virt. eigenvalues --    1.72012   1.72294   1.72515   1.72984   1.73207
 Alpha virt. eigenvalues --    1.73416   1.73586   1.73748   1.73880   1.74232
 Alpha virt. eigenvalues --    1.74355   1.74506   1.74865   1.75140   1.75311
 Alpha virt. eigenvalues --    1.75888   1.76033   1.76609   1.76750   1.76896
 Alpha virt. eigenvalues --    1.77230   1.77303   1.77512   1.77734   1.77967
 Alpha virt. eigenvalues --    1.78227   1.78390   1.78836   1.79128   1.79537
 Alpha virt. eigenvalues --    1.79888   1.80114   1.80430   1.80773   1.81024
 Alpha virt. eigenvalues --    1.81379   1.81851   1.81950   1.82460   1.82551
 Alpha virt. eigenvalues --    1.82698   1.83220   1.83693   1.84123   1.84576
 Alpha virt. eigenvalues --    1.84855   1.85745   1.86124   1.86670   1.86827
 Alpha virt. eigenvalues --    1.87299   1.87766   1.88122   1.88438   1.88723
 Alpha virt. eigenvalues --    1.88953   1.89436   1.89774   1.90448   1.90651
 Alpha virt. eigenvalues --    1.91141   1.91576   1.91887   1.92355   1.92710
 Alpha virt. eigenvalues --    1.92998   1.93639   1.93752   1.93879   1.94283
 Alpha virt. eigenvalues --    1.94736   1.95329   1.95607   1.95828   1.95888
 Alpha virt. eigenvalues --    1.96401   1.96472   1.96890   1.97257   1.97522
 Alpha virt. eigenvalues --    1.98120   1.98145   1.98653   1.98685   1.99001
 Alpha virt. eigenvalues --    1.99214   1.99484   1.99728   1.99978   2.00146
 Alpha virt. eigenvalues --    2.00509   2.00662   2.01070   2.01246   2.01502
 Alpha virt. eigenvalues --    2.01522   2.02100   2.02158   2.02512   2.02601
 Alpha virt. eigenvalues --    2.02865   2.03362   2.03476   2.03872   2.03900
 Alpha virt. eigenvalues --    2.04377   2.04719   2.05213   2.05361   2.05738
 Alpha virt. eigenvalues --    2.05830   2.06258   2.06743   2.06927   2.07376
 Alpha virt. eigenvalues --    2.07885   2.08309   2.08758   2.09193   2.09435
 Alpha virt. eigenvalues --    2.09734   2.10724   2.10976   2.11413   2.11755
 Alpha virt. eigenvalues --    2.12271   2.12366   2.12710   2.13196   2.13611
 Alpha virt. eigenvalues --    2.13719   2.14266   2.14643   2.15486   2.15902
 Alpha virt. eigenvalues --    2.16273   2.16436   2.17164   2.17548   2.17722
 Alpha virt. eigenvalues --    2.18258   2.18484   2.19058   2.19815   2.19919
 Alpha virt. eigenvalues --    2.20660   2.21098   2.21643   2.22068   2.22165
 Alpha virt. eigenvalues --    2.22489   2.22808   2.23597   2.23800   2.24337
 Alpha virt. eigenvalues --    2.24408   2.24655   2.24854   2.25481   2.25815
 Alpha virt. eigenvalues --    2.26479   2.26805   2.27131   2.27567   2.27736
 Alpha virt. eigenvalues --    2.27833   2.28492   2.29035   2.29517   2.29608
 Alpha virt. eigenvalues --    2.29984   2.30575   2.30703   2.31353   2.31658
 Alpha virt. eigenvalues --    2.31834   2.31992   2.33431   2.33688   2.34468
 Alpha virt. eigenvalues --    2.34569   2.35098   2.35854   2.36313   2.37325
 Alpha virt. eigenvalues --    2.37457   2.38063   2.38986   2.39678   2.39956
 Alpha virt. eigenvalues --    2.40539   2.41263   2.41757   2.41813   2.42424
 Alpha virt. eigenvalues --    2.42622   2.43089   2.44277   2.44548   2.44622
 Alpha virt. eigenvalues --    2.45024   2.45793   2.46620   2.47214   2.47833
 Alpha virt. eigenvalues --    2.48422   2.49054   2.49272   2.49979   2.50595
 Alpha virt. eigenvalues --    2.50788   2.51359   2.51478   2.52158   2.52402
 Alpha virt. eigenvalues --    2.52620   2.53258   2.54043   2.54438   2.54710
 Alpha virt. eigenvalues --    2.54747   2.54828   2.55389   2.55698   2.55821
 Alpha virt. eigenvalues --    2.56050   2.56691   2.56853   2.57495   2.57875
 Alpha virt. eigenvalues --    2.58142   2.58509   2.58708   2.58774   2.59113
 Alpha virt. eigenvalues --    2.59719   2.59846   2.60181   2.60554   2.60710
 Alpha virt. eigenvalues --    2.61195   2.61820   2.62419   2.62465   2.62789
 Alpha virt. eigenvalues --    2.62995   2.63581   2.63765   2.64024   2.64187
 Alpha virt. eigenvalues --    2.64748   2.64868   2.65397   2.65660   2.66062
 Alpha virt. eigenvalues --    2.66469   2.66515   2.66841   2.67031   2.67259
 Alpha virt. eigenvalues --    2.67578   2.67873   2.68478   2.68551   2.69267
 Alpha virt. eigenvalues --    2.69831   2.70068   2.70588   2.70983   2.71105
 Alpha virt. eigenvalues --    2.72016   2.72632   2.72925   2.73223   2.73446
 Alpha virt. eigenvalues --    2.74608   2.74678   2.75100   2.75522   2.76065
 Alpha virt. eigenvalues --    2.76204   2.76639   2.76985   2.77717   2.78242
 Alpha virt. eigenvalues --    2.78804   2.79367   2.79636   2.79943   2.80182
 Alpha virt. eigenvalues --    2.80668   2.80943   2.81416   2.81666   2.82408
 Alpha virt. eigenvalues --    2.82792   2.83014   2.83473   2.83724   2.84122
 Alpha virt. eigenvalues --    2.84772   2.85125   2.85337   2.85963   2.86701
 Alpha virt. eigenvalues --    2.87350   2.87624   2.88133   2.89069   2.89231
 Alpha virt. eigenvalues --    2.89879   2.90092   2.90140   2.90669   2.91265
 Alpha virt. eigenvalues --    2.91649   2.91824   2.91984   2.92391   2.92683
 Alpha virt. eigenvalues --    2.93439   2.94166   2.95077   2.95757   2.96317
 Alpha virt. eigenvalues --    2.96938   2.97093   2.97697   2.99434   2.99822
 Alpha virt. eigenvalues --    3.00928   3.01359   3.02125   3.03183   3.04413
 Alpha virt. eigenvalues --    3.06351   3.06820   3.07914   3.08312   3.10382
 Alpha virt. eigenvalues --    3.12188   3.12819   3.14471   3.15100   3.15999
 Alpha virt. eigenvalues --    3.17623   3.20204   3.21335   3.21867   3.23288
 Alpha virt. eigenvalues --    3.25416   3.27407   3.29642   3.29877   3.32483
 Alpha virt. eigenvalues --    3.33613   3.34622   3.34778   3.37497   3.38686
 Alpha virt. eigenvalues --    3.39225   3.42070   3.44033   3.45967   3.47644
 Alpha virt. eigenvalues --    3.49102   3.50103   3.53156   3.54143   3.57308
 Alpha virt. eigenvalues --    3.59194   4.00917   4.01338   4.01830   4.01898
 Alpha virt. eigenvalues --    4.03389   4.03859   4.04281   4.04866   4.04921
 Alpha virt. eigenvalues --    4.05959   4.06397   4.07329   4.07517   4.07753
 Alpha virt. eigenvalues --    4.08610   4.08965   4.09936   4.10530   4.11550
 Alpha virt. eigenvalues --    4.12485   4.13173   4.13822   4.14193   4.15259
 Alpha virt. eigenvalues --    4.16436   4.17735   4.18123   4.18998   4.20092
 Alpha virt. eigenvalues --    4.20696   4.21285   4.21755   4.22377   4.22878
 Alpha virt. eigenvalues --    4.23626   4.23979   4.26613   4.27358   4.28079
 Alpha virt. eigenvalues --    4.28281   4.28694   4.29162   4.29540   4.29873
 Alpha virt. eigenvalues --    4.31160   4.32932   4.34378   4.34858   4.36749
 Alpha virt. eigenvalues --    4.37929   4.39774   4.40193   4.41050   4.41196
 Alpha virt. eigenvalues --    4.44027   4.45419   4.45700   4.47721   4.49159
 Alpha virt. eigenvalues --    4.50189   4.51644   4.53391   4.54798   4.55670
 Alpha virt. eigenvalues --    4.57225   4.58746   4.59712   4.62591   4.63437
 Alpha virt. eigenvalues --    4.65280   4.66092   4.67742   4.69147   4.72396
 Alpha virt. eigenvalues --    4.76992   4.80730   4.81009   4.82862   4.86809
 Alpha virt. eigenvalues --    4.89313   4.91208   4.91520   4.93802   5.04585
 Alpha virt. eigenvalues --    5.05969   5.06633   5.15007   5.15372   5.20797
 Alpha virt. eigenvalues --    5.23138
          Condensed to atoms (all electrons):
 Mulliken charges:
               1
     1  C   -0.038982
     2  C   -0.020025
     3  C    0.078945
     4  C   -0.005470
     5  C    0.070521
     6  C   -0.010503
     7  C   -0.378948
     8  C    0.072788
     9  C    0.027951
    10  C    0.010255
    11  C    0.004097
    12  C    0.151786
    13  C   -0.022314
    14  C    0.082783
    15  C   -0.002793
    16  C   -0.369623
    17  C    0.002166
    18  C    0.122376
    19  C   -0.002866
    20  C    0.088115
    21  C   -0.022179
    22  C   -0.030501
    23  C    0.009664
    24  C   -0.025223
    25  C    0.072937
    26  C    0.029143
    27  C   -0.356018
    28  C    0.006976
    29  C    0.104604
    30  C    0.091395
    31  C    0.001637
    32  C    0.089143
    33  C   -0.026512
    34  C   -0.371209
    35  C    0.044359
    36  C    0.115952
    37  C    0.040863
    38  C    0.124793
    39  C    0.041935
    40  C    0.010416
    41  C    0.043005
    42  C    0.125756
    43  C   -0.029110
    44  C    0.047935
    45  C    0.058477
    46  C    0.037251
    47  C    0.042608
    48  C    0.045542
    49  C   -0.023820
    50  C   -0.023055
    51  C   -0.005834
    52  C   -0.018495
    53  C   -0.001050
    54  C   -0.045233
    55  C   -0.023561
    56  C   -0.018550
    57  C    0.043134
    58  C   -0.035636
    59  C    0.048716
    60  C   -0.025972
    61  C    0.008607
    62  C   -0.021102
    63  C    0.010466
    64  C    0.052736
    65  C    0.050084
    66  C    0.035834
    67  C    0.068657
    68  C    0.034620
    69  C   -0.033357
    70  C    0.007051
    71  C   -0.013522
    72  C    0.024303
    73  C   -0.015901
    74  C    0.090261
    75  C    0.023886
    76  C    0.089905
    77  C    0.000668
    78  C   -0.376060
    79  C    0.005488
    80  C   -0.365241
    81  C    0.090470
    82  C    0.090968
    83  C    0.045683
    84  C    0.059159
    85  Cl  -0.007217
    86  Cl   0.008307
    87  Cl   0.001735
    88  Cl   0.006214
    89  Cl  -0.013041
    90  Cl  -0.014207
 Sum of Mulliken charges =  -0.00000
 Mulliken charges with hydrogens summed into heavy atoms:
               1
     1  C   -0.038982
     2  C   -0.020025
     3  C    0.078945
     4  C   -0.005470
     5  C    0.070521
     6  C   -0.010503
     7  C   -0.378948
     8  C    0.072788
     9  C    0.027951
    10  C    0.010255
    11  C    0.004097
    12  C    0.151786
    13  C   -0.022314
    14  C    0.082783
    15  C   -0.002793
    16  C   -0.369623
    17  C    0.002166
    18  C    0.122376
    19  C   -0.002866
    20  C    0.088115
    21  C   -0.022179
    22  C   -0.030501
    23  C    0.009664
    24  C   -0.025223
    25  C    0.072937
    26  C    0.029143
    27  C   -0.356018
    28  C    0.006976
    29  C    0.104604
    30  C    0.091395
    31  C    0.001637
    32  C    0.089143
    33  C   -0.026512
    34  C   -0.371209
    35  C    0.044359
    36  C    0.115952
    37  C    0.040863
    38  C    0.124793
    39  C    0.041935
    40  C    0.010416
    41  C    0.043005
    42  C    0.125756
    43  C   -0.029110
    44  C    0.047935
    45  C    0.058477
    46  C    0.037251
    47  C    0.042608
    48  C    0.045542
    49  C   -0.023820
    50  C   -0.023055
    51  C   -0.005834
    52  C   -0.018495
    53  C   -0.001050
    54  C   -0.045233
    55  C   -0.023561
    56  C   -0.018550
    57  C    0.043134
    58  C   -0.035636
    59  C    0.048716
    60  C   -0.025972
    61  C    0.008607
    62  C   -0.021102
    63  C    0.010466
    64  C    0.052736
    65  C    0.050084
    66  C    0.035834
    67  C    0.068657
    68  C    0.034620
    69  C   -0.033357
    70  C    0.007051
    71  C   -0.013522
    72  C    0.024303
    73  C   -0.015901
    74  C    0.090261
    75  C    0.023886
    76  C    0.089905
    77  C    0.000668
    78  C   -0.376060
    79  C    0.005488
    80  C   -0.365241
    81  C    0.090470
    82  C    0.090968
    83  C    0.045683
    84  C    0.059159
    85  Cl  -0.007217
    86  Cl   0.008307
    87  Cl   0.001735
    88  Cl   0.006214
    89  Cl  -0.013041
    90  Cl  -0.014207
 Electronic spatial extent (au):  <R**2>=          46928.1234
 Charge=             -0.0000 electrons
 Dipole moment (field-independent basis, Debye):
    X=             -6.2433    Y=              0.6724    Z=              0.2859  Tot=              6.2859
 Quadrupole moment (field-independent basis, Debye-Ang):
   XX=           -563.7758   YY=           -537.6174   ZZ=           -534.7194
   XY=             -8.3607   XZ=             -2.8130   YZ=              1.7397
 Traceless Quadrupole moment (field-independent basis, Debye-Ang):
   XX=            -18.4049   YY=              7.7534   ZZ=             10.6515
   XY=             -8.3607   XZ=             -2.8130   YZ=              1.7397
 Octapole moment (field-independent basis, Debye-Ang**2):
  XXX=             -1.6444  YYY=            -18.8499  ZZZ=            -18.9245  XYY=             25.0994
  XXY=             43.8827  XXZ=             10.6628  XZZ=            -29.6411  YZZ=            -26.3232
  YYZ=             14.5098  XYZ=              9.6036
 Hexadecapole moment (field-independent basis, Debye-Ang**3):
 XXXX=         -28042.7273 YYYY=         -20710.3815 ZZZZ=         -19373.3333 XXXY=            -61.0709
 XXXZ=            -16.3923 YYYX=            -40.6379 YYYZ=             32.0144 ZZZX=            -23.8925
 ZZZY=             21.5227 XXYY=          -8310.8882 XXZZ=          -8019.9795 YYZZ=          -6679.5070
 XXYZ=             -7.5586 YYXZ=            -13.7713 ZZXY=             -8.4456
 N-N= 1.877764507863D+04 E-N=-5.151896674536D+04  KE= 5.923798300763D+03
 No NMR shielding tensors so no spin-rotation constants.
 Leave Link  601 at Tue Jun 28 14:46:14 2022, MaxMem=  1342177280 cpu:              24.3 elap:               1.2
 (Enter /home/mkliu/g16/l9999.exe)
 1\1\GINC-NODE05\FOpt\RB3LYP\6-31G(d,p)\C84Cl6\MKLIU\28-Jun-2022\0\\#P 
 opt b3lyp/6-31G(d, p) empiricaldispersion=GD3\\force\\0,1\C,8.50885362
 66,18.821244481,10.787172199\C,12.403646475,20.126198656,8.9602449537\
 C,8.283512155,26.8953782493,10.5486210399\C,12.2779824162,25.574201488
 6,9.0061799282\C,8.0305510414,19.0713302183,9.4637612767\C,12.07935421
 03,19.4845817241,10.2008504594\C,7.8795042517,27.1396068355,9.08892356
 99\C,11.8909451022,26.1619002376,10.2074708897\C,8.9965205021,19.15540
 91138,8.3711184017\C,12.3482409434,20.1325854811,11.3917619236\C,12.13
 35349393,25.4989187869,11.4049088962\C,8.9563784786,26.6409795376,8.13
 47610907\C,10.3742653178,18.992040782,8.6813402577\C,10.2579477556,26.
 6861880697,8.6003516955\C,10.8232539264,18.7752003005,10.0235222378\C,
 10.6842067912,27.0647756045,10.0182425648\C,9.9043576081,18.7089197147
 ,11.0607117129\C,9.5748690836,26.7884894724,11.0127524099\C,10.1903740
 475,19.3933342207,12.3167357064\C,9.8522656735,26.0421006086,12.235278
 7255\C,8.9666294498,19.9555609044,12.805577169\C,8.7788421906,25.41535
 05712,12.903873121\C,7.9096301576,19.4806910422,11.9345043032\C,7.4539
 784451,25.4929083198,12.3681821891\C,6.7503518828,20.2052967258,11.804
 4931474\C,7.2130435681,26.2100772911,11.2081876579\C,5.9337163246,20.1
 630706333,10.5349752983\C,6.2747423363,25.732890309,10.2372127636\C,6.
 7627678737,19.7469007803,9.328614708\C,6.6405352384,26.2746801216,8.97
 29923619\C,6.425073553,20.3338259314,8.13357077\C,6.3301859374,25.5991
 516057,7.8374386844\C,7.3370719092,20.3352205421,7.0122804968\C,7.1919
 865425,25.6565210101,6.586138072\C,8.6648211106,19.88236165,7.15729697
 1\C,8.6582931909,25.8570405183,6.9814790984\C,9.7075481283,20.58650267
 82,6.4053121684\C,9.6844427207,25.1126538039,6.3505255762\C,11.0643399
 287,20.5774242292,6.9045181297\C,12.768206606,22.1799859157,7.75876139
 96\C,12.793676374,23.5854927687,7.7541423797\C,10.9971768476,25.127622
 6892,6.8811764069\C,11.3853021863,19.7559053306,8.0064488035\C,12.9947
 946199,21.416407574,8.9392977367\C,12.9468478227,24.3091285231,8.94531
 87439\C,11.2609412092,25.9057618306,8.0042545812\C,13.2520751109,22.12
 67527964,10.1854669462\C,13.2035904013,23.588774063,10.1879591751\C,12
 .9662892136,21.4370705013,11.3962949891\C,12.8523326538,24.2463412947,
 11.393080122\C,12.452523883,22.1353126098,12.542016066\C,12.3994084646
 ,23.5092074513,12.5368790765\C,11.3769404803,20.0854850378,12.47824704
 7\C,11.1383626344,25.4504968145,12.4376501359\C,11.3792131183,21.36029
 47337,13.1365248426\C,11.2790777001,24.1958750852,13.1265186525\C,8.92
 35744819,21.2504686735,13.3861765115\C,8.9118116948,24.1232627087,13.5
 390060636\C,7.6814840136,21.9967494818,13.2319376373\C,7.6991838357,23
 .4043649801,13.3396195348\C,6.6367261363,21.4533604138,12.4319702571\C
 ,6.7844941487,24.2485812885,12.5806831487\C,5.803612338,22.3012651841,
 11.5785759822\C,5.9130769838,23.7273798368,11.6057119017\C,5.446748657
 3,21.6095517058,10.4317326124\C,5.6548045441,24.4571291976,10.37559944
 34\C,5.2421445462,22.2738682043,9.1957467594\C,5.3235567442,23.7327413
 501,9.1670569905\C,5.5770311993,21.5375209529,8.0332146482\C,5.6300056
 37,24.3558437514,7.9220701692\C,5.9306235862,22.1911230812,6.827531597
 9\C,5.9470680267,23.5904558748,6.755722111\C,6.9930284322,21.451115673
 6,6.1904358909\C,6.9534851713,24.2789273359,5.9994970154\C,7.983025585
 1,22.1411974994,5.5022726254\C,7.9473321843,23.571240238,5.3841679147\
 C,9.3383568765,21.6956214522,5.5988907012\C,9.3576397214,24.104435869,
 5.2417120048\C,11.8796610814,21.7240707335,6.7180214412\C,12.059919079
 1,24.111251176,6.5168956271\C,10.1875980555,22.8374431627,5.4260016289
 \C,11.4275455858,22.8506658873,5.982631097\C,10.1806891743,21.98501827
 98,13.5617735819\C,10.1602215579,23.4526621948,13.5971738738\Cl,11.190
 7166616,28.8479475675,10.1113637041\Cl,7.5107483355,28.9208067371,8.78
 45756338\Cl,6.6574095841,26.9974396955,5.4324572839\Cl,9.6429540443,24
 .8816384995,3.5926997917\Cl,13.2665230008,24.8517785611,5.3119897822\C
 l,4.4951411571,18.9952526746,10.7157667387\\Version=ES64L-G16RevA.03\S
 tate=1-A\HF=-5962.214087\RMSD=8.148e-09\RMSF=1.924e-05\Dipole=-0.01723
 1,-2.0192344,1.4277267\Quadrupole=5.6525292,-7.311842,1.6593128,-8.206
 4789,3.5184706,7.9035733\PG=C01 [X(C84Cl6)]\\@


 THERE'S NOTHING WRONG WITH FOLLOWING A TRAIN OF THOUGHT...
 AS LONG AS IT ULTIMATELY PULLS INTO THE STATION.
 Job cpu time:       1 days  9 hours 55 minutes 10.5 seconds.
 Elapsed time:       0 days  1 hours 24 minutes 55.0 seconds.
 File lengths (MBytes):  RWF=   1161 Int=      0 D2E=      0 Chk=    146 Scr=      1
 Normal termination of Gaussian 16 at Tue Jun 28 14:46:16 2022.
