 Entering Gaussian System, Link 0=g16
 Input=8_addons_C84_11_Cl22_rank_0.gjf
 Output=8_addons_C84_11_Cl22_rank_0.log
 Initial command:
 /home/mkliu/g16/l1.exe "/data/scratch/Gau-22205.inp" -scrdir="/data/scratch/"
 Entering Link 1 = /home/mkliu/g16/l1.exe PID=     22206.
  
 Copyright (c) 1988,1990,1992,1993,1995,1998,2003,2009,2016,
            Gaussian, Inc.  All Rights Reserved.
  
 This is part of the Gaussian(R) 16 program.  It is based on
 the Gaussian(R) 09 system (copyright 2009, Gaussian, Inc.),
 the Gaussian(R) 03 system (copyright 2003, Gaussian, Inc.),
 the Gaussian(R) 98 system (copyright 1998, Gaussian, Inc.),
 the Gaussian(R) 94 system (copyright 1995, Gaussian, Inc.),
 the Gaussian 92(TM) system (copyright 1992, Gaussian, Inc.),
 the Gaussian 90(TM) system (copyright 1990, Gaussian, Inc.),
 the Gaussian 88(TM) system (copyright 1988, Gaussian, Inc.),
 the Gaussian 86(TM) system (copyright 1986, Carnegie Mellon
 University), and the Gaussian 82(TM) system (copyright 1983,
 Carnegie Mellon University). Gaussian is a federally registered
 trademark of Gaussian, Inc.
  
 This software contains proprietary and confidential information,
 including trade secrets, belonging to Gaussian, Inc.
  
 This software is provided under written license and may be
 used, copied, transmitted, or stored only in accord with that
 written license.
  
 The following legend is applicable only to US Government
 contracts under FAR:
  
                    RESTRICTED RIGHTS LEGEND
  
 Use, reproduction and disclosure by the US Government is
 subject to restrictions as set forth in subparagraphs (a)
 and (c) of the Commercial Computer Software - Restricted
 Rights clause in FAR 52.227-19.
  
 Gaussian, Inc.
 340 Quinnipiac St., Bldg. 40, Wallingford CT 06492
  
  
 ---------------------------------------------------------------
 Warning -- This program may not be used in any manner that
 competes with the business of Gaussian, Inc. or will provide
 assistance to any competitor of Gaussian, Inc.  The licensee
 of this program is prohibited from giving any competitor of
 Gaussian, Inc. access to this program.  By using this program,
 the user acknowledges that Gaussian, Inc. is engaged in the
 business of creating and licensing software in the field of
 computational chemistry and represents and warrants to the
 licensee that it is not a competitor of Gaussian, Inc. and that
 it will not use this program in any manner prohibited above.
 ---------------------------------------------------------------
  

 Cite this work as:
 Gaussian 16, Revision A.03,
 M. J. Frisch, G. W. Trucks, H. B. Schlegel, G. E. Scuseria, 
 M. A. Robb, J. R. Cheeseman, G. Scalmani, V. Barone, 
 G. A. Petersson, H. Nakatsuji, X. Li, M. Caricato, A. V. Marenich, 
 J. Bloino, B. G. Janesko, R. Gomperts, B. Mennucci, H. P. Hratchian, 
 J. V. Ortiz, A. F. Izmaylov, J. L. Sonnenberg, D. Williams-Young, 
 F. Ding, F. Lipparini, F. Egidi, J. Goings, B. Peng, A. Petrone, 
 T. Henderson, D. Ranasinghe, V. G. Zakrzewski, J. Gao, N. Rega, 
 G. Zheng, W. Liang, M. Hada, M. Ehara, K. Toyota, R. Fukuda, 
 J. Hasegawa, M. Ishida, T. Nakajima, Y. Honda, O. Kitao, H. Nakai, 
 T. Vreven, K. Throssell, J. A. Montgomery, Jr., J. E. Peralta, 
 F. Ogliaro, M. J. Bearpark, J. J. Heyd, E. N. Brothers, K. N. Kudin, 
 V. N. Staroverov, T. A. Keith, R. Kobayashi, J. Normand, 
 K. Raghavachari, A. P. Rendell, J. C. Burant, S. S. Iyengar, 
 J. Tomasi, M. Cossi, J. M. Millam, M. Klene, C. Adamo, R. Cammi, 
 J. W. Ochterski, R. L. Martin, K. Morokuma, O. Farkas, 
 J. B. Foresman, and D. J. Fox, Gaussian, Inc., Wallingford CT, 2016.
 
 ******************************************
 Gaussian 16:  ES64L-G16RevA.03 25-Dec-2016
                28-Jun-2022 
 ******************************************
 %mem=10GB
 %chk=8_addons_C84_11_Cl22_rank_0.chk
 %nprocshared=24
 Will use up to   24 processors via shared memory.
 ------------------------------------------------
 #P opt b3lyp/6-31G(d, p) empiricaldispersion=GD3
 ------------------------------------------------
 1/18=20,19=15,26=3,38=1/1,3;
 2/9=110,12=2,17=6,18=5,40=1/2;
 3/5=1,6=6,7=101,11=2,25=1,30=1,71=1,74=-5,124=31/1,2,3;
 4//1;
 5/5=2,38=5/2;
 6/7=2,8=2,9=2,10=2,28=1/1;
 7//1,2,3,16;
 1/18=20,19=15,26=3/3(2);
 2/9=110/2;
 99//99;
 2/9=110/2;
 3/5=1,6=6,7=101,11=2,25=1,30=1,71=1,74=-5,124=31/1,2,3;
 4/5=5,16=3,69=1/1;
 5/5=2,38=5/2;
 7//1,2,3,16;
 1/18=20,19=15,26=3/3(-5);
 2/9=110/2;
 6/7=2,8=2,9=2,10=2,19=2,28=1/1;
 99/9=1/99;
 Leave Link    1 at Tue Jun 28 03:45:53 2022, MaxMem=  1342177280 cpu:               0.6 elap:               0.1
 (Enter /home/mkliu/g16/l101.exe)
 -----
 force
 -----
 Symbolic Z-matrix:
 Charge =  0 Multiplicity = 1
 C                     8.48769   18.84505   10.77128 
 C                     12.35071   20.14251   8.96139 
 C                     8.26751   26.86478   10.55276 
 C                     12.46381   25.72814   8.92617 
 C                     8.01372   19.07132   9.4634 
 C                     12.03368   19.50134   10.21447 
 C                     7.87288   27.08528   9.10706 
 C                     11.88821   26.18263   10.23233 
 C                     8.98034   19.17683   8.38486 
 C                     12.31922   20.1292   11.3948 
 C                     12.10147   25.49791   11.35935 
 C                     8.93804   26.53497   8.1909 
 C                     10.33502   19.02038   8.702 
 C                     10.23762   26.57699   8.66193 
 C                     10.79334   18.79745   10.03439 
 C                     10.66093   27.02922   10.03298 
 C                     9.8745    18.72892   11.06336 
 C                     9.55474   26.76549   11.01506 
 C                     10.15013   19.42417   12.29281 
 C                     9.82525   26.01898   12.21313 
 C                     8.93646   19.98541   12.78183 
 C                     8.7586    25.3945   12.8903 
 C                     7.89337   19.5096   11.90668 
 C                     7.43791   25.47059   12.36518 
 C                     6.74677   20.23683   11.75216 
 C                     7.20712   26.17443   11.20936 
 C                     6.12355   20.32047   10.46859 
 C                     6.27058   25.68202   10.24001 
 C                     6.74455   19.7476   9.33676 
 C                     6.64783   26.2238   8.99279 
 C                     6.41599   20.34413   8.11194 
 C                     6.34393   25.55001   7.85147 
 C                     7.33934   20.34098   7.00636 
 C                     7.20099   25.623    6.61455 
 C                     8.65682   19.90566   7.16785 
 C                     8.6533    25.7858   7.03653 
 C                     9.69049   20.60105   6.42489 
 C                     9.6737    25.06152   6.40084 
 C                     11.03112   20.59818   6.92178 
 C                     12.70027   22.18378   7.782 
 C                     12.73466   23.58945   7.77398 
 C                     10.97697   25.08499   6.92442 
 C                     11.35314   19.79254   8.03251 
 C                     12.91217   21.44695   8.95758 
 C                     12.88727   24.27962   8.95321 
 C                     11.24723   25.8566   8.03959 
 C                     13.15268   22.16505   10.16441 
 C                     13.10803   23.55726   10.15619 
 C                     13.14899   21.38551   11.46979 
 C                     13.0458   24.32812   11.46023 
 C                     12.4106   22.15665   12.52771 
 C                     12.36798   23.50498   12.51349 
 C                     11.33836   20.12574   12.43176 
 C                     11.08366   25.40927   12.38182 
 C                     11.31954   21.40156   13.06299 
 C                     11.22372   24.17225   13.03972 
 C                     8.88192   21.2702   13.35491 
 C                     8.88724   24.11884   13.5063 
 C                     7.63787   22.00444   13.22767 
 C                     7.65062   23.40492   13.33275 
 C                     6.58451   21.48049   12.44472 
 C                     6.76136   24.22786   12.59085 
 C                     5.771     22.30198   11.61974 
 C                     5.88537   23.70116   11.61499 
 C                     5.47867   21.58465   10.40602 
 C                     5.65721   24.41896   10.37767 
 C                     5.27605   22.25691   9.19242 
 C                     5.34108   23.7037   9.17212 
 C                     5.62163   21.52011   8.03456 
 C                     5.65016   24.32174   7.94106 
 C                     5.95892   22.18558   6.81227 
 C                     5.97495   23.56481   6.76419 
 C                     6.99979   21.45151   6.17358 
 C                     6.96937   24.26486   6.01683 
 C                     7.98927   22.14424   5.49805 
 C                     7.95939   23.56705   5.3936 
 C                     9.33622   21.70172   5.61273 
 C                     9.35851   24.09865   5.26328 
 C                     11.8455   21.72834   6.73264 
 C                     12.04998   24.10852   6.52519 
 C                     10.17399   22.84193   5.44307 
 C                     11.41067   22.85789   6.00073 
 C                     10.12371   22.0015   13.50161 
 C                     10.10953   23.44152   13.54104 
 Cl                    13.82575   26.76298   8.34711 
 Cl                    13.19931   24.87313   5.37254 
 Cl                    9.6677    24.93724   3.69977 
 Cl                    6.76142   26.97744   5.5122 
 Cl                    14.7112   24.84618   11.92158 
 Cl                    14.86305   21.02165   11.92819 
 Cl                    7.57435   28.82149   8.73237 
 Cl                    11.08028   28.79594   10.03075 
 
 ITRead=  0  0  0  0  0  0  0  0  0  0  0  0  0  0  0  0  0  0  0  0
 ITRead=  0  0  0  0  0  0  0  0  0  0  0  0  0  0  0  0  0  0  0  0
 ITRead=  0  0  0  0  0  0  0  0  0  0  0  0  0  0  0  0  0  0  0  0
 ITRead=  0  0  0  0  0  0  0  0  0  0  0  0  0  0  0  0  0  0  0  0
 ITRead=  0  0  0  0  0  0  0  0  0  0  0  0
 MicOpt= -1 -1 -1 -1 -1 -1 -1 -1 -1 -1 -1 -1 -1 -1 -1 -1 -1 -1 -1 -1
 MicOpt= -1 -1 -1 -1 -1 -1 -1 -1 -1 -1 -1 -1 -1 -1 -1 -1 -1 -1 -1 -1
 MicOpt= -1 -1 -1 -1 -1 -1 -1 -1 -1 -1 -1 -1 -1 -1 -1 -1 -1 -1 -1 -1
 MicOpt= -1 -1 -1 -1 -1 -1 -1 -1 -1 -1 -1 -1 -1 -1 -1 -1 -1 -1 -1 -1
 MicOpt= -1 -1 -1 -1 -1 -1 -1 -1 -1 -1 -1 -1
 NAtoms=     92 NQM=       92 NQMF=       0 NMMI=      0 NMMIF=      0
                NMic=       0 NMicF=      0.
                    Isotopes and Nuclear Properties:
 (Nuclear quadrupole moments (NQMom) in fm**2, nuclear magnetic moments (NMagM)
  in nuclear magnetons)

  Atom         1           2           3           4           5           6           7           8           9          10
 IAtWgt=          12          12          12          12          12          12          12          12          12          12
 AtmWgt=  12.0000000  12.0000000  12.0000000  12.0000000  12.0000000  12.0000000  12.0000000  12.0000000  12.0000000  12.0000000
 NucSpn=           0           0           0           0           0           0           0           0           0           0
 AtZEff=  -0.0000000  -0.0000000  -0.0000000  -0.0000000  -0.0000000  -0.0000000  -0.0000000  -0.0000000  -0.0000000  -0.0000000
 NQMom=    0.0000000   0.0000000   0.0000000   0.0000000   0.0000000   0.0000000   0.0000000   0.0000000   0.0000000   0.0000000
 NMagM=    0.0000000   0.0000000   0.0000000   0.0000000   0.0000000   0.0000000   0.0000000   0.0000000   0.0000000   0.0000000
 AtZNuc=   6.0000000   6.0000000   6.0000000   6.0000000   6.0000000   6.0000000   6.0000000   6.0000000   6.0000000   6.0000000

  Atom        11          12          13          14          15          16          17          18          19          20
 IAtWgt=          12          12          12          12          12          12          12          12          12          12
 AtmWgt=  12.0000000  12.0000000  12.0000000  12.0000000  12.0000000  12.0000000  12.0000000  12.0000000  12.0000000  12.0000000
 NucSpn=           0           0           0           0           0           0           0           0           0           0
 AtZEff=  -0.0000000  -0.0000000  -0.0000000  -0.0000000  -0.0000000  -0.0000000  -0.0000000  -0.0000000  -0.0000000  -0.0000000
 NQMom=    0.0000000   0.0000000   0.0000000   0.0000000   0.0000000   0.0000000   0.0000000   0.0000000   0.0000000   0.0000000
 NMagM=    0.0000000   0.0000000   0.0000000   0.0000000   0.0000000   0.0000000   0.0000000   0.0000000   0.0000000   0.0000000
 AtZNuc=   6.0000000   6.0000000   6.0000000   6.0000000   6.0000000   6.0000000   6.0000000   6.0000000   6.0000000   6.0000000

  Atom        21          22          23          24          25          26          27          28          29          30
 IAtWgt=          12          12          12          12          12          12          12          12          12          12
 AtmWgt=  12.0000000  12.0000000  12.0000000  12.0000000  12.0000000  12.0000000  12.0000000  12.0000000  12.0000000  12.0000000
 NucSpn=           0           0           0           0           0           0           0           0           0           0
 AtZEff=  -0.0000000  -0.0000000  -0.0000000  -0.0000000  -0.0000000  -0.0000000  -0.0000000  -0.0000000  -0.0000000  -0.0000000
 NQMom=    0.0000000   0.0000000   0.0000000   0.0000000   0.0000000   0.0000000   0.0000000   0.0000000   0.0000000   0.0000000
 NMagM=    0.0000000   0.0000000   0.0000000   0.0000000   0.0000000   0.0000000   0.0000000   0.0000000   0.0000000   0.0000000
 AtZNuc=   6.0000000   6.0000000   6.0000000   6.0000000   6.0000000   6.0000000   6.0000000   6.0000000   6.0000000   6.0000000

  Atom        31          32          33          34          35          36          37          38          39          40
 IAtWgt=          12          12          12          12          12          12          12          12          12          12
 AtmWgt=  12.0000000  12.0000000  12.0000000  12.0000000  12.0000000  12.0000000  12.0000000  12.0000000  12.0000000  12.0000000
 NucSpn=           0           0           0           0           0           0           0           0           0           0
 AtZEff=  -0.0000000  -0.0000000  -0.0000000  -0.0000000  -0.0000000  -0.0000000  -0.0000000  -0.0000000  -0.0000000  -0.0000000
 NQMom=    0.0000000   0.0000000   0.0000000   0.0000000   0.0000000   0.0000000   0.0000000   0.0000000   0.0000000   0.0000000
 NMagM=    0.0000000   0.0000000   0.0000000   0.0000000   0.0000000   0.0000000   0.0000000   0.0000000   0.0000000   0.0000000
 AtZNuc=   6.0000000   6.0000000   6.0000000   6.0000000   6.0000000   6.0000000   6.0000000   6.0000000   6.0000000   6.0000000

  Atom        41          42          43          44          45          46          47          48          49          50
 IAtWgt=          12          12          12          12          12          12          12          12          12          12
 AtmWgt=  12.0000000  12.0000000  12.0000000  12.0000000  12.0000000  12.0000000  12.0000000  12.0000000  12.0000000  12.0000000
 NucSpn=           0           0           0           0           0           0           0           0           0           0
 AtZEff=  -0.0000000  -0.0000000  -0.0000000  -0.0000000  -0.0000000  -0.0000000  -0.0000000  -0.0000000  -0.0000000  -0.0000000
 NQMom=    0.0000000   0.0000000   0.0000000   0.0000000   0.0000000   0.0000000   0.0000000   0.0000000   0.0000000   0.0000000
 NMagM=    0.0000000   0.0000000   0.0000000   0.0000000   0.0000000   0.0000000   0.0000000   0.0000000   0.0000000   0.0000000
 AtZNuc=   6.0000000   6.0000000   6.0000000   6.0000000   6.0000000   6.0000000   6.0000000   6.0000000   6.0000000   6.0000000

  Atom        51          52          53          54          55          56          57          58          59          60
 IAtWgt=          12          12          12          12          12          12          12          12          12          12
 AtmWgt=  12.0000000  12.0000000  12.0000000  12.0000000  12.0000000  12.0000000  12.0000000  12.0000000  12.0000000  12.0000000
 NucSpn=           0           0           0           0           0           0           0           0           0           0
 AtZEff=  -0.0000000  -0.0000000  -0.0000000  -0.0000000  -0.0000000  -0.0000000  -0.0000000  -0.0000000  -0.0000000  -0.0000000
 NQMom=    0.0000000   0.0000000   0.0000000   0.0000000   0.0000000   0.0000000   0.0000000   0.0000000   0.0000000   0.0000000
 NMagM=    0.0000000   0.0000000   0.0000000   0.0000000   0.0000000   0.0000000   0.0000000   0.0000000   0.0000000   0.0000000
 AtZNuc=   6.0000000   6.0000000   6.0000000   6.0000000   6.0000000   6.0000000   6.0000000   6.0000000   6.0000000   6.0000000

  Atom        61          62          63          64          65          66          67          68          69          70
 IAtWgt=          12          12          12          12          12          12          12          12          12          12
 AtmWgt=  12.0000000  12.0000000  12.0000000  12.0000000  12.0000000  12.0000000  12.0000000  12.0000000  12.0000000  12.0000000
 NucSpn=           0           0           0           0           0           0           0           0           0           0
 AtZEff=  -0.0000000  -0.0000000  -0.0000000  -0.0000000  -0.0000000  -0.0000000  -0.0000000  -0.0000000  -0.0000000  -0.0000000
 NQMom=    0.0000000   0.0000000   0.0000000   0.0000000   0.0000000   0.0000000   0.0000000   0.0000000   0.0000000   0.0000000
 NMagM=    0.0000000   0.0000000   0.0000000   0.0000000   0.0000000   0.0000000   0.0000000   0.0000000   0.0000000   0.0000000
 AtZNuc=   6.0000000   6.0000000   6.0000000   6.0000000   6.0000000   6.0000000   6.0000000   6.0000000   6.0000000   6.0000000

  Atom        71          72          73          74          75          76          77          78          79          80
 IAtWgt=          12          12          12          12          12          12          12          12          12          12
 AtmWgt=  12.0000000  12.0000000  12.0000000  12.0000000  12.0000000  12.0000000  12.0000000  12.0000000  12.0000000  12.0000000
 NucSpn=           0           0           0           0           0           0           0           0           0           0
 AtZEff=  -0.0000000  -0.0000000  -0.0000000  -0.0000000  -0.0000000  -0.0000000  -0.0000000  -0.0000000  -0.0000000  -0.0000000
 NQMom=    0.0000000   0.0000000   0.0000000   0.0000000   0.0000000   0.0000000   0.0000000   0.0000000   0.0000000   0.0000000
 NMagM=    0.0000000   0.0000000   0.0000000   0.0000000   0.0000000   0.0000000   0.0000000   0.0000000   0.0000000   0.0000000
 AtZNuc=   6.0000000   6.0000000   6.0000000   6.0000000   6.0000000   6.0000000   6.0000000   6.0000000   6.0000000   6.0000000

  Atom        81          82          83          84          85          86          87          88          89          90
 IAtWgt=          12          12          12          12          35          35          35          35          35          35
 AtmWgt=  12.0000000  12.0000000  12.0000000  12.0000000  34.9688527  34.9688527  34.9688527  34.9688527  34.9688527  34.9688527
 NucSpn=           0           0           0           0           3           3           3           3           3           3
 AtZEff=  -0.0000000  -0.0000000  -0.0000000  -0.0000000  -0.0000000  -0.0000000  -0.0000000  -0.0000000  -0.0000000  -0.0000000
 NQMom=    0.0000000   0.0000000   0.0000000   0.0000000  -8.1650000  -8.1650000  -8.1650000  -8.1650000  -8.1650000  -8.1650000
 NMagM=    0.0000000   0.0000000   0.0000000   0.0000000   0.8218740   0.8218740   0.8218740   0.8218740   0.8218740   0.8218740
 AtZNuc=   6.0000000   6.0000000   6.0000000   6.0000000  17.0000000  17.0000000  17.0000000  17.0000000  17.0000000  17.0000000

  Atom        91          92
 IAtWgt=          35          35
 AtmWgt=  34.9688527  34.9688527
 NucSpn=           3           3
 AtZEff=  -0.0000000  -0.0000000
 NQMom=   -8.1650000  -8.1650000
 NMagM=    0.8218740   0.8218740
 AtZNuc=  17.0000000  17.0000000
 Leave Link  101 at Tue Jun 28 03:45:54 2022, MaxMem=  1342177280 cpu:               6.6 elap:               0.3
 (Enter /home/mkliu/g16/l103.exe)

 GradGradGradGradGradGradGradGradGradGradGradGradGradGradGradGradGradGrad
 Berny optimization.
 Initialization pass.
                           ----------------------------
                           !    Initial Parameters    !
                           ! (Angstroms and Degrees)  !
 --------------------------                            --------------------------
 ! Name  Definition              Value          Derivative Info.                !
 --------------------------------------------------------------------------------
 ! R1    R(1,5)                  1.4094         estimate D2E/DX2                !
 ! R2    R(1,17)                 1.422          estimate D2E/DX2                !
 ! R3    R(1,23)                 1.4436         estimate D2E/DX2                !
 ! R4    R(2,6)                  1.4428         estimate D2E/DX2                !
 ! R5    R(2,43)                 1.4073         estimate D2E/DX2                !
 ! R6    R(2,44)                 1.4202         estimate D2E/DX2                !
 ! R7    R(3,7)                  1.5147         estimate D2E/DX2                !
 ! R8    R(3,18)                 1.3713         estimate D2E/DX2                !
 ! R9    R(3,26)                 1.4255         estimate D2E/DX2                !
 ! R10   R(4,8)                  1.498          estimate D2E/DX2                !
 ! R11   R(4,45)                 1.5094         estimate D2E/DX2                !
 ! R12   R(4,46)                 1.5108         estimate D2E/DX2                !
 ! R13   R(4,85)                 1.8058         estimate D2E/DX2                !
 ! R14   R(5,9)                  1.4522         estimate D2E/DX2                !
 ! R15   R(5,29)                 1.4437         estimate D2E/DX2                !
 ! R16   R(6,10)                 1.3671         estimate D2E/DX2                !
 ! R17   R(6,15)                 1.4375         estimate D2E/DX2                !
 ! R18   R(7,12)                 1.5089         estimate D2E/DX2                !
 ! R19   R(7,30)                 1.502          estimate D2E/DX2                !
 ! R20   R(7,91)                 1.8011         estimate D2E/DX2                !
 ! R21   R(8,11)                 1.3359         estimate D2E/DX2                !
 ! R22   R(8,16)                 1.5042         estimate D2E/DX2                !
 ! R23   R(9,13)                 1.4001         estimate D2E/DX2                !
 ! R24   R(9,35)                 1.455          estimate D2E/DX2                !
 ! R25   R(10,49)                1.5075         estimate D2E/DX2                !
 ! R26   R(10,53)                1.4274         estimate D2E/DX2                !
 ! R27   R(11,50)                1.5068         estimate D2E/DX2                !
 ! R28   R(11,54)                1.4454         estimate D2E/DX2                !
 ! R29   R(12,14)                1.3829         estimate D2E/DX2                !
 ! R30   R(12,36)                1.4053         estimate D2E/DX2                !
 ! R31   R(13,15)                1.4265         estimate D2E/DX2                !
 ! R32   R(13,43)                1.4426         estimate D2E/DX2                !
 ! R33   R(14,16)                1.5045         estimate D2E/DX2                !
 ! R34   R(14,46)                1.3876         estimate D2E/DX2                !
 ! R35   R(15,17)                1.3812         estimate D2E/DX2                !
 ! R36   R(16,18)                1.5026         estimate D2E/DX2                !
 ! R37   R(16,92)                1.8158         estimate D2E/DX2                !
 ! R38   R(17,19)                1.4391         estimate D2E/DX2                !
 ! R39   R(18,20)                1.4373         estimate D2E/DX2                !
 ! R40   R(19,21)                1.4238         estimate D2E/DX2                !
 ! R41   R(19,53)                1.3869         estimate D2E/DX2                !
 ! R42   R(20,22)                1.4094         estimate D2E/DX2                !
 ! R43   R(20,54)                1.4085         estimate D2E/DX2                !
 ! R44   R(21,23)                1.4423         estimate D2E/DX2                !
 ! R45   R(21,57)                1.4079         estimate D2E/DX2                !
 ! R46   R(22,24)                1.4233         estimate D2E/DX2                !
 ! R47   R(22,58)                1.4224         estimate D2E/DX2                !
 ! R48   R(23,25)                1.3665         estimate D2E/DX2                !
 ! R49   R(24,26)                1.3728         estimate D2E/DX2                !
 ! R50   R(24,62)                1.4328         estimate D2E/DX2                !
 ! R51   R(25,27)                1.4293         estimate D2E/DX2                !
 ! R52   R(25,61)                1.4327         estimate D2E/DX2                !
 ! R53   R(26,28)                1.435          estimate D2E/DX2                !
 ! R54   R(27,29)                1.4124         estimate D2E/DX2                !
 ! R55   R(27,65)                1.4205         estimate D2E/DX2                !
 ! R56   R(28,30)                1.4112         estimate D2E/DX2                !
 ! R57   R(28,66)                1.4109         estimate D2E/DX2                !
 ! R58   R(29,31)                1.4014         estimate D2E/DX2                !
 ! R59   R(30,32)                1.3598         estimate D2E/DX2                !
 ! R60   R(31,33)                1.4405         estimate D2E/DX2                !
 ! R61   R(31,69)                1.4212         estimate D2E/DX2                !
 ! R62   R(32,34)                1.5066         estimate D2E/DX2                !
 ! R63   R(32,70)                1.4135         estimate D2E/DX2                !
 ! R64   R(33,35)                1.3969         estimate D2E/DX2                !
 ! R65   R(33,73)                1.429          estimate D2E/DX2                !
 ! R66   R(34,36)                1.5211         estimate D2E/DX2                !
 ! R67   R(34,74)                1.5018         estimate D2E/DX2                !
 ! R68   R(34,88)                1.8008         estimate D2E/DX2                !
 ! R69   R(35,37)                1.4505         estimate D2E/DX2                !
 ! R70   R(36,38)                1.4035         estimate D2E/DX2                !
 ! R71   R(37,39)                1.4298         estimate D2E/DX2                !
 ! R72   R(37,77)                1.413          estimate D2E/DX2                !
 ! R73   R(38,42)                1.4047         estimate D2E/DX2                !
 ! R74   R(38,78)                1.5233         estimate D2E/DX2                !
 ! R75   R(39,43)                1.4094         estimate D2E/DX2                !
 ! R76   R(39,79)                1.4058         estimate D2E/DX2                !
 ! R77   R(40,41)                1.4061         estimate D2E/DX2                !
 ! R78   R(40,44)                1.4035         estimate D2E/DX2                !
 ! R79   R(40,79)                1.428          estimate D2E/DX2                !
 ! R80   R(41,45)                1.3749         estimate D2E/DX2                !
 ! R81   R(41,80)                1.5158         estimate D2E/DX2                !
 ! R82   R(42,46)                1.3828         estimate D2E/DX2                !
 ! R83   R(42,80)                1.5047         estimate D2E/DX2                !
 ! R84   R(44,47)                1.4248         estimate D2E/DX2                !
 ! R85   R(45,48)                1.4205         estimate D2E/DX2                !
 ! R86   R(47,48)                1.3929         estimate D2E/DX2                !
 ! R87   R(47,49)                1.5204         estimate D2E/DX2                !
 ! R88   R(48,50)                1.5161         estimate D2E/DX2                !
 ! R89   R(49,51)                1.503          estimate D2E/DX2                !
 ! R90   R(49,90)                1.8112         estimate D2E/DX2                !
 ! R91   R(50,52)                1.4988         estimate D2E/DX2                !
 ! R92   R(50,89)                1.8041         estimate D2E/DX2                !
 ! R93   R(51,52)                1.3491         estimate D2E/DX2                !
 ! R94   R(51,55)                1.4308         estimate D2E/DX2                !
 ! R95   R(52,56)                1.4253         estimate D2E/DX2                !
 ! R96   R(53,55)                1.4236         estimate D2E/DX2                !
 ! R97   R(54,56)                1.4081         estimate D2E/DX2                !
 ! R98   R(55,83)                1.4079         estimate D2E/DX2                !
 ! R99   R(56,84)                1.4236         estimate D2E/DX2                !
 ! R100  R(57,59)                1.4502         estimate D2E/DX2                !
 ! R101  R(57,83)                1.4486         estimate D2E/DX2                !
 ! R102  R(58,60)                1.4384         estimate D2E/DX2                !
 ! R103  R(58,84)                1.3978         estimate D2E/DX2                !
 ! R104  R(59,60)                1.4045         estimate D2E/DX2                !
 ! R105  R(59,61)                1.4132         estimate D2E/DX2                !
 ! R106  R(60,62)                1.4207         estimate D2E/DX2                !
 ! R107  R(61,63)                1.4203         estimate D2E/DX2                !
 ! R108  R(62,64)                1.4132         estimate D2E/DX2                !
 ! R109  R(63,64)                1.4039         estimate D2E/DX2                !
 ! R110  R(63,65)                1.4398         estimate D2E/DX2                !
 ! R111  R(64,66)                1.4485         estimate D2E/DX2                !
 ! R112  R(65,67)                1.4021         estimate D2E/DX2                !
 ! R113  R(66,68)                1.437          estimate D2E/DX2                !
 ! R114  R(67,68)                1.4484         estimate D2E/DX2                !
 ! R115  R(67,69)                1.4153         estimate D2E/DX2                !
 ! R116  R(68,70)                1.4117         estimate D2E/DX2                !
 ! R117  R(69,71)                1.432          estimate D2E/DX2                !
 ! R118  R(70,72)                1.4365         estimate D2E/DX2                !
 ! R119  R(71,72)                1.3802         estimate D2E/DX2                !
 ! R120  R(71,73)                1.4249         estimate D2E/DX2                !
 ! R121  R(72,74)                1.4274         estimate D2E/DX2                !
 ! R122  R(73,75)                1.3839         estimate D2E/DX2                !
 ! R123  R(74,76)                1.3622         estimate D2E/DX2                !
 ! R124  R(75,76)                1.4269         estimate D2E/DX2                !
 ! R125  R(75,77)                1.4224         estimate D2E/DX2                !
 ! R126  R(76,78)                1.5024         estimate D2E/DX2                !
 ! R127  R(77,81)                1.425          estimate D2E/DX2                !
 ! R128  R(78,81)                1.5089         estimate D2E/DX2                !
 ! R129  R(78,87)                1.8009         estimate D2E/DX2                !
 ! R130  R(79,82)                1.4144         estimate D2E/DX2                !
 ! R131  R(80,82)                1.4993         estimate D2E/DX2                !
 ! R132  R(80,86)                1.7984         estimate D2E/DX2                !
 ! R133  R(81,82)                1.3567         estimate D2E/DX2                !
 ! R134  R(83,84)                1.4406         estimate D2E/DX2                !
 ! A1    A(5,1,17)             122.12           estimate D2E/DX2                !
 ! A2    A(5,1,23)             121.1643         estimate D2E/DX2                !
 ! A3    A(17,1,23)            106.1144         estimate D2E/DX2                !
 ! A4    A(6,2,43)             107.8773         estimate D2E/DX2                !
 ! A5    A(6,2,44)             119.8263         estimate D2E/DX2                !
 ! A6    A(43,2,44)            120.4578         estimate D2E/DX2                !
 ! A7    A(7,3,18)             125.2291         estimate D2E/DX2                !
 ! A8    A(7,3,26)             108.4401         estimate D2E/DX2                !
 ! A9    A(18,3,26)            120.5236         estimate D2E/DX2                !
 ! A10   A(8,4,45)             112.5411         estimate D2E/DX2                !
 ! A11   A(8,4,46)             100.1636         estimate D2E/DX2                !
 ! A12   A(8,4,85)             113.299          estimate D2E/DX2                !
 ! A13   A(45,4,46)            108.5435         estimate D2E/DX2                !
 ! A14   A(45,4,85)            110.1266         estimate D2E/DX2                !
 ! A15   A(46,4,85)            111.741          estimate D2E/DX2                !
 ! A16   A(1,5,9)              118.4918         estimate D2E/DX2                !
 ! A17   A(1,5,29)             116.8885         estimate D2E/DX2                !
 ! A18   A(9,5,29)             119.0779         estimate D2E/DX2                !
 ! A19   A(2,6,10)             119.9901         estimate D2E/DX2                !
 ! A20   A(2,6,15)             107.361          estimate D2E/DX2                !
 ! A21   A(10,6,15)            120.8822         estimate D2E/DX2                !
 ! A22   A(3,7,12)             110.0293         estimate D2E/DX2                !
 ! A23   A(3,7,30)             101.6313         estimate D2E/DX2                !
 ! A24   A(3,7,91)             112.4612         estimate D2E/DX2                !
 ! A25   A(12,7,30)            108.6867         estimate D2E/DX2                !
 ! A26   A(12,7,91)            110.0146         estimate D2E/DX2                !
 ! A27   A(30,7,91)            113.6962         estimate D2E/DX2                !
 ! A28   A(4,8,11)             121.2505         estimate D2E/DX2                !
 ! A29   A(4,8,16)             111.6363         estimate D2E/DX2                !
 ! A30   A(11,8,16)            122.0419         estimate D2E/DX2                !
 ! A31   A(5,9,13)             117.8854         estimate D2E/DX2                !
 ! A32   A(5,9,35)             120.6396         estimate D2E/DX2                !
 ! A33   A(13,9,35)            117.425          estimate D2E/DX2                !
 ! A34   A(6,10,49)            122.7294         estimate D2E/DX2                !
 ! A35   A(6,10,53)            118.8551         estimate D2E/DX2                !
 ! A36   A(49,10,53)           110.129          estimate D2E/DX2                !
 ! A37   A(8,11,50)            123.6749         estimate D2E/DX2                !
 ! A38   A(8,11,54)            121.0525         estimate D2E/DX2                !
 ! A39   A(50,11,54)           110.264          estimate D2E/DX2                !
 ! A40   A(7,12,14)            116.4544         estimate D2E/DX2                !
 ! A41   A(7,12,36)            123.3768         estimate D2E/DX2                !
 ! A42   A(14,12,36)           119.1029         estimate D2E/DX2                !
 ! A43   A(9,13,15)            122.6767         estimate D2E/DX2                !
 ! A44   A(9,13,43)            121.1944         estimate D2E/DX2                !
 ! A45   A(15,13,43)           106.8795         estimate D2E/DX2                !
 ! A46   A(12,14,16)           125.7274         estimate D2E/DX2                !
 ! A47   A(12,14,46)           121.0095         estimate D2E/DX2                !
 ! A48   A(16,14,46)           111.1028         estimate D2E/DX2                !
 ! A49   A(6,15,13)            108.5243         estimate D2E/DX2                !
 ! A50   A(6,15,17)            120.33           estimate D2E/DX2                !
 ! A51   A(13,15,17)           119.3292         estimate D2E/DX2                !
 ! A52   A(8,16,14)            100.4373         estimate D2E/DX2                !
 ! A53   A(8,16,18)            114.536          estimate D2E/DX2                !
 ! A54   A(8,16,92)            111.0595         estimate D2E/DX2                !
 ! A55   A(14,16,18)           109.6168         estimate D2E/DX2                !
 ! A56   A(14,16,92)           110.8742         estimate D2E/DX2                !
 ! A57   A(18,16,92)           109.9744         estimate D2E/DX2                !
 ! A58   A(1,17,15)            119.4537         estimate D2E/DX2                !
 ! A59   A(1,17,19)            108.8338         estimate D2E/DX2                !
 ! A60   A(15,17,19)           119.0177         estimate D2E/DX2                !
 ! A61   A(3,18,16)            117.2586         estimate D2E/DX2                !
 ! A62   A(3,18,20)            119.6882         estimate D2E/DX2                !
 ! A63   A(16,18,20)           119.8291         estimate D2E/DX2                !
 ! A64   A(17,19,21)           108.6999         estimate D2E/DX2                !
 ! A65   A(17,19,53)           119.61           estimate D2E/DX2                !
 ! A66   A(21,19,53)           119.7706         estimate D2E/DX2                !
 ! A67   A(18,20,22)           119.2229         estimate D2E/DX2                !
 ! A68   A(18,20,54)           119.5264         estimate D2E/DX2                !
 ! A69   A(22,20,54)           115.2674         estimate D2E/DX2                !
 ! A70   A(19,21,23)           106.1433         estimate D2E/DX2                !
 ! A71   A(19,21,57)           122.1789         estimate D2E/DX2                !
 ! A72   A(23,21,57)           121.3332         estimate D2E/DX2                !
 ! A73   A(20,22,24)           120.087          estimate D2E/DX2                !
 ! A74   A(20,22,58)           122.4807         estimate D2E/DX2                !
 ! A75   A(24,22,58)           106.9556         estimate D2E/DX2                !
 ! A76   A(1,23,21)            109.3505         estimate D2E/DX2                !
 ! A77   A(1,23,25)            120.0979         estimate D2E/DX2                !
 ! A78   A(21,23,25)           119.9908         estimate D2E/DX2                !
 ! A79   A(22,24,26)           119.6063         estimate D2E/DX2                !
 ! A80   A(22,24,62)           109.4912         estimate D2E/DX2                !
 ! A81   A(26,24,62)           119.8614         estimate D2E/DX2                !
 ! A82   A(23,25,27)           119.9032         estimate D2E/DX2                !
 ! A83   A(23,25,61)           120.153          estimate D2E/DX2                !
 ! A84   A(27,25,61)           109.5071         estimate D2E/DX2                !
 ! A85   A(3,26,24)            120.7332         estimate D2E/DX2                !
 ! A86   A(3,26,28)            109.9078         estimate D2E/DX2                !
 ! A87   A(24,26,28)           120.1676         estimate D2E/DX2                !
 ! A88   A(25,27,29)           120.2778         estimate D2E/DX2                !
 ! A89   A(25,27,65)           106.8323         estimate D2E/DX2                !
 ! A90   A(29,27,65)           121.6858         estimate D2E/DX2                !
 ! A91   A(26,28,30)           106.907          estimate D2E/DX2                !
 ! A92   A(26,28,66)           121.67           estimate D2E/DX2                !
 ! A93   A(30,28,66)           123.1041         estimate D2E/DX2                !
 ! A94   A(5,29,27)            120.414          estimate D2E/DX2                !
 ! A95   A(5,29,31)            118.8276         estimate D2E/DX2                !
 ! A96   A(27,29,31)           115.1278         estimate D2E/DX2                !
 ! A97   A(7,30,28)            111.7774         estimate D2E/DX2                !
 ! A98   A(7,30,32)            122.0296         estimate D2E/DX2                !
 ! A99   A(28,30,32)           119.4622         estimate D2E/DX2                !
 ! A100  A(29,31,33)           121.3047         estimate D2E/DX2                !
 ! A101  A(29,31,69)           122.0617         estimate D2E/DX2                !
 ! A102  A(33,31,69)           108.5599         estimate D2E/DX2                !
 ! A103  A(30,32,34)           122.5448         estimate D2E/DX2                !
 ! A104  A(30,32,70)           119.1489         estimate D2E/DX2                !
 ! A105  A(34,32,70)           111.9221         estimate D2E/DX2                !
 ! A106  A(31,33,35)           121.099          estimate D2E/DX2                !
 ! A107  A(31,33,73)           107.0543         estimate D2E/DX2                !
 ! A108  A(35,33,73)           122.2524         estimate D2E/DX2                !
 ! A109  A(32,34,36)           108.6972         estimate D2E/DX2                !
 ! A110  A(32,34,74)           101.257          estimate D2E/DX2                !
 ! A111  A(32,34,88)           113.5877         estimate D2E/DX2                !
 ! A112  A(36,34,74)           110.7595         estimate D2E/DX2                !
 ! A113  A(36,34,88)           108.8066         estimate D2E/DX2                !
 ! A114  A(74,34,88)           113.509          estimate D2E/DX2                !
 ! A115  A(9,35,33)            117.5493         estimate D2E/DX2                !
 ! A116  A(9,35,37)            120.672          estimate D2E/DX2                !
 ! A117  A(33,35,37)           117.6119         estimate D2E/DX2                !
 ! A118  A(12,36,34)           118.5799         estimate D2E/DX2                !
 ! A119  A(12,36,38)           119.9895         estimate D2E/DX2                !
 ! A120  A(34,36,38)           120.8815         estimate D2E/DX2                !
 ! A121  A(35,37,39)           119.2894         estimate D2E/DX2                !
 ! A122  A(35,37,77)           119.2862         estimate D2E/DX2                !
 ! A123  A(39,37,77)           115.8751         estimate D2E/DX2                !
 ! A124  A(36,38,42)           119.8071         estimate D2E/DX2                !
 ! A125  A(36,38,78)           120.9296         estimate D2E/DX2                !
 ! A126  A(42,38,78)           118.7421         estimate D2E/DX2                !
 ! A127  A(37,39,43)           119.2924         estimate D2E/DX2                !
 ! A128  A(37,39,79)           119.6577         estimate D2E/DX2                !
 ! A129  A(43,39,79)           115.6717         estimate D2E/DX2                !
 ! A130  A(41,40,44)           121.73           estimate D2E/DX2                !
 ! A131  A(41,40,79)           109.2252         estimate D2E/DX2                !
 ! A132  A(44,40,79)           122.5777         estimate D2E/DX2                !
 ! A133  A(40,41,45)           119.9773         estimate D2E/DX2                !
 ! A134  A(40,41,80)           109.6324         estimate D2E/DX2                !
 ! A135  A(45,41,80)           125.7928         estimate D2E/DX2                !
 ! A136  A(38,42,46)           119.4233         estimate D2E/DX2                !
 ! A137  A(38,42,80)           123.4947         estimate D2E/DX2                !
 ! A138  A(46,42,80)           115.895          estimate D2E/DX2                !
 ! A139  A(2,43,13)            109.0913         estimate D2E/DX2                !
 ! A140  A(2,43,39)            122.6822         estimate D2E/DX2                !
 ! A141  A(13,43,39)           120.6939         estimate D2E/DX2                !
 ! A142  A(2,44,40)            115.1364         estimate D2E/DX2                !
 ! A143  A(2,44,47)            121.831          estimate D2E/DX2                !
 ! A144  A(40,44,47)           118.0582         estimate D2E/DX2                !
 ! A145  A(4,45,41)            115.8008         estimate D2E/DX2                !
 ! A146  A(4,45,48)            123.1483         estimate D2E/DX2                !
 ! A147  A(41,45,48)           119.233          estimate D2E/DX2                !
 ! A148  A(4,46,14)            111.5203         estimate D2E/DX2                !
 ! A149  A(4,46,42)            125.6753         estimate D2E/DX2                !
 ! A150  A(14,46,42)           120.6097         estimate D2E/DX2                !
 ! A151  A(44,47,48)           119.5605         estimate D2E/DX2                !
 ! A152  A(44,47,49)           117.9312         estimate D2E/DX2                !
 ! A153  A(48,47,49)           121.1593         estimate D2E/DX2                !
 ! A154  A(45,48,47)           121.2146         estimate D2E/DX2                !
 ! A155  A(45,48,50)           117.6125         estimate D2E/DX2                !
 ! A156  A(47,48,50)           120.2926         estimate D2E/DX2                !
 ! A157  A(10,49,47)           112.7001         estimate D2E/DX2                !
 ! A158  A(10,49,51)           101.0797         estimate D2E/DX2                !
 ! A159  A(10,49,90)           111.4739         estimate D2E/DX2                !
 ! A160  A(47,49,51)           110.0263         estimate D2E/DX2                !
 ! A161  A(47,49,90)           108.5419         estimate D2E/DX2                !
 ! A162  A(51,49,90)           112.9454         estimate D2E/DX2                !
 ! A163  A(11,50,48)           111.2764         estimate D2E/DX2                !
 ! A164  A(11,50,52)           100.9522         estimate D2E/DX2                !
 ! A165  A(11,50,89)           111.8841         estimate D2E/DX2                !
 ! A166  A(48,50,52)           110.1067         estimate D2E/DX2                !
 ! A167  A(48,50,89)           109.1514         estimate D2E/DX2                !
 ! A168  A(52,50,89)           113.2958         estimate D2E/DX2                !
 ! A169  A(49,51,52)           121.3908         estimate D2E/DX2                !
 ! A170  A(49,51,55)           111.5429         estimate D2E/DX2                !
 ! A171  A(52,51,55)           120.4849         estimate D2E/DX2                !
 ! A172  A(50,52,51)           122.821          estimate D2E/DX2                !
 ! A173  A(50,52,56)           111.4331         estimate D2E/DX2                !
 ! A174  A(51,52,56)           119.2991         estimate D2E/DX2                !
 ! A175  A(10,53,19)           121.1447         estimate D2E/DX2                !
 ! A176  A(10,53,55)           109.2106         estimate D2E/DX2                !
 ! A177  A(19,53,55)           119.1086         estimate D2E/DX2                !
 ! A178  A(11,54,20)           121.1892         estimate D2E/DX2                !
 ! A179  A(11,54,56)           108.3215         estimate D2E/DX2                !
 ! A180  A(20,54,56)           121.6769         estimate D2E/DX2                !
 ! A181  A(51,55,53)           107.2779         estimate D2E/DX2                !
 ! A182  A(51,55,83)           122.6397         estimate D2E/DX2                !
 ! A183  A(53,55,83)           122.09           estimate D2E/DX2                !
 ! A184  A(52,56,54)           108.5806         estimate D2E/DX2                !
 ! A185  A(52,56,84)           121.2002         estimate D2E/DX2                !
 ! A186  A(54,56,84)           122.5219         estimate D2E/DX2                !
 ! A187  A(21,57,59)           117.3597         estimate D2E/DX2                !
 ! A188  A(21,57,83)           117.9511         estimate D2E/DX2                !
 ! A189  A(59,57,83)           119.2548         estimate D2E/DX2                !
 ! A190  A(22,58,60)           108.3679         estimate D2E/DX2                !
 ! A191  A(22,58,84)           121.627          estimate D2E/DX2                !
 ! A192  A(60,58,84)           120.9471         estimate D2E/DX2                !
 ! A193  A(57,59,60)           119.3749         estimate D2E/DX2                !
 ! A194  A(57,59,61)           120.022          estimate D2E/DX2                !
 ! A195  A(60,59,61)           114.7031         estimate D2E/DX2                !
 ! A196  A(58,60,59)           120.7802         estimate D2E/DX2                !
 ! A197  A(58,60,62)           108.2778         estimate D2E/DX2                !
 ! A198  A(59,60,62)           122.198          estimate D2E/DX2                !
 ! A199  A(25,61,59)           120.3467         estimate D2E/DX2                !
 ! A200  A(25,61,63)           106.6283         estimate D2E/DX2                !
 ! A201  A(59,61,63)           122.2967         estimate D2E/DX2                !
 ! A202  A(24,62,60)           106.8037         estimate D2E/DX2                !
 ! A203  A(24,62,64)           120.4767         estimate D2E/DX2                !
 ! A204  A(60,62,64)           122.1884         estimate D2E/DX2                !
 ! A205  A(61,63,64)           122.1253         estimate D2E/DX2                !
 ! A206  A(61,63,65)           108.5281         estimate D2E/DX2                !
 ! A207  A(64,63,65)           120.6792         estimate D2E/DX2                !
 ! A208  A(62,64,63)           114.8112         estimate D2E/DX2                !
 ! A209  A(62,64,66)           120.1849         estimate D2E/DX2                !
 ! A210  A(63,64,66)           118.9434         estimate D2E/DX2                !
 ! A211  A(27,65,63)           108.3043         estimate D2E/DX2                !
 ! A212  A(27,65,67)           122.0343         estimate D2E/DX2                !
 ! A213  A(63,65,67)           121.3396         estimate D2E/DX2                !
 ! A214  A(28,66,64)           117.2902         estimate D2E/DX2                !
 ! A215  A(28,66,68)           117.3486         estimate D2E/DX2                !
 ! A216  A(64,66,68)           120.3058         estimate D2E/DX2                !
 ! A217  A(65,67,68)           118.9852         estimate D2E/DX2                !
 ! A218  A(65,67,69)           115.0395         estimate D2E/DX2                !
 ! A219  A(68,67,69)           119.842          estimate D2E/DX2                !
 ! A220  A(66,68,67)           119.6913         estimate D2E/DX2                !
 ! A221  A(66,68,70)           117.7427         estimate D2E/DX2                !
 ! A222  A(67,68,70)           117.3453         estimate D2E/DX2                !
 ! A223  A(31,69,67)           121.5139         estimate D2E/DX2                !
 ! A224  A(31,69,71)           107.4183         estimate D2E/DX2                !
 ! A225  A(67,69,71)           120.9238         estimate D2E/DX2                !
 ! A226  A(32,70,68)           122.8979         estimate D2E/DX2                !
 ! A227  A(32,70,72)           107.1565         estimate D2E/DX2                !
 ! A228  A(68,70,72)           122.2243         estimate D2E/DX2                !
 ! A229  A(69,71,72)           119.7935         estimate D2E/DX2                !
 ! A230  A(69,71,73)           108.3765         estimate D2E/DX2                !
 ! A231  A(72,71,73)           119.3893         estimate D2E/DX2                !
 ! A232  A(70,72,71)           119.6971         estimate D2E/DX2                !
 ! A233  A(70,72,74)           109.1502         estimate D2E/DX2                !
 ! A234  A(71,72,74)           121.0937         estimate D2E/DX2                !
 ! A235  A(33,73,71)           108.2231         estimate D2E/DX2                !
 ! A236  A(33,73,75)           120.2364         estimate D2E/DX2                !
 ! A237  A(71,73,75)           118.8957         estimate D2E/DX2                !
 ! A238  A(34,74,72)           110.0337         estimate D2E/DX2                !
 ! A239  A(34,74,76)           122.227          estimate D2E/DX2                !
 ! A240  A(72,74,76)           119.6462         estimate D2E/DX2                !
 ! A241  A(73,75,76)           121.3228         estimate D2E/DX2                !
 ! A242  A(73,75,77)           118.814          estimate D2E/DX2                !
 ! A243  A(76,75,77)           109.6293         estimate D2E/DX2                !
 ! A244  A(74,76,75)           119.5064         estimate D2E/DX2                !
 ! A245  A(74,76,78)           122.3619         estimate D2E/DX2                !
 ! A246  A(75,76,78)           109.8565         estimate D2E/DX2                !
 ! A247  A(37,77,75)           121.7421         estimate D2E/DX2                !
 ! A248  A(37,77,81)           122.9767         estimate D2E/DX2                !
 ! A249  A(75,77,81)           107.3488         estimate D2E/DX2                !
 ! A250  A(38,78,76)           110.5836         estimate D2E/DX2                !
 ! A251  A(38,78,81)           109.0056         estimate D2E/DX2                !
 ! A252  A(38,78,87)           108.5704         estimate D2E/DX2                !
 ! A253  A(76,78,81)           101.4352         estimate D2E/DX2                !
 ! A254  A(76,78,87)           113.5749         estimate D2E/DX2                !
 ! A255  A(81,78,87)           113.4834         estimate D2E/DX2                !
 ! A256  A(39,79,40)           120.2839         estimate D2E/DX2                !
 ! A257  A(39,79,82)           122.2451         estimate D2E/DX2                !
 ! A258  A(40,79,82)           108.0325         estimate D2E/DX2                !
 ! A259  A(41,80,42)           109.01           estimate D2E/DX2                !
 ! A260  A(41,80,82)           101.2529         estimate D2E/DX2                !
 ! A261  A(41,80,86)           112.6404         estimate D2E/DX2                !
 ! A262  A(42,80,82)           109.2717         estimate D2E/DX2                !
 ! A263  A(42,80,86)           110.4801         estimate D2E/DX2                !
 ! A264  A(82,80,86)           113.7638         estimate D2E/DX2                !
 ! A265  A(77,81,78)           111.2768         estimate D2E/DX2                !
 ! A266  A(77,81,82)           119.7598         estimate D2E/DX2                !
 ! A267  A(78,81,82)           122.1286         estimate D2E/DX2                !
 ! A268  A(79,82,80)           110.7354         estimate D2E/DX2                !
 ! A269  A(79,82,81)           118.9158         estimate D2E/DX2                !
 ! A270  A(80,82,81)           122.8396         estimate D2E/DX2                !
 ! A271  A(55,83,57)           118.7791         estimate D2E/DX2                !
 ! A272  A(55,83,84)           116.2838         estimate D2E/DX2                !
 ! A273  A(57,83,84)           119.9309         estimate D2E/DX2                !
 ! A274  A(56,84,58)           115.2701         estimate D2E/DX2                !
 ! A275  A(56,84,83)           119.7177         estimate D2E/DX2                !
 ! A276  A(58,84,83)           119.4901         estimate D2E/DX2                !
 ! D1    D(17,1,5,9)             0.5127         estimate D2E/DX2                !
 ! D2    D(17,1,5,29)         -153.0249         estimate D2E/DX2                !
 ! D3    D(23,1,5,9)           140.2115         estimate D2E/DX2                !
 ! D4    D(23,1,5,29)          -13.3262         estimate D2E/DX2                !
 ! D5    D(5,1,17,15)           -2.0388         estimate D2E/DX2                !
 ! D6    D(5,1,17,19)          139.3326         estimate D2E/DX2                !
 ! D7    D(23,1,17,15)        -146.8622         estimate D2E/DX2                !
 ! D8    D(23,1,17,19)          -5.4908         estimate D2E/DX2                !
 ! D9    D(5,1,23,21)         -136.1102         estimate D2E/DX2                !
 ! D10   D(5,1,23,25)            8.5673         estimate D2E/DX2                !
 ! D11   D(17,1,23,21)           9.1251         estimate D2E/DX2                !
 ! D12   D(17,1,23,25)         153.8026         estimate D2E/DX2                !
 ! D13   D(43,2,6,10)         -145.4254         estimate D2E/DX2                !
 ! D14   D(43,2,6,15)           -2.1678         estimate D2E/DX2                !
 ! D15   D(44,2,6,10)           -2.4031         estimate D2E/DX2                !
 ! D16   D(44,2,6,15)          140.8545         estimate D2E/DX2                !
 ! D17   D(6,2,43,13)            4.6635         estimate D2E/DX2                !
 ! D18   D(6,2,43,39)          154.411          estimate D2E/DX2                !
 ! D19   D(44,2,43,13)        -138.0813         estimate D2E/DX2                !
 ! D20   D(44,2,43,39)          11.6662         estimate D2E/DX2                !
 ! D21   D(6,2,44,40)         -155.7877         estimate D2E/DX2                !
 ! D22   D(6,2,44,47)           -1.2567         estimate D2E/DX2                !
 ! D23   D(43,2,44,40)         -17.4015         estimate D2E/DX2                !
 ! D24   D(43,2,44,47)         137.1295         estimate D2E/DX2                !
 ! D25   D(18,3,7,12)           27.3074         estimate D2E/DX2                !
 ! D26   D(18,3,7,30)          142.3447         estimate D2E/DX2                !
 ! D27   D(18,3,7,91)          -95.7112         estimate D2E/DX2                !
 ! D28   D(26,3,7,12)         -125.6775         estimate D2E/DX2                !
 ! D29   D(26,3,7,30)          -10.6402         estimate D2E/DX2                !
 ! D30   D(26,3,7,91)          111.304          estimate D2E/DX2                !
 ! D31   D(7,3,18,16)            6.2935         estimate D2E/DX2                !
 ! D32   D(7,3,18,20)         -153.3987         estimate D2E/DX2                !
 ! D33   D(26,3,18,16)         156.2786         estimate D2E/DX2                !
 ! D34   D(26,3,18,20)          -3.4136         estimate D2E/DX2                !
 ! D35   D(7,3,26,24)          158.8238         estimate D2E/DX2                !
 ! D36   D(7,3,26,28)           11.9877         estimate D2E/DX2                !
 ! D37   D(18,3,26,24)           4.3374         estimate D2E/DX2                !
 ! D38   D(18,3,26,28)        -142.4987         estimate D2E/DX2                !
 ! D39   D(45,4,8,11)           18.0636         estimate D2E/DX2                !
 ! D40   D(45,4,8,16)         -137.2112         estimate D2E/DX2                !
 ! D41   D(46,4,8,11)          133.1653         estimate D2E/DX2                !
 ! D42   D(46,4,8,16)          -22.1095         estimate D2E/DX2                !
 ! D43   D(85,4,8,11)         -107.6955         estimate D2E/DX2                !
 ! D44   D(85,4,8,16)           97.0297         estimate D2E/DX2                !
 ! D45   D(8,4,45,41)          146.1631         estimate D2E/DX2                !
 ! D46   D(8,4,45,48)          -18.3306         estimate D2E/DX2                !
 ! D47   D(46,4,45,41)          36.2409         estimate D2E/DX2                !
 ! D48   D(46,4,45,48)        -128.2528         estimate D2E/DX2                !
 ! D49   D(85,4,45,41)         -86.3771         estimate D2E/DX2                !
 ! D50   D(85,4,45,48)         109.1292         estimate D2E/DX2                !
 ! D51   D(8,4,46,14)           12.8192         estimate D2E/DX2                !
 ! D52   D(8,4,46,42)         -150.2941         estimate D2E/DX2                !
 ! D53   D(45,4,46,14)         130.9132         estimate D2E/DX2                !
 ! D54   D(45,4,46,42)         -32.2001         estimate D2E/DX2                !
 ! D55   D(85,4,46,14)        -107.4524         estimate D2E/DX2                !
 ! D56   D(85,4,46,42)          89.4344         estimate D2E/DX2                !
 ! D57   D(1,5,9,13)             1.2585         estimate D2E/DX2                !
 ! D58   D(1,5,9,35)          -155.5332         estimate D2E/DX2                !
 ! D59   D(29,5,9,13)          154.2096         estimate D2E/DX2                !
 ! D60   D(29,5,9,35)           -2.5821         estimate D2E/DX2                !
 ! D61   D(1,5,29,27)            9.0393         estimate D2E/DX2                !
 ! D62   D(1,5,29,31)          161.3077         estimate D2E/DX2                !
 ! D63   D(9,5,29,27)         -144.3374         estimate D2E/DX2                !
 ! D64   D(9,5,29,31)            7.9309         estimate D2E/DX2                !
 ! D65   D(2,6,10,49)           -9.6292         estimate D2E/DX2                !
 ! D66   D(2,6,10,53)          135.5773         estimate D2E/DX2                !
 ! D67   D(15,6,10,49)        -147.9248         estimate D2E/DX2                !
 ! D68   D(15,6,10,53)          -2.7183         estimate D2E/DX2                !
 ! D69   D(2,6,15,13)           -1.1578         estimate D2E/DX2                !
 ! D70   D(2,6,15,17)         -143.7699         estimate D2E/DX2                !
 ! D71   D(10,6,15,13)         141.7057         estimate D2E/DX2                !
 ! D72   D(10,6,15,17)          -0.9064         estimate D2E/DX2                !
 ! D73   D(3,7,12,14)          -31.3863         estimate D2E/DX2                !
 ! D74   D(3,7,12,36)          136.676          estimate D2E/DX2                !
 ! D75   D(30,7,12,14)        -141.8634         estimate D2E/DX2                !
 ! D76   D(30,7,12,36)          26.1989         estimate D2E/DX2                !
 ! D77   D(91,7,12,14)          93.0564         estimate D2E/DX2                !
 ! D78   D(91,7,12,36)         -98.8812         estimate D2E/DX2                !
 ! D79   D(3,7,30,28)            5.9985         estimate D2E/DX2                !
 ! D80   D(3,7,30,32)         -145.009          estimate D2E/DX2                !
 ! D81   D(12,7,30,28)         122.0233         estimate D2E/DX2                !
 ! D82   D(12,7,30,32)         -28.9842         estimate D2E/DX2                !
 ! D83   D(91,7,30,28)        -115.0875         estimate D2E/DX2                !
 ! D84   D(91,7,30,32)          93.905          estimate D2E/DX2                !
 ! D85   D(4,8,11,50)            7.3266         estimate D2E/DX2                !
 ! D86   D(4,8,11,54)         -145.169          estimate D2E/DX2                !
 ! D87   D(16,8,11,50)         160.0253         estimate D2E/DX2                !
 ! D88   D(16,8,11,54)           7.5297         estimate D2E/DX2                !
 ! D89   D(4,8,16,14)           22.5135         estimate D2E/DX2                !
 ! D90   D(4,8,16,18)          139.8587         estimate D2E/DX2                !
 ! D91   D(4,8,16,92)          -94.8203         estimate D2E/DX2                !
 ! D92   D(11,8,16,14)        -132.5355         estimate D2E/DX2                !
 ! D93   D(11,8,16,18)         -15.1903         estimate D2E/DX2                !
 ! D94   D(11,8,16,92)         110.1307         estimate D2E/DX2                !
 ! D95   D(5,9,13,15)           -1.5904         estimate D2E/DX2                !
 ! D96   D(5,9,13,43)         -143.9285         estimate D2E/DX2                !
 ! D97   D(35,9,13,15)         155.9526         estimate D2E/DX2                !
 ! D98   D(35,9,13,43)          13.6146         estimate D2E/DX2                !
 ! D99   D(5,9,35,33)           -8.2155         estimate D2E/DX2                !
 ! D100  D(5,9,35,37)          148.3012         estimate D2E/DX2                !
 ! D101  D(13,9,35,33)        -165.1104         estimate D2E/DX2                !
 ! D102  D(13,9,35,37)          -8.5937         estimate D2E/DX2                !
 ! D103  D(6,10,49,47)          23.0811         estimate D2E/DX2                !
 ! D104  D(6,10,49,51)         140.4793         estimate D2E/DX2                !
 ! D105  D(6,10,49,90)         -99.2607         estimate D2E/DX2                !
 ! D106  D(53,10,49,47)       -124.7589         estimate D2E/DX2                !
 ! D107  D(53,10,49,51)         -7.3607         estimate D2E/DX2                !
 ! D108  D(53,10,49,90)        112.8993         estimate D2E/DX2                !
 ! D109  D(6,10,53,19)           4.4116         estimate D2E/DX2                !
 ! D110  D(6,10,53,55)        -139.9268         estimate D2E/DX2                !
 ! D111  D(49,10,53,19)        153.6644         estimate D2E/DX2                !
 ! D112  D(49,10,53,55)          9.3259         estimate D2E/DX2                !
 ! D113  D(8,11,50,48)         -31.7127         estimate D2E/DX2                !
 ! D114  D(8,11,50,52)        -148.5278         estimate D2E/DX2                !
 ! D115  D(8,11,50,89)          90.6866         estimate D2E/DX2                !
 ! D116  D(54,11,50,48)        123.3429         estimate D2E/DX2                !
 ! D117  D(54,11,50,52)          6.5278         estimate D2E/DX2                !
 ! D118  D(54,11,50,89)       -114.2578         estimate D2E/DX2                !
 ! D119  D(8,11,54,20)           1.2576         estimate D2E/DX2                !
 ! D120  D(8,11,54,56)         149.1541         estimate D2E/DX2                !
 ! D121  D(50,11,54,20)       -154.5577         estimate D2E/DX2                !
 ! D122  D(50,11,54,56)         -6.6612         estimate D2E/DX2                !
 ! D123  D(7,12,14,16)           4.603          estimate D2E/DX2                !
 ! D124  D(7,12,14,46)         166.3758         estimate D2E/DX2                !
 ! D125  D(36,12,14,16)       -163.995          estimate D2E/DX2                !
 ! D126  D(36,12,14,46)         -2.2222         estimate D2E/DX2                !
 ! D127  D(7,12,36,34)           5.6886         estimate D2E/DX2                !
 ! D128  D(7,12,36,38)        -165.8897         estimate D2E/DX2                !
 ! D129  D(14,12,36,34)        173.4521         estimate D2E/DX2                !
 ! D130  D(14,12,36,38)          1.8738         estimate D2E/DX2                !
 ! D131  D(9,13,15,6)         -142.9528         estimate D2E/DX2                !
 ! D132  D(9,13,15,17)           0.0944         estimate D2E/DX2                !
 ! D133  D(43,13,15,6)           3.9411         estimate D2E/DX2                !
 ! D134  D(43,13,15,17)        146.9884         estimate D2E/DX2                !
 ! D135  D(9,13,43,2)          142.1375         estimate D2E/DX2                !
 ! D136  D(9,13,43,39)          -8.3158         estimate D2E/DX2                !
 ! D137  D(15,13,43,2)          -5.352          estimate D2E/DX2                !
 ! D138  D(15,13,43,39)       -155.8053         estimate D2E/DX2                !
 ! D139  D(12,14,16,8)         149.6505         estimate D2E/DX2                !
 ! D140  D(12,14,16,18)         28.725          estimate D2E/DX2                !
 ! D141  D(12,14,16,92)        -92.8787         estimate D2E/DX2                !
 ! D142  D(46,14,16,8)         -13.6498         estimate D2E/DX2                !
 ! D143  D(46,14,16,18)       -134.5754         estimate D2E/DX2                !
 ! D144  D(46,14,16,92)        103.8209         estimate D2E/DX2                !
 ! D145  D(12,14,46,4)        -163.6285         estimate D2E/DX2                !
 ! D146  D(12,14,46,42)          0.4588         estimate D2E/DX2                !
 ! D147  D(16,14,46,4)           0.5778         estimate D2E/DX2                !
 ! D148  D(16,14,46,42)        164.6652         estimate D2E/DX2                !
 ! D149  D(6,15,17,1)          140.3826         estimate D2E/DX2                !
 ! D150  D(6,15,17,19)           2.8882         estimate D2E/DX2                !
 ! D151  D(13,15,17,1)           1.7128         estimate D2E/DX2                !
 ! D152  D(13,15,17,19)       -135.7816         estimate D2E/DX2                !
 ! D153  D(8,16,18,3)         -144.8347         estimate D2E/DX2                !
 ! D154  D(8,16,18,20)          14.8276         estimate D2E/DX2                !
 ! D155  D(14,16,18,3)         -32.8654         estimate D2E/DX2                !
 ! D156  D(14,16,18,20)        126.7969         estimate D2E/DX2                !
 ! D157  D(92,16,18,3)          89.2772         estimate D2E/DX2                !
 ! D158  D(92,16,18,20)       -111.0605         estimate D2E/DX2                !
 ! D159  D(1,17,19,21)          -0.1064         estimate D2E/DX2                !
 ! D160  D(1,17,19,53)        -142.7901         estimate D2E/DX2                !
 ! D161  D(15,17,19,21)        141.4593         estimate D2E/DX2                !
 ! D162  D(15,17,19,53)         -1.2243         estimate D2E/DX2                !
 ! D163  D(3,18,20,22)           0.3049         estimate D2E/DX2                !
 ! D164  D(3,18,20,54)         151.8181         estimate D2E/DX2                !
 ! D165  D(16,18,20,22)       -158.8624         estimate D2E/DX2                !
 ! D166  D(16,18,20,54)         -7.3493         estimate D2E/DX2                !
 ! D167  D(17,19,21,23)          5.664          estimate D2E/DX2                !
 ! D168  D(17,19,21,57)       -139.5955         estimate D2E/DX2                !
 ! D169  D(53,19,21,23)        148.2778         estimate D2E/DX2                !
 ! D170  D(53,19,21,57)          3.0183         estimate D2E/DX2                !
 ! D171  D(17,19,53,10)         -2.4393         estimate D2E/DX2                !
 ! D172  D(17,19,53,55)        138.502          estimate D2E/DX2                !
 ! D173  D(21,19,53,10)       -141.0233         estimate D2E/DX2                !
 ! D174  D(21,19,53,55)         -0.082          estimate D2E/DX2                !
 ! D175  D(18,20,22,24)          1.9796         estimate D2E/DX2                !
 ! D176  D(18,20,22,58)        142.1874         estimate D2E/DX2                !
 ! D177  D(54,20,22,24)       -150.7029         estimate D2E/DX2                !
 ! D178  D(54,20,22,58)        -10.4951         estimate D2E/DX2                !
 ! D179  D(18,20,54,11)         -1.2366         estimate D2E/DX2                !
 ! D180  D(18,20,54,56)       -144.8788         estimate D2E/DX2                !
 ! D181  D(22,20,54,11)        151.3574         estimate D2E/DX2                !
 ! D182  D(22,20,54,56)          7.7153         estimate D2E/DX2                !
 ! D183  D(19,21,23,1)          -9.1905         estimate D2E/DX2                !
 ! D184  D(19,21,23,25)       -153.9119         estimate D2E/DX2                !
 ! D185  D(57,21,23,1)         136.4296         estimate D2E/DX2                !
 ! D186  D(57,21,23,25)         -8.2918         estimate D2E/DX2                !
 ! D187  D(19,21,57,59)        150.7674         estimate D2E/DX2                !
 ! D188  D(19,21,57,83)         -3.0613         estimate D2E/DX2                !
 ! D189  D(23,21,57,59)         10.6229         estimate D2E/DX2                !
 ! D190  D(23,21,57,83)       -143.2058         estimate D2E/DX2                !
 ! D191  D(20,22,24,26)         -1.1183         estimate D2E/DX2                !
 ! D192  D(20,22,24,62)        142.8416         estimate D2E/DX2                !
 ! D193  D(58,22,24,26)       -146.7559         estimate D2E/DX2                !
 ! D194  D(58,22,24,62)         -2.796          estimate D2E/DX2                !
 ! D195  D(20,22,58,60)       -143.4783         estimate D2E/DX2                !
 ! D196  D(20,22,58,84)          3.7517         estimate D2E/DX2                !
 ! D197  D(24,22,58,60)          1.1457         estimate D2E/DX2                !
 ! D198  D(24,22,58,84)        148.3756         estimate D2E/DX2                !
 ! D199  D(1,23,25,27)           1.0493         estimate D2E/DX2                !
 ! D200  D(1,23,25,61)        -140.1721         estimate D2E/DX2                !
 ! D201  D(21,23,25,27)        142.0103         estimate D2E/DX2                !
 ! D202  D(21,23,25,61)          0.7889         estimate D2E/DX2                !
 ! D203  D(22,24,26,3)          -2.0007         estimate D2E/DX2                !
 ! D204  D(22,24,26,28)        141.4922         estimate D2E/DX2                !
 ! D205  D(62,24,26,3)        -142.2428         estimate D2E/DX2                !
 ! D206  D(62,24,26,28)          1.25           estimate D2E/DX2                !
 ! D207  D(22,24,62,60)          3.3583         estimate D2E/DX2                !
 ! D208  D(22,24,62,64)       -142.0678         estimate D2E/DX2                !
 ! D209  D(26,24,62,60)        147.212          estimate D2E/DX2                !
 ! D210  D(26,24,62,64)          1.786          estimate D2E/DX2                !
 ! D211  D(23,25,27,29)         -5.2264         estimate D2E/DX2                !
 ! D212  D(23,25,27,65)       -149.5263         estimate D2E/DX2                !
 ! D213  D(61,25,27,29)        139.7059         estimate D2E/DX2                !
 ! D214  D(61,25,27,65)         -4.594          estimate D2E/DX2                !
 ! D215  D(23,25,61,59)          3.8339         estimate D2E/DX2                !
 ! D216  D(23,25,61,63)        149.0192         estimate D2E/DX2                !
 ! D217  D(27,25,61,59)       -140.9969         estimate D2E/DX2                !
 ! D218  D(27,25,61,63)          4.1884         estimate D2E/DX2                !
 ! D219  D(3,26,28,30)          -7.9785         estimate D2E/DX2                !
 ! D220  D(3,26,28,66)         141.1388         estimate D2E/DX2                !
 ! D221  D(24,26,28,30)       -155.031          estimate D2E/DX2                !
 ! D222  D(24,26,28,66)         -5.9137         estimate D2E/DX2                !
 ! D223  D(25,27,29,5)           0.0358         estimate D2E/DX2                !
 ! D224  D(25,27,29,31)       -153.2027         estimate D2E/DX2                !
 ! D225  D(65,27,29,5)         139.0113         estimate D2E/DX2                !
 ! D226  D(65,27,29,31)        -14.2272         estimate D2E/DX2                !
 ! D227  D(25,27,65,63)          3.1903         estimate D2E/DX2                !
 ! D228  D(25,27,65,67)        151.7531         estimate D2E/DX2                !
 ! D229  D(29,27,65,63)       -140.4951         estimate D2E/DX2                !
 ! D230  D(29,27,65,67)          8.0677         estimate D2E/DX2                !
 ! D231  D(26,28,30,7)           0.7984         estimate D2E/DX2                !
 ! D232  D(26,28,30,32)        152.6378         estimate D2E/DX2                !
 ! D233  D(66,28,30,7)        -147.7688         estimate D2E/DX2                !
 ! D234  D(66,28,30,32)          4.0706         estimate D2E/DX2                !
 ! D235  D(26,28,66,64)          7.1424         estimate D2E/DX2                !
 ! D236  D(26,28,66,68)       -147.8305         estimate D2E/DX2                !
 ! D237  D(30,28,66,64)        151.2504         estimate D2E/DX2                !
 ! D238  D(30,28,66,68)         -3.7225         estimate D2E/DX2                !
 ! D239  D(5,29,31,33)          -2.5996         estimate D2E/DX2                !
 ! D240  D(5,29,31,69)        -147.7326         estimate D2E/DX2                !
 ! D241  D(27,29,31,33)        151.0893         estimate D2E/DX2                !
 ! D242  D(27,29,31,69)          5.9563         estimate D2E/DX2                !
 ! D243  D(7,30,32,34)          -0.5206         estimate D2E/DX2                !
 ! D244  D(7,30,32,70)         149.138          estimate D2E/DX2                !
 ! D245  D(28,30,32,34)       -149.3922         estimate D2E/DX2                !
 ! D246  D(28,30,32,70)          0.2663         estimate D2E/DX2                !
 ! D247  D(29,31,33,35)         -8.7069         estimate D2E/DX2                !
 ! D248  D(29,31,33,73)       -155.5246         estimate D2E/DX2                !
 ! D249  D(69,31,33,35)        140.5587         estimate D2E/DX2                !
 ! D250  D(69,31,33,73)         -6.259          estimate D2E/DX2                !
 ! D251  D(29,31,69,67)          8.9723         estimate D2E/DX2                !
 ! D252  D(29,31,69,71)        154.4729         estimate D2E/DX2                !
 ! D253  D(33,31,69,67)       -140.0139         estimate D2E/DX2                !
 ! D254  D(33,31,69,71)          5.4866         estimate D2E/DX2                !
 ! D255  D(30,32,34,36)         32.7281         estimate D2E/DX2                !
 ! D256  D(30,32,34,74)        149.4008         estimate D2E/DX2                !
 ! D257  D(30,32,34,88)        -88.5461         estimate D2E/DX2                !
 ! D258  D(70,32,34,36)       -118.8758         estimate D2E/DX2                !
 ! D259  D(70,32,34,74)         -2.203          estimate D2E/DX2                !
 ! D260  D(70,32,34,88)        119.8501         estimate D2E/DX2                !
 ! D261  D(30,32,70,68)         -4.9072         estimate D2E/DX2                !
 ! D262  D(30,32,70,72)       -154.7162         estimate D2E/DX2                !
 ! D263  D(34,32,70,68)        147.769          estimate D2E/DX2                !
 ! D264  D(34,32,70,72)         -2.04           estimate D2E/DX2                !
 ! D265  D(31,33,35,9)          13.8026         estimate D2E/DX2                !
 ! D266  D(31,33,35,37)       -143.4427         estimate D2E/DX2                !
 ! D267  D(73,33,35,9)         155.5813         estimate D2E/DX2                !
 ! D268  D(73,33,35,37)         -1.664          estimate D2E/DX2                !
 ! D269  D(31,33,73,71)          4.5995         estimate D2E/DX2                !
 ! D270  D(31,33,73,75)        145.9276         estimate D2E/DX2                !
 ! D271  D(35,33,73,71)       -141.7486         estimate D2E/DX2                !
 ! D272  D(35,33,73,75)         -0.4205         estimate D2E/DX2                !
 ! D273  D(32,34,36,12)        -34.3606         estimate D2E/DX2                !
 ! D274  D(32,34,36,38)        137.1397         estimate D2E/DX2                !
 ! D275  D(74,34,36,12)       -144.7671         estimate D2E/DX2                !
 ! D276  D(74,34,36,38)         26.7333         estimate D2E/DX2                !
 ! D277  D(88,34,36,12)         89.8008         estimate D2E/DX2                !
 ! D278  D(88,34,36,38)        -98.6988         estimate D2E/DX2                !
 ! D279  D(32,34,74,72)          5.7359         estimate D2E/DX2                !
 ! D280  D(32,34,74,76)       -142.7212         estimate D2E/DX2                !
 ! D281  D(36,34,74,72)        120.8864         estimate D2E/DX2                !
 ! D282  D(36,34,74,76)        -27.5708         estimate D2E/DX2                !
 ! D283  D(88,34,74,72)       -116.3719         estimate D2E/DX2                !
 ! D284  D(88,34,74,76)         95.1709         estimate D2E/DX2                !
 ! D285  D(9,35,37,39)          -1.8526         estimate D2E/DX2                !
 ! D286  D(9,35,37,77)        -154.5141         estimate D2E/DX2                !
 ! D287  D(33,35,37,39)        154.6499         estimate D2E/DX2                !
 ! D288  D(33,35,37,77)          1.9884         estimate D2E/DX2                !
 ! D289  D(12,36,38,42)          0.2031         estimate D2E/DX2                !
 ! D290  D(12,36,38,78)        171.8189         estimate D2E/DX2                !
 ! D291  D(34,36,38,42)       -171.1782         estimate D2E/DX2                !
 ! D292  D(34,36,38,78)          0.4375         estimate D2E/DX2                !
 ! D293  D(35,37,39,43)          7.4436         estimate D2E/DX2                !
 ! D294  D(35,37,39,79)       -145.5619         estimate D2E/DX2                !
 ! D295  D(77,37,39,43)        161.0088         estimate D2E/DX2                !
 ! D296  D(77,37,39,79)          8.0033         estimate D2E/DX2                !
 ! D297  D(35,37,77,75)         -0.3047         estimate D2E/DX2                !
 ! D298  D(35,37,77,81)        144.7155         estimate D2E/DX2                !
 ! D299  D(39,37,77,75)       -153.8708         estimate D2E/DX2                !
 ! D300  D(39,37,77,81)         -8.8506         estimate D2E/DX2                !
 ! D301  D(36,38,42,46)         -1.964          estimate D2E/DX2                !
 ! D302  D(36,38,42,80)        165.0619         estimate D2E/DX2                !
 ! D303  D(78,38,42,46)       -173.7627         estimate D2E/DX2                !
 ! D304  D(78,38,42,80)         -6.7367         estimate D2E/DX2                !
 ! D305  D(36,38,78,76)        -27.1667         estimate D2E/DX2                !
 ! D306  D(36,38,78,81)       -137.8586         estimate D2E/DX2                !
 ! D307  D(36,38,78,87)         98.0631         estimate D2E/DX2                !
 ! D308  D(42,38,78,76)        144.5366         estimate D2E/DX2                !
 ! D309  D(42,38,78,81)         33.8446         estimate D2E/DX2                !
 ! D310  D(42,38,78,87)        -90.2336         estimate D2E/DX2                !
 ! D311  D(37,39,43,2)        -149.0248         estimate D2E/DX2                !
 ! D312  D(37,39,43,13)         -2.6437         estimate D2E/DX2                !
[...]
 Alpha virt. eigenvalues --    1.35820   1.36196   1.36670   1.37051   1.37372
 Alpha virt. eigenvalues --    1.38177   1.38471   1.38586   1.39307   1.39616
 Alpha virt. eigenvalues --    1.40191   1.40408   1.41382   1.41540   1.42017
 Alpha virt. eigenvalues --    1.42200   1.43553   1.43643   1.44376   1.45070
 Alpha virt. eigenvalues --    1.45189   1.45743   1.46051   1.46286   1.46903
 Alpha virt. eigenvalues --    1.47125   1.47711   1.48557   1.48873   1.49166
 Alpha virt. eigenvalues --    1.50199   1.50804   1.51656   1.52086   1.52681
 Alpha virt. eigenvalues --    1.52907   1.53445   1.54134   1.54370   1.54831
 Alpha virt. eigenvalues --    1.55629   1.55730   1.56236   1.57166   1.57379
 Alpha virt. eigenvalues --    1.57621   1.58595   1.59178   1.59271   1.59921
 Alpha virt. eigenvalues --    1.60415   1.60819   1.61074   1.61423   1.62037
 Alpha virt. eigenvalues --    1.62448   1.62750   1.63206   1.63565   1.63904
 Alpha virt. eigenvalues --    1.64160   1.64393   1.64603   1.64910   1.65232
 Alpha virt. eigenvalues --    1.65562   1.65722   1.65922   1.66155   1.66407
 Alpha virt. eigenvalues --    1.66640   1.66982   1.67184   1.67552   1.67727
 Alpha virt. eigenvalues --    1.68064   1.68219   1.68614   1.68817   1.69103
 Alpha virt. eigenvalues --    1.69480   1.69622   1.69853   1.70155   1.70399
 Alpha virt. eigenvalues --    1.70485   1.70669   1.70969   1.71067   1.71463
 Alpha virt. eigenvalues --    1.71679   1.71860   1.71922   1.72163   1.72293
 Alpha virt. eigenvalues --    1.72439   1.73012   1.73224   1.73420   1.73699
 Alpha virt. eigenvalues --    1.73891   1.74311   1.74654   1.74789   1.74895
 Alpha virt. eigenvalues --    1.75113   1.75145   1.75474   1.75935   1.76158
 Alpha virt. eigenvalues --    1.76272   1.76573   1.76790   1.76823   1.77345
 Alpha virt. eigenvalues --    1.77678   1.77895   1.78200   1.78210   1.78520
 Alpha virt. eigenvalues --    1.78692   1.78893   1.79078   1.79398   1.79425
 Alpha virt. eigenvalues --    1.79938   1.80416   1.80570   1.80658   1.81084
 Alpha virt. eigenvalues --    1.81518   1.82061   1.82252   1.82599   1.82898
 Alpha virt. eigenvalues --    1.83615   1.83959   1.84366   1.84928   1.85078
 Alpha virt. eigenvalues --    1.85673   1.85873   1.86310   1.86609   1.86851
 Alpha virt. eigenvalues --    1.87278   1.87624   1.88240   1.88536   1.88672
 Alpha virt. eigenvalues --    1.89112   1.89316   1.89642   1.90108   1.90967
 Alpha virt. eigenvalues --    1.91119   1.91415   1.91665   1.92202   1.92583
 Alpha virt. eigenvalues --    1.93181   1.93367   1.93940   1.94228   1.94375
 Alpha virt. eigenvalues --    1.94670   1.94997   1.95262   1.95628   1.95905
 Alpha virt. eigenvalues --    1.96278   1.96550   1.96765   1.97137   1.97532
 Alpha virt. eigenvalues --    1.97980   1.98304   1.98370   1.98488   1.98928
 Alpha virt. eigenvalues --    1.99015   1.99369   1.99733   1.99799   1.99974
 Alpha virt. eigenvalues --    2.00237   2.00303   2.00703   2.01132   2.01360
 Alpha virt. eigenvalues --    2.01684   2.01832   2.01978   2.02391   2.02520
 Alpha virt. eigenvalues --    2.02983   2.03262   2.03598   2.03779   2.04391
 Alpha virt. eigenvalues --    2.04660   2.04909   2.05223   2.05530   2.05925
 Alpha virt. eigenvalues --    2.06388   2.06858   2.07022   2.07330   2.07559
 Alpha virt. eigenvalues --    2.07805   2.08564   2.09081   2.09669   2.10152
 Alpha virt. eigenvalues --    2.10297   2.10423   2.10904   2.11147   2.11930
 Alpha virt. eigenvalues --    2.12516   2.13153   2.13373   2.13934   2.14273
 Alpha virt. eigenvalues --    2.14559   2.14980   2.15598   2.16172   2.16315
 Alpha virt. eigenvalues --    2.16996   2.17343   2.17559   2.17795   2.18037
 Alpha virt. eigenvalues --    2.18940   2.19227   2.19396   2.19846   2.20561
 Alpha virt. eigenvalues --    2.20613   2.21002   2.21304   2.21840   2.22292
 Alpha virt. eigenvalues --    2.22707   2.23232   2.23452   2.23787   2.24432
 Alpha virt. eigenvalues --    2.24618   2.25094   2.25216   2.25482   2.26350
 Alpha virt. eigenvalues --    2.26482   2.26589   2.26987   2.27538   2.28046
 Alpha virt. eigenvalues --    2.28094   2.29005   2.29229   2.29628   2.29894
 Alpha virt. eigenvalues --    2.30182   2.30433   2.31121   2.31553   2.31966
 Alpha virt. eigenvalues --    2.32354   2.33105   2.33650   2.34003   2.34301
 Alpha virt. eigenvalues --    2.34854   2.35387   2.35871   2.36728   2.37606
 Alpha virt. eigenvalues --    2.37937   2.38615   2.38790   2.39403   2.39643
 Alpha virt. eigenvalues --    2.40527   2.41000   2.41279   2.41704   2.42126
 Alpha virt. eigenvalues --    2.42565   2.43283   2.44337   2.44457   2.44658
 Alpha virt. eigenvalues --    2.45212   2.45607   2.46016   2.46288   2.47059
 Alpha virt. eigenvalues --    2.47902   2.48231   2.48745   2.49709   2.49935
 Alpha virt. eigenvalues --    2.51256   2.51335   2.51601   2.52558   2.52608
 Alpha virt. eigenvalues --    2.52824   2.53061   2.54120   2.54226   2.54838
 Alpha virt. eigenvalues --    2.54876   2.54989   2.55461   2.55628   2.55866
 Alpha virt. eigenvalues --    2.56443   2.56945   2.57059   2.57209   2.57571
 Alpha virt. eigenvalues --    2.57868   2.58097   2.58593   2.58660   2.58921
 Alpha virt. eigenvalues --    2.59053   2.59537   2.59838   2.60545   2.60684
 Alpha virt. eigenvalues --    2.61036   2.61606   2.62010   2.62538   2.62714
 Alpha virt. eigenvalues --    2.62879   2.63286   2.63724   2.63884   2.64063
 Alpha virt. eigenvalues --    2.64253   2.65240   2.65334   2.65698   2.65970
 Alpha virt. eigenvalues --    2.66207   2.66459   2.66561   2.67091   2.67777
 Alpha virt. eigenvalues --    2.68182   2.68428   2.68649   2.68784   2.69741
 Alpha virt. eigenvalues --    2.70043   2.70288   2.70680   2.71143   2.71583
 Alpha virt. eigenvalues --    2.71891   2.72311   2.72912   2.73178   2.73529
 Alpha virt. eigenvalues --    2.73964   2.74226   2.74800   2.75430   2.75569
 Alpha virt. eigenvalues --    2.76008   2.76418   2.76896   2.77111   2.77256
 Alpha virt. eigenvalues --    2.77970   2.78489   2.78833   2.79088   2.79690
 Alpha virt. eigenvalues --    2.79956   2.80121   2.80593   2.81091   2.82019
 Alpha virt. eigenvalues --    2.82051   2.82685   2.83081   2.83821   2.84316
 Alpha virt. eigenvalues --    2.84494   2.85255   2.85550   2.86161   2.86744
 Alpha virt. eigenvalues --    2.87645   2.88031   2.88472   2.88812   2.89324
 Alpha virt. eigenvalues --    2.89732   2.89880   2.90542   2.90778   2.91030
 Alpha virt. eigenvalues --    2.91972   2.92423   2.92846   2.93174   2.93691
 Alpha virt. eigenvalues --    2.93987   2.94292   2.94632   2.95925   2.96326
 Alpha virt. eigenvalues --    2.97069   2.97761   2.97944   2.98410   3.00260
 Alpha virt. eigenvalues --    3.02126   3.02177   3.02613   3.04002   3.04137
 Alpha virt. eigenvalues --    3.06185   3.06998   3.09238   3.10227   3.11064
 Alpha virt. eigenvalues --    3.11618   3.13503   3.15292   3.17147   3.17579
 Alpha virt. eigenvalues --    3.19039   3.19720   3.21795   3.22059   3.23823
 Alpha virt. eigenvalues --    3.25707   3.26733   3.28814   3.30956   3.32313
 Alpha virt. eigenvalues --    3.34036   3.34464   3.35707   3.35949   3.39605
 Alpha virt. eigenvalues --    3.41972   3.43190   3.44783   3.46581   3.48062
 Alpha virt. eigenvalues --    3.51699   3.52195   3.53483   3.55939   3.59435
 Alpha virt. eigenvalues --    4.00038   4.00861   4.01205   4.02920   4.03749
 Alpha virt. eigenvalues --    4.03871   4.04460   4.04666   4.05460   4.06480
 Alpha virt. eigenvalues --    4.06778   4.07198   4.07629   4.08199   4.08850
 Alpha virt. eigenvalues --    4.09666   4.10212   4.11006   4.11870   4.12540
 Alpha virt. eigenvalues --    4.12863   4.13352   4.15327   4.16457   4.16650
 Alpha virt. eigenvalues --    4.17683   4.18503   4.19132   4.20021   4.20899
 Alpha virt. eigenvalues --    4.21462   4.21873   4.22275   4.23857   4.24400
 Alpha virt. eigenvalues --    4.25030   4.26159   4.26989   4.27222   4.27946
 Alpha virt. eigenvalues --    4.28146   4.28631   4.29141   4.29840   4.31600
 Alpha virt. eigenvalues --    4.31937   4.32530   4.33470   4.35600   4.37393
 Alpha virt. eigenvalues --    4.38527   4.39352   4.40137   4.41097   4.41615
 Alpha virt. eigenvalues --    4.43510   4.44397   4.44828   4.47114   4.47625
 Alpha virt. eigenvalues --    4.49424   4.49966   4.51243   4.53175   4.54807
 Alpha virt. eigenvalues --    4.56621   4.57468   4.58551   4.60458   4.61431
 Alpha virt. eigenvalues --    4.62968   4.65089   4.66263   4.66892   4.69368
 Alpha virt. eigenvalues --    4.71931   4.77264   4.78827   4.80359   4.84231
 Alpha virt. eigenvalues --    4.84903   4.88839   4.90926   4.92273   4.94775
 Alpha virt. eigenvalues --    5.00743   5.04699   5.07448   5.09235   5.17048
 Alpha virt. eigenvalues --    5.20153   5.23082
          Condensed to atoms (all electrons):
 Mulliken charges:
               1
     1  C   -0.026055
     2  C   -0.036802
     3  C    0.080404
     4  C   -0.366775
     5  C    0.047313
     6  C    0.007894
     7  C   -0.384313
     8  C    0.152954
     9  C    0.042984
    10  C    0.079695
    11  C    0.110853
    12  C    0.149353
    13  C   -0.023972
    14  C    0.115538
    15  C   -0.007720
    16  C   -0.359667
    17  C   -0.000742
    18  C    0.125103
    19  C   -0.010971
    20  C    0.076243
    21  C   -0.021904
    22  C   -0.023983
    23  C   -0.000979
    24  C   -0.027693
    25  C   -0.018575
    26  C    0.033721
    27  C   -0.019753
    28  C    0.007037
    29  C    0.052169
    30  C    0.090179
    31  C   -0.031467
    32  C    0.087458
    33  C   -0.030601
    34  C   -0.376707
    35  C    0.046914
    36  C    0.121498
    37  C    0.040170
    38  C    0.120793
    39  C    0.042611
    40  C    0.002604
    41  C    0.080760
    42  C    0.145900
    43  C   -0.023394
    44  C    0.076339
    45  C    0.143694
    46  C    0.116143
    47  C    0.104333
    48  C    0.125408
    49  C   -0.357056
    50  C   -0.378980
    51  C    0.088464
    52  C    0.091941
    53  C    0.025890
    54  C   -0.016754
    55  C    0.001565
    56  C    0.012351
    57  C    0.048647
    58  C   -0.030802
    59  C    0.056793
    60  C   -0.030555
    61  C   -0.020626
    62  C   -0.022587
    63  C   -0.029452
    64  C    0.057455
    65  C   -0.029882
    66  C    0.037321
    67  C    0.053262
    68  C    0.038343
    69  C   -0.018814
    70  C    0.004702
    71  C   -0.019153
    72  C    0.031218
    73  C   -0.019455
    74  C    0.087882
    75  C    0.026985
    76  C    0.092358
    77  C    0.002051
    78  C   -0.375673
    79  C    0.011120
    80  C   -0.386470
    81  C    0.090282
    82  C    0.088364
    83  C    0.037342
    84  C    0.048591
    85  Cl   0.011634
    86  Cl   0.018888
    87  Cl   0.010658
    88  Cl   0.011530
    89  Cl   0.010147
    90  Cl  -0.008352
    91  Cl   0.015476
    92  Cl  -0.000639
 Sum of Mulliken charges =  -0.00000
 Mulliken charges with hydrogens summed into heavy atoms:
               1
     1  C   -0.026055
     2  C   -0.036802
     3  C    0.080404
     4  C   -0.366775
     5  C    0.047313
     6  C    0.007894
     7  C   -0.384313
     8  C    0.152954
     9  C    0.042984
    10  C    0.079695
    11  C    0.110853
    12  C    0.149353
    13  C   -0.023972
    14  C    0.115538
    15  C   -0.007720
    16  C   -0.359667
    17  C   -0.000742
    18  C    0.125103
    19  C   -0.010971
    20  C    0.076243
    21  C   -0.021904
    22  C   -0.023983
    23  C   -0.000979
    24  C   -0.027693
    25  C   -0.018575
    26  C    0.033721
    27  C   -0.019753
    28  C    0.007037
    29  C    0.052169
    30  C    0.090179
    31  C   -0.031467
    32  C    0.087458
    33  C   -0.030601
    34  C   -0.376707
    35  C    0.046914
    36  C    0.121498
    37  C    0.040170
    38  C    0.120793
    39  C    0.042611
    40  C    0.002604
    41  C    0.080760
    42  C    0.145900
    43  C   -0.023394
    44  C    0.076339
    45  C    0.143694
    46  C    0.116143
    47  C    0.104333
    48  C    0.125408
    49  C   -0.357056
    50  C   -0.378980
    51  C    0.088464
    52  C    0.091941
    53  C    0.025890
    54  C   -0.016754
    55  C    0.001565
    56  C    0.012351
    57  C    0.048647
    58  C   -0.030802
    59  C    0.056793
    60  C   -0.030555
    61  C   -0.020626
    62  C   -0.022587
    63  C   -0.029452
    64  C    0.057455
    65  C   -0.029882
    66  C    0.037321
    67  C    0.053262
    68  C    0.038343
    69  C   -0.018814
    70  C    0.004702
    71  C   -0.019153
    72  C    0.031218
    73  C   -0.019455
    74  C    0.087882
    75  C    0.026985
    76  C    0.092358
    77  C    0.002051
    78  C   -0.375673
    79  C    0.011120
    80  C   -0.386470
    81  C    0.090282
    82  C    0.088364
    83  C    0.037342
    84  C    0.048591
    85  Cl   0.011634
    86  Cl   0.018888
    87  Cl   0.010658
    88  Cl   0.011530
    89  Cl   0.010147
    90  Cl  -0.008352
    91  Cl   0.015476
    92  Cl  -0.000639
 Electronic spatial extent (au):  <R**2>=          50985.7811
 Charge=              0.0000 electrons
 Dipole moment (field-independent basis, Debye):
    X=              3.7127    Y=             -7.1237    Z=              0.3629  Tot=              8.0414
 Quadrupole moment (field-independent basis, Debye-Ang):
   XX=           -581.6832   YY=           -578.0173   ZZ=           -557.4581
   XY=              0.0320   XZ=              0.6891   YZ=              1.7637
 Traceless Quadrupole moment (field-independent basis, Debye-Ang):
   XX=             -9.2970   YY=             -5.6311   ZZ=             14.9281
   XY=              0.0320   XZ=              0.6891   YZ=              1.7637
 Octapole moment (field-independent basis, Debye-Ang**2):
  XXX=             -7.3266  YYY=             19.8287  ZZZ=            -12.1787  XYY=            -44.6649
  XXY=            -18.3707  XXZ=             11.6824  XZZ=             13.0420  YZZ=             15.9879
  YYZ=            -11.3084  XYZ=             13.3490
 Hexadecapole moment (field-independent basis, Debye-Ang**3):
 XXXX=         -28918.1647 YYYY=         -25161.0464 ZZZZ=         -19622.0303 XXXY=           -206.6691
 XXXZ=             57.7725 YYYX=             10.5532 YYYZ=            -55.8783 ZZZX=            -58.6456
 ZZZY=             12.3941 XXYY=          -8966.2220 XXZZ=          -8102.0877 YYZZ=          -7441.2296
 XXYZ=              6.4667 YYXZ=              3.1455 ZZXY=             75.3190
 N-N= 2.056286855617D+04 E-N=-5.727520119614D+04  KE= 6.841424352955D+03
 No NMR shielding tensors so no spin-rotation constants.
 Leave Link  601 at Tue Jun 28 04:54:09 2022, MaxMem=  1342177280 cpu:              24.3 elap:               1.2
 (Enter /home/mkliu/g16/l9999.exe)
 1\1\GINC-NODE03\FOpt\RB3LYP\6-31G(d,p)\C84Cl8\MKLIU\28-Jun-2022\0\\#P 
 opt b3lyp/6-31G(d, p) empiricaldispersion=GD3\\force\\0,1\C,8.47696866
 32,18.8155545323,10.784532387\C,12.3701853442,20.1210318231,8.95374092
 54\C,8.2651505667,26.879090922,10.5669385056\C,12.4873388046,25.745881
 4817,8.9208723002\C,7.9996597955,19.0438339011,9.4676871925\C,12.04233
 43499,19.4843041043,10.2163935407\C,7.8670447798,27.1004819419,9.10684
 67296\C,11.9047746345,26.1965593278,10.2330643528\C,8.9793958409,19.14
 73567287,8.3766387905\C,12.3202975506,20.1150170579,11.399360988\C,12.
 1113580205,25.510664803,11.3623472786\C,8.9485370762,26.5815248512,8.1
 701150671\C,10.3408151387,18.9921473154,8.6976822899\C,10.2588324137,2
 6.6255871518,8.6388620747\C,10.7927143538,18.7734556646,10.0388365406\
 C,10.6745389282,27.0529326109,10.0346545915\C,9.8704739464,18.70557325
 07,11.0714858958\C,9.5587078731,26.7827808644,11.0258105049\C,10.14644
 11234,19.4061188981,12.3125813074\C,9.8276375205,26.0335925748,12.2405
 434512\C,8.9264927946,19.9617894942,12.8082982945\C,8.7498839608,25.41
 3454896,12.9247450169\C,7.872845175,19.4877443931,11.9253679044\C,7.42
 34194102,25.4883851993,12.3937448886\C,6.724776062,20.2159265495,11.76
 90306703\C,7.1994439276,26.1856611276,11.2291011965\C,6.0948195961,20.
 2979519758,10.4801638739\C,6.2575719109,25.6946693574,10.2485302266\C,
 6.7195028036,19.7275103233,9.3351627906\C,6.6301930182,26.233757291,8.
 994150509\C,6.3913720729,20.3193092714,8.0998370769\C,6.320368123,25.5
 617919372,7.8490124408\C,7.3223754627,20.3182711471,6.981986877\C,7.18
 97938107,25.6328583304,6.6025694321\C,8.6467041055,19.882036563,7.1449
 22822\C,8.6581155098,25.8261412368,7.0104672264\C,9.6967206161,20.5875
 885876,6.4003906516\C,9.6883472407,25.096315365,6.3671320233\C,11.0487
 339987,20.5830480359,6.9037891245\C,12.7378267437,22.1774811659,7.7601
 108308\C,12.7733401036,23.5892385815,7.754048822\C,11.0004900548,25.12
 22348296,6.8930036111\C,11.3736879038,19.7680897715,8.0184971434\C,12.
 9449709393,21.4340462532,8.9396012538\C,12.9286215075,24.2880572474,8.
 9344960046\C,11.2705148103,25.9021270296,8.0140135335\C,13.1879742141,
 22.1568049249,10.157235038\C,13.1466557401,23.5595054247,10.1489637081
 \C,13.1656645594,21.3772479587,11.4782010069\C,13.0622416995,24.329827
 6975,11.4662065801\C,12.4322991493,22.1550793839,12.5535740056\C,12.38
 54068743,23.5035146584,12.5349979683\C,11.3380443522,20.1129487861,12.
 448568026\C,11.0922524114,25.4217663633,12.4001921902\C,11.3307556046,
 21.3922387555,13.0862160588\C,11.23682742,24.1821891301,13.0622038467\
 C,8.8728820623,21.2571800499,13.3824010597\C,8.8801705557,24.130102985
 1,13.5447419923\C,7.6162024221,22.0023659658,13.2539957963\C,7.6324805
 468,23.4091810822,13.3706498348\C,6.5564883221,21.4653147008,12.467981
 2688\C,6.7411687549,24.2378700573,12.6225320253\C,5.7397682591,22.2931
 027035,11.6394850966\C,5.8636749031,23.6989914118,11.6394771506\C,5.44
 48172041,21.5689470373,10.4150601441\C,5.6352936298,24.4252750666,10.3
 879720282\C,5.2494680164,22.2402056147,9.1925780091\C,5.3158421792,23.
 7032254189,9.1715951807\C,5.5967028165,21.5036640241,8.0203938158\C,5.
 6297222529,24.3259126062,7.9323001868\C,5.9390174001,22.1757910856,6.7
 929646407\C,5.958084693,23.5593723731,6.7485614616\C,6.9845919318,21.4
 376842712,6.1463440697\C,6.9578787555,24.2641105129,5.9982157479\C,7.9
 81149091,22.1343864199,5.4738594644\C,7.9503446933,23.5658197909,5.372
 1874615\C,9.3358240416,21.6945950771,5.5835865567\C,9.3598463534,24.10
 41255767,5.2385289419\C,11.8619026564,21.723292153,6.7124958434\C,12.0
 641679713,24.1134469159,6.5003667962\C,10.1853214525,22.8365224265,5.4
 116168987\C,11.4210613332,22.8520762654,5.9745283528\C,10.1276251572,2
 1.9974142221,13.5317543843\C,10.1092913622,23.451841517,13.5728340385\
 Cl,13.8850602651,26.8285744361,8.3706875322\Cl,13.2458058573,24.840378
 2493,5.2910910966\Cl,9.6468975439,24.915987666,3.6093340728\Cl,6.68296
 0646,26.9897434519,5.4638721337\Cl,14.7450690027,24.8899823101,11.9781
 63316\Cl,14.9035514677,20.9553746335,11.9762416465\Cl,7.5076816398,28.
 874974194,8.7636559057\Cl,11.1197590848,28.86069432,10.0752446869\\Ver
 sion=ES64L-G16RevA.03\State=1-A\HF=-6882.6409434\RMSD=4.637e-09\RMSF=6
 .526e-05\Dipole=-1.8258759,-2.4074563,0.9377945\Quadrupole=-3.3704286,
 -0.7431057,4.1135343,-1.8247163,-4.2621863,7.7661103\PG=C01 [X(C84Cl8)
 ]\\@


 LET US LEARN TO DREAM, GENTLEMEN, THEN PERHAPS WE SHALL
 DISCOVER THE TRUTH;  BUT LET US BEWARE OF PUBLISHING
 OUR DREAMS ABROAD BEFORE THEY HAVE BEEN SCRUTINIZED
 BY OUR VIGILANT INTELLECT ... LET US ALWAYS ALLOW
 THE FRUIT TO HANG UNTIL IT IS RIPE.  UNRIPE FRUIT
 BRINGS EVEN THE GROWER BUT LITTLE PROFIT; IT DAMAGES
 THE HEALTH OF THOSE WHO CONSUME IT; IT ENDANGERS
 PARTICULARLY THE YOUTH WHO CANNOT YET DISTINGUISH
 BETWEEN RIPE AND UNRIPE FRUIT.

                                  -- KEKULE, 1890
 Job cpu time:       1 days  3 hours  8 minutes 60.0 seconds.
 Elapsed time:       0 days  1 hours  7 minutes 58.6 seconds.
 File lengths (MBytes):  RWF=   1225 Int=      0 D2E=      0 Chk=    154 Scr=      1
 Normal termination of Gaussian 16 at Tue Jun 28 04:54:11 2022.
