 Entering Gaussian System, Link 0=g16
 Input=8_addons_C84_11_Cl22_rank_3.gjf
 Output=8_addons_C84_11_Cl22_rank_3.log
 Initial command:
 /home/mkliu/g16/l1.exe "/data/scratch/Gau-187458.inp" -scrdir="/data/scratch/"
 Entering Link 1 = /home/mkliu/g16/l1.exe PID=    187459.
  
 Copyright (c) 1988,1990,1992,1993,1995,1998,2003,2009,2016,
            Gaussian, Inc.  All Rights Reserved.
  
 This is part of the Gaussian(R) 16 program.  It is based on
 the Gaussian(R) 09 system (copyright 2009, Gaussian, Inc.),
 the Gaussian(R) 03 system (copyright 2003, Gaussian, Inc.),
 the Gaussian(R) 98 system (copyright 1998, Gaussian, Inc.),
 the Gaussian(R) 94 system (copyright 1995, Gaussian, Inc.),
 the Gaussian 92(TM) system (copyright 1992, Gaussian, Inc.),
 the Gaussian 90(TM) system (copyright 1990, Gaussian, Inc.),
 the Gaussian 88(TM) system (copyright 1988, Gaussian, Inc.),
 the Gaussian 86(TM) system (copyright 1986, Carnegie Mellon
 University), and the Gaussian 82(TM) system (copyright 1983,
 Carnegie Mellon University). Gaussian is a federally registered
 trademark of Gaussian, Inc.
  
 This software contains proprietary and confidential information,
 including trade secrets, belonging to Gaussian, Inc.
  
 This software is provided under written license and may be
 used, copied, transmitted, or stored only in accord with that
 written license.
  
 The following legend is applicable only to US Government
 contracts under FAR:
  
                    RESTRICTED RIGHTS LEGEND
  
 Use, reproduction and disclosure by the US Government is
 subject to restrictions as set forth in subparagraphs (a)
 and (c) of the Commercial Computer Software - Restricted
 Rights clause in FAR 52.227-19.
  
 Gaussian, Inc.
 340 Quinnipiac St., Bldg. 40, Wallingford CT 06492
  
  
 ---------------------------------------------------------------
 Warning -- This program may not be used in any manner that
 competes with the business of Gaussian, Inc. or will provide
 assistance to any competitor of Gaussian, Inc.  The licensee
 of this program is prohibited from giving any competitor of
 Gaussian, Inc. access to this program.  By using this program,
 the user acknowledges that Gaussian, Inc. is engaged in the
 business of creating and licensing software in the field of
 computational chemistry and represents and warrants to the
 licensee that it is not a competitor of Gaussian, Inc. and that
 it will not use this program in any manner prohibited above.
 ---------------------------------------------------------------
  

 Cite this work as:
 Gaussian 16, Revision A.03,
 M. J. Frisch, G. W. Trucks, H. B. Schlegel, G. E. Scuseria, 
 M. A. Robb, J. R. Cheeseman, G. Scalmani, V. Barone, 
 G. A. Petersson, H. Nakatsuji, X. Li, M. Caricato, A. V. Marenich, 
 J. Bloino, B. G. Janesko, R. Gomperts, B. Mennucci, H. P. Hratchian, 
 J. V. Ortiz, A. F. Izmaylov, J. L. Sonnenberg, D. Williams-Young, 
 F. Ding, F. Lipparini, F. Egidi, J. Goings, B. Peng, A. Petrone, 
 T. Henderson, D. Ranasinghe, V. G. Zakrzewski, J. Gao, N. Rega, 
 G. Zheng, W. Liang, M. Hada, M. Ehara, K. Toyota, R. Fukuda, 
 J. Hasegawa, M. Ishida, T. Nakajima, Y. Honda, O. Kitao, H. Nakai, 
 T. Vreven, K. Throssell, J. A. Montgomery, Jr., J. E. Peralta, 
 F. Ogliaro, M. J. Bearpark, J. J. Heyd, E. N. Brothers, K. N. Kudin, 
 V. N. Staroverov, T. A. Keith, R. Kobayashi, J. Normand, 
 K. Raghavachari, A. P. Rendell, J. C. Burant, S. S. Iyengar, 
 J. Tomasi, M. Cossi, J. M. Millam, M. Klene, C. Adamo, R. Cammi, 
 J. W. Ochterski, R. L. Martin, K. Morokuma, O. Farkas, 
 J. B. Foresman, and D. J. Fox, Gaussian, Inc., Wallingford CT, 2016.
 
 ******************************************
 Gaussian 16:  ES64L-G16RevA.03 25-Dec-2016
                27-Jun-2022 
 ******************************************
 %mem=10GB
 %chk=8_addons_C84_11_Cl22_rank_3.chk
 %nprocshared=24
 Will use up to   24 processors via shared memory.
 ------------------------------------------------
 #P opt b3lyp/6-31G(d, p) empiricaldispersion=GD3
 ------------------------------------------------
 1/18=20,19=15,26=3,38=1/1,3;
 2/9=110,12=2,17=6,18=5,40=1/2;
 3/5=1,6=6,7=101,11=2,25=1,30=1,71=1,74=-5,124=31/1,2,3;
 4//1;
 5/5=2,38=5/2;
 6/7=2,8=2,9=2,10=2,28=1/1;
 7//1,2,3,16;
 1/18=20,19=15,26=3/3(2);
 2/9=110/2;
 99//99;
 2/9=110/2;
 3/5=1,6=6,7=101,11=2,25=1,30=1,71=1,74=-5,124=31/1,2,3;
 4/5=5,16=3,69=1/1;
 5/5=2,38=5/2;
 7//1,2,3,16;
 1/18=20,19=15,26=3/3(-5);
 2/9=110/2;
 6/7=2,8=2,9=2,10=2,19=2,28=1/1;
 99/9=1/99;
 Leave Link    1 at Mon Jun 27 03:36:58 2022, MaxMem=  1342177280 cpu:               0.7 elap:               0.1
 (Enter /home/mkliu/g16/l101.exe)
 -----
 force
 -----
 Symbolic Z-matrix:
 Charge =  0 Multiplicity = 1
 C                     8.53535   18.91243   10.73257 
 C                     12.38493   20.15343   8.90684 
 C                     8.22513   27.09733   10.57595 
 C                     12.26215   25.56107   8.93561 
 C                     8.06257   19.11428   9.41416 
 C                     12.0548   19.51776   10.14434 
 C                     7.95635   26.81103   9.11874 
 C                     11.82105   26.11525   10.17549 
 C                     9.01162   19.19612   8.32445 
 C                     12.30286   20.16661   11.33927 
 C                     12.07821   25.45334   11.35661 
 C                     8.9559    26.63707   8.12602 
 C                     10.37094   19.03211   8.63368 
 C                     10.27775   26.69934   8.57715 
 C                     10.82776   18.81509   9.97268 
 C                     10.58226   26.7762   9.99259 
 C                     9.92453   18.77932   11.01843 
 C                     9.61893   26.74329   10.99149 
 C                     10.21688   19.39257   12.27313 
 C                     9.88357   26.04977   12.19478 
 C                     8.93926   19.81965   12.93876 
 C                     8.75741   25.56974   13.06492 
 C                     7.92277   19.50038   11.87045 
 C                     7.43466   25.54678   12.3503 
 C                     6.77552   20.21943   11.72649 
 C                     7.19316   26.22854   11.24126 
 C                     6.20919   20.35483   10.44461 
 C                     6.07503   25.88371   10.29671 
 C                     6.80621   19.78983   9.29929 
 C                     6.71405   26.22779   8.98911 
 C                     6.45806   20.38037   8.07348 
 C                     6.38874   25.54653   7.82994 
 C                     7.36102   20.36338   6.96258 
 C                     7.33459   25.45834   6.75722 
 C                     8.68484   19.91599   7.11085 
 C                     8.66134   25.88805   6.92274 
 C                     9.71823   20.59613   6.35223 
 C                     9.71244   25.14836   6.25215 
 C                     11.07574   20.58549   6.84926 
 C                     12.77624   22.1675   7.70483 
 C                     12.75761   23.59384   7.70662 
 C                     11.04912   25.16063   6.80773 
 C                     11.38379   19.78237   7.95716 
 C                     12.98147   21.43123   8.88679 
 C                     12.91395   24.31327   8.90559 
 C                     11.30856   25.95384   7.9464 
 C                     13.20074   22.14669   10.12583 
 C                     13.15697   23.58288   10.13492 
 C                     12.89368   21.47245   11.32914 
 C                     12.80013   24.21306   11.34402 
 C                     12.44678   22.14448   12.492 
 C                     12.40823   23.50238   12.5002 
 C                     11.38475   20.07589   12.4292 
 C                     11.11613   25.44883   12.38897 
 C                     11.48571   21.30231   13.29033 
 C                     11.38682   24.26709   13.29584 
 C                     8.94322   21.32244   13.18487 
 C                     8.93502   24.10001   13.34396 
 C                     7.73574   22.03008   13.06588 
 C                     7.74554   23.40913   13.1617 
 C                     6.45514   21.41311   12.57512 
 C                     6.63603   24.33012   12.72111 
 C                     5.80591   22.33497   11.56292 
 C                     5.92177   23.71873   11.54393 
 C                     5.56272   21.63477   10.37635 
 C                     5.6901    24.41994   10.35357 
 C                     5.33253   22.29645   9.15795 
 C                     5.36785   23.73279   9.1498 
 C                     5.64976   21.55291   7.99668 
 C                     5.6144    24.35783   7.88898 
 C                     5.96091   22.21185   6.77306 
 C                     5.94576   23.59324   6.72734 
 C                     7.01119   21.46723   6.12341 
 C                     6.99503   24.28551   6.01449 
 C                     7.99877   22.13247   5.43185 
 C                     7.99475   23.57672   5.38505 
 C                     9.3489    21.68084   5.5322 
 C                     9.34655   24.03068   5.47427 
 C                     11.90692   21.70948   6.67061 
 C                     11.88959   24.04073   6.6626 
 C                     10.17512   22.85418   5.42373 
 C                     11.42139   22.86821   5.99389 
 C                     10.14715   22.02263   13.35766 
 C                     10.14108   23.42661   13.4188 
 Cl                    7.93012   28.85759   10.93574 
 Cl                    8.67498   26.52547   14.5957 
 Cl                    11.96053   24.76472   14.92755 
 Cl                    12.04489   20.95916   14.96678 
 Cl                    8.62174   18.98202   14.50094 
 Cl                    5.36732   21.04499   13.96073 
 Cl                    5.46953   24.65787   14.05892 
 Cl                    4.59822   26.88709   10.62804 
 
 ITRead=  0  0  0  0  0  0  0  0  0  0  0  0  0  0  0  0  0  0  0  0
 ITRead=  0  0  0  0  0  0  0  0  0  0  0  0  0  0  0  0  0  0  0  0
 ITRead=  0  0  0  0  0  0  0  0  0  0  0  0  0  0  0  0  0  0  0  0
 ITRead=  0  0  0  0  0  0  0  0  0  0  0  0  0  0  0  0  0  0  0  0
 ITRead=  0  0  0  0  0  0  0  0  0  0  0  0
 MicOpt= -1 -1 -1 -1 -1 -1 -1 -1 -1 -1 -1 -1 -1 -1 -1 -1 -1 -1 -1 -1
 MicOpt= -1 -1 -1 -1 -1 -1 -1 -1 -1 -1 -1 -1 -1 -1 -1 -1 -1 -1 -1 -1
 MicOpt= -1 -1 -1 -1 -1 -1 -1 -1 -1 -1 -1 -1 -1 -1 -1 -1 -1 -1 -1 -1
 MicOpt= -1 -1 -1 -1 -1 -1 -1 -1 -1 -1 -1 -1 -1 -1 -1 -1 -1 -1 -1 -1
 MicOpt= -1 -1 -1 -1 -1 -1 -1 -1 -1 -1 -1 -1
 NAtoms=     92 NQM=       92 NQMF=       0 NMMI=      0 NMMIF=      0
                NMic=       0 NMicF=      0.
                    Isotopes and Nuclear Properties:
 (Nuclear quadrupole moments (NQMom) in fm**2, nuclear magnetic moments (NMagM)
  in nuclear magnetons)

  Atom         1           2           3           4           5           6           7           8           9          10
 IAtWgt=          12          12          12          12          12          12          12          12          12          12
 AtmWgt=  12.0000000  12.0000000  12.0000000  12.0000000  12.0000000  12.0000000  12.0000000  12.0000000  12.0000000  12.0000000
 NucSpn=           0           0           0           0           0           0           0           0           0           0
 AtZEff=  -0.0000000  -0.0000000  -0.0000000  -0.0000000  -0.0000000  -0.0000000  -0.0000000  -0.0000000  -0.0000000  -0.0000000
 NQMom=    0.0000000   0.0000000   0.0000000   0.0000000   0.0000000   0.0000000   0.0000000   0.0000000   0.0000000   0.0000000
 NMagM=    0.0000000   0.0000000   0.0000000   0.0000000   0.0000000   0.0000000   0.0000000   0.0000000   0.0000000   0.0000000
 AtZNuc=   6.0000000   6.0000000   6.0000000   6.0000000   6.0000000   6.0000000   6.0000000   6.0000000   6.0000000   6.0000000

  Atom        11          12          13          14          15          16          17          18          19          20
 IAtWgt=          12          12          12          12          12          12          12          12          12          12
 AtmWgt=  12.0000000  12.0000000  12.0000000  12.0000000  12.0000000  12.0000000  12.0000000  12.0000000  12.0000000  12.0000000
 NucSpn=           0           0           0           0           0           0           0           0           0           0
 AtZEff=  -0.0000000  -0.0000000  -0.0000000  -0.0000000  -0.0000000  -0.0000000  -0.0000000  -0.0000000  -0.0000000  -0.0000000
 NQMom=    0.0000000   0.0000000   0.0000000   0.0000000   0.0000000   0.0000000   0.0000000   0.0000000   0.0000000   0.0000000
 NMagM=    0.0000000   0.0000000   0.0000000   0.0000000   0.0000000   0.0000000   0.0000000   0.0000000   0.0000000   0.0000000
 AtZNuc=   6.0000000   6.0000000   6.0000000   6.0000000   6.0000000   6.0000000   6.0000000   6.0000000   6.0000000   6.0000000

  Atom        21          22          23          24          25          26          27          28          29          30
 IAtWgt=          12          12          12          12          12          12          12          12          12          12
 AtmWgt=  12.0000000  12.0000000  12.0000000  12.0000000  12.0000000  12.0000000  12.0000000  12.0000000  12.0000000  12.0000000
 NucSpn=           0           0           0           0           0           0           0           0           0           0
 AtZEff=  -0.0000000  -0.0000000  -0.0000000  -0.0000000  -0.0000000  -0.0000000  -0.0000000  -0.0000000  -0.0000000  -0.0000000
 NQMom=    0.0000000   0.0000000   0.0000000   0.0000000   0.0000000   0.0000000   0.0000000   0.0000000   0.0000000   0.0000000
 NMagM=    0.0000000   0.0000000   0.0000000   0.0000000   0.0000000   0.0000000   0.0000000   0.0000000   0.0000000   0.0000000
 AtZNuc=   6.0000000   6.0000000   6.0000000   6.0000000   6.0000000   6.0000000   6.0000000   6.0000000   6.0000000   6.0000000

  Atom        31          32          33          34          35          36          37          38          39          40
 IAtWgt=          12          12          12          12          12          12          12          12          12          12
 AtmWgt=  12.0000000  12.0000000  12.0000000  12.0000000  12.0000000  12.0000000  12.0000000  12.0000000  12.0000000  12.0000000
 NucSpn=           0           0           0           0           0           0           0           0           0           0
 AtZEff=  -0.0000000  -0.0000000  -0.0000000  -0.0000000  -0.0000000  -0.0000000  -0.0000000  -0.0000000  -0.0000000  -0.0000000
 NQMom=    0.0000000   0.0000000   0.0000000   0.0000000   0.0000000   0.0000000   0.0000000   0.0000000   0.0000000   0.0000000
 NMagM=    0.0000000   0.0000000   0.0000000   0.0000000   0.0000000   0.0000000   0.0000000   0.0000000   0.0000000   0.0000000
 AtZNuc=   6.0000000   6.0000000   6.0000000   6.0000000   6.0000000   6.0000000   6.0000000   6.0000000   6.0000000   6.0000000

  Atom        41          42          43          44          45          46          47          48          49          50
 IAtWgt=          12          12          12          12          12          12          12          12          12          12
 AtmWgt=  12.0000000  12.0000000  12.0000000  12.0000000  12.0000000  12.0000000  12.0000000  12.0000000  12.0000000  12.0000000
 NucSpn=           0           0           0           0           0           0           0           0           0           0
 AtZEff=  -0.0000000  -0.0000000  -0.0000000  -0.0000000  -0.0000000  -0.0000000  -0.0000000  -0.0000000  -0.0000000  -0.0000000
 NQMom=    0.0000000   0.0000000   0.0000000   0.0000000   0.0000000   0.0000000   0.0000000   0.0000000   0.0000000   0.0000000
 NMagM=    0.0000000   0.0000000   0.0000000   0.0000000   0.0000000   0.0000000   0.0000000   0.0000000   0.0000000   0.0000000
 AtZNuc=   6.0000000   6.0000000   6.0000000   6.0000000   6.0000000   6.0000000   6.0000000   6.0000000   6.0000000   6.0000000

  Atom        51          52          53          54          55          56          57          58          59          60
 IAtWgt=          12          12          12          12          12          12          12          12          12          12
 AtmWgt=  12.0000000  12.0000000  12.0000000  12.0000000  12.0000000  12.0000000  12.0000000  12.0000000  12.0000000  12.0000000
 NucSpn=           0           0           0           0           0           0           0           0           0           0
 AtZEff=  -0.0000000  -0.0000000  -0.0000000  -0.0000000  -0.0000000  -0.0000000  -0.0000000  -0.0000000  -0.0000000  -0.0000000
 NQMom=    0.0000000   0.0000000   0.0000000   0.0000000   0.0000000   0.0000000   0.0000000   0.0000000   0.0000000   0.0000000
 NMagM=    0.0000000   0.0000000   0.0000000   0.0000000   0.0000000   0.0000000   0.0000000   0.0000000   0.0000000   0.0000000
 AtZNuc=   6.0000000   6.0000000   6.0000000   6.0000000   6.0000000   6.0000000   6.0000000   6.0000000   6.0000000   6.0000000

  Atom        61          62          63          64          65          66          67          68          69          70
 IAtWgt=          12          12          12          12          12          12          12          12          12          12
 AtmWgt=  12.0000000  12.0000000  12.0000000  12.0000000  12.0000000  12.0000000  12.0000000  12.0000000  12.0000000  12.0000000
 NucSpn=           0           0           0           0           0           0           0           0           0           0
 AtZEff=  -0.0000000  -0.0000000  -0.0000000  -0.0000000  -0.0000000  -0.0000000  -0.0000000  -0.0000000  -0.0000000  -0.0000000
 NQMom=    0.0000000   0.0000000   0.0000000   0.0000000   0.0000000   0.0000000   0.0000000   0.0000000   0.0000000   0.0000000
 NMagM=    0.0000000   0.0000000   0.0000000   0.0000000   0.0000000   0.0000000   0.0000000   0.0000000   0.0000000   0.0000000
 AtZNuc=   6.0000000   6.0000000   6.0000000   6.0000000   6.0000000   6.0000000   6.0000000   6.0000000   6.0000000   6.0000000

  Atom        71          72          73          74          75          76          77          78          79          80
 IAtWgt=          12          12          12          12          12          12          12          12          12          12
 AtmWgt=  12.0000000  12.0000000  12.0000000  12.0000000  12.0000000  12.0000000  12.0000000  12.0000000  12.0000000  12.0000000
 NucSpn=           0           0           0           0           0           0           0           0           0           0
 AtZEff=  -0.0000000  -0.0000000  -0.0000000  -0.0000000  -0.0000000  -0.0000000  -0.0000000  -0.0000000  -0.0000000  -0.0000000
 NQMom=    0.0000000   0.0000000   0.0000000   0.0000000   0.0000000   0.0000000   0.0000000   0.0000000   0.0000000   0.0000000
 NMagM=    0.0000000   0.0000000   0.0000000   0.0000000   0.0000000   0.0000000   0.0000000   0.0000000   0.0000000   0.0000000
 AtZNuc=   6.0000000   6.0000000   6.0000000   6.0000000   6.0000000   6.0000000   6.0000000   6.0000000   6.0000000   6.0000000

  Atom        81          82          83          84          85          86          87          88          89          90
 IAtWgt=          12          12          12          12          35          35          35          35          35          35
 AtmWgt=  12.0000000  12.0000000  12.0000000  12.0000000  34.9688527  34.9688527  34.9688527  34.9688527  34.9688527  34.9688527
 NucSpn=           0           0           0           0           3           3           3           3           3           3
 AtZEff=  -0.0000000  -0.0000000  -0.0000000  -0.0000000  -0.0000000  -0.0000000  -0.0000000  -0.0000000  -0.0000000  -0.0000000
 NQMom=    0.0000000   0.0000000   0.0000000   0.0000000  -8.1650000  -8.1650000  -8.1650000  -8.1650000  -8.1650000  -8.1650000
 NMagM=    0.0000000   0.0000000   0.0000000   0.0000000   0.8218740   0.8218740   0.8218740   0.8218740   0.8218740   0.8218740
 AtZNuc=   6.0000000   6.0000000   6.0000000   6.0000000  17.0000000  17.0000000  17.0000000  17.0000000  17.0000000  17.0000000

  Atom        91          92
 IAtWgt=          35          35
 AtmWgt=  34.9688527  34.9688527
 NucSpn=           3           3
 AtZEff=  -0.0000000  -0.0000000
 NQMom=   -8.1650000  -8.1650000
 NMagM=    0.8218740   0.8218740
 AtZNuc=  17.0000000  17.0000000
 Leave Link  101 at Mon Jun 27 03:36:58 2022, MaxMem=  1342177280 cpu:               6.6 elap:               0.3
 (Enter /home/mkliu/g16/l103.exe)

 GradGradGradGradGradGradGradGradGradGradGradGradGradGradGradGradGradGrad
 Berny optimization.
 Initialization pass.
                           ----------------------------
                           !    Initial Parameters    !
                           ! (Angstroms and Degrees)  !
 --------------------------                            --------------------------
 ! Name  Definition              Value          Derivative Info.                !
 --------------------------------------------------------------------------------
 ! R1    R(1,5)                  1.4151         estimate D2E/DX2                !
 ! R2    R(1,17)                 1.4245         estimate D2E/DX2                !
 ! R3    R(1,23)                 1.4198         estimate D2E/DX2                !
 ! R4    R(2,6)                  1.4299         estimate D2E/DX2                !
 ! R5    R(2,43)                 1.4289         estimate D2E/DX2                !
 ! R6    R(2,44)                 1.4103         estimate D2E/DX2                !
 ! R7    R(3,7)                  1.5092         estimate D2E/DX2                !
 ! R8    R(3,18)                 1.4969         estimate D2E/DX2                !
 ! R9    R(3,26)                 1.5041         estimate D2E/DX2                !
 ! R10   R(3,85)                 1.8207         estimate D2E/DX2                !
 ! R11   R(4,8)                  1.4279         estimate D2E/DX2                !
 ! R12   R(4,45)                 1.4081         estimate D2E/DX2                !
 ! R13   R(4,46)                 1.429          estimate D2E/DX2                !
 ! R14   R(5,9)                  1.4474         estimate D2E/DX2                !
 ! R15   R(5,29)                 1.4311         estimate D2E/DX2                !
 ! R16   R(6,10)                 1.3822         estimate D2E/DX2                !
 ! R17   R(6,15)                 1.4244         estimate D2E/DX2                !
 ! R18   R(7,12)                 1.4195         estimate D2E/DX2                !
 ! R19   R(7,30)                 1.3785         estimate D2E/DX2                !
 ! R20   R(8,11)                 1.3781         estimate D2E/DX2                !
 ! R21   R(8,16)                 1.416          estimate D2E/DX2                !
 ! R22   R(9,13)                 1.4037         estimate D2E/DX2                !
 ! R23   R(9,35)                 1.4484         estimate D2E/DX2                !
 ! R24   R(10,49)                1.4333         estimate D2E/DX2                !
 ! R25   R(10,53)                1.428          estimate D2E/DX2                !
 ! R26   R(11,50)                1.4351         estimate D2E/DX2                !
 ! R27   R(11,54)                1.4112         estimate D2E/DX2                !
 ! R28   R(12,14)                1.3981         estimate D2E/DX2                !
 ! R29   R(12,36)                1.4476         estimate D2E/DX2                !
 ! R30   R(13,15)                1.4313         estimate D2E/DX2                !
 ! R31   R(13,43)                1.4305         estimate D2E/DX2                !
 ! R32   R(14,16)                1.4499         estimate D2E/DX2                !
 ! R33   R(14,46)                1.4199         estimate D2E/DX2                !
 ! R34   R(15,17)                1.3823         estimate D2E/DX2                !
 ! R35   R(16,18)                1.3881         estimate D2E/DX2                !
 ! R36   R(17,19)                1.4268         estimate D2E/DX2                !
 ! R37   R(18,20)                1.4138         estimate D2E/DX2                !
 ! R38   R(19,21)                1.5026         estimate D2E/DX2                !
 ! R39   R(19,53)                1.3621         estimate D2E/DX2                !
 ! R40   R(20,22)                1.5019         estimate D2E/DX2                !
 ! R41   R(20,54)                1.3849         estimate D2E/DX2                !
 ! R42   R(21,23)                1.5088         estimate D2E/DX2                !
 ! R43   R(21,57)                1.5228         estimate D2E/DX2                !
 ! R44   R(21,89)                1.8008         estimate D2E/DX2                !
 ! R45   R(22,24)                1.5036         estimate D2E/DX2                !
 ! R46   R(22,58)                1.5065         estimate D2E/DX2                !
 ! R47   R(22,86)                1.8065         estimate D2E/DX2                !
 ! R48   R(23,25)                1.3616         estimate D2E/DX2                !
 ! R49   R(24,26)                1.324          estimate D2E/DX2                !
 ! R50   R(24,62)                1.5019         estimate D2E/DX2                !
 ! R51   R(25,27)                1.4079         estimate D2E/DX2                !
 ! R52   R(25,61)                1.4992         estimate D2E/DX2                !
 ! R53   R(26,28)                1.5038         estimate D2E/DX2                !
 ! R54   R(27,29)                1.4098         estimate D2E/DX2                !
 ! R55   R(27,65)                1.4356         estimate D2E/DX2                !
 ! R56   R(28,30)                1.4955         estimate D2E/DX2                !
 ! R57   R(28,66)                1.5146         estimate D2E/DX2                !
 ! R58   R(28,92)                1.8159         estimate D2E/DX2                !
 ! R59   R(29,31)                1.4045         estimate D2E/DX2                !
 ! R60   R(30,32)                1.3833         estimate D2E/DX2                !
 ! R61   R(31,33)                1.4317         estimate D2E/DX2                !
 ! R62   R(31,69)                1.4262         estimate D2E/DX2                !
 ! R63   R(32,34)                1.4329         estimate D2E/DX2                !
 ! R64   R(32,70)                1.4199         estimate D2E/DX2                !
 ! R65   R(33,35)                1.4052         estimate D2E/DX2                !
 ! R66   R(33,73)                1.4301         estimate D2E/DX2                !
 ! R67   R(34,36)                1.4044         estimate D2E/DX2                !
 ! R68   R(34,74)                1.4292         estimate D2E/DX2                !
 ! R69   R(35,37)                1.4512         estimate D2E/DX2                !
 ! R70   R(36,38)                1.4497         estimate D2E/DX2                !
 ! R71   R(37,39)                1.4457         estimate D2E/DX2                !
 ! R72   R(37,77)                1.4091         estimate D2E/DX2                !
 ! R73   R(38,42)                1.4476         estimate D2E/DX2                !
 ! R74   R(38,78)                1.41           estimate D2E/DX2                !
 ! R75   R(39,43)                1.4026         estimate D2E/DX2                !
 ! R76   R(39,79)                1.4093         estimate D2E/DX2                !
 ! R77   R(40,41)                1.4265         estimate D2E/DX2                !
 ! R78   R(40,44)                1.4076         estimate D2E/DX2                !
 ! R79   R(40,79)                1.4266         estimate D2E/DX2                !
 ! R80   R(41,45)                1.407          estimate D2E/DX2                !
 ! R81   R(41,80)                1.4294         estimate D2E/DX2                !
 ! R82   R(42,46)                1.4118         estimate D2E/DX2                !
 ! R83   R(42,80)                1.4077         estimate D2E/DX2                !
 ! R84   R(44,47)                1.4475         estimate D2E/DX2                !
 ! R85   R(45,48)                1.4504         estimate D2E/DX2                !
 ! R86   R(47,48)                1.4369         estimate D2E/DX2                !
 ! R87   R(47,49)                1.4131         estimate D2E/DX2                !
 ! R88   R(48,50)                1.4094         estimate D2E/DX2                !
 ! R89   R(49,51)                1.4155         estimate D2E/DX2                !
 ! R90   R(50,52)                1.4126         estimate D2E/DX2                !
 ! R91   R(51,52)                1.3585         estimate D2E/DX2                !
 ! R92   R(51,55)                1.5067         estimate D2E/DX2                !
 ! R93   R(52,56)                1.5037         estimate D2E/DX2                !
 ! R94   R(53,55)                1.5019         estimate D2E/DX2                !
 ! R95   R(54,56)                1.514          estimate D2E/DX2                !
 ! R96   R(55,83)                1.5216         estimate D2E/DX2                !
 ! R97   R(55,88)                1.8003         estimate D2E/DX2                !
 ! R98   R(56,84)                1.5078         estimate D2E/DX2                !
 ! R99   R(56,87)                1.7998         estimate D2E/DX2                !
 ! R100  R(57,59)                1.4046         estimate D2E/DX2                !
 ! R101  R(57,83)                1.4034         estimate D2E/DX2                !
 ! R102  R(58,60)                1.3876         estimate D2E/DX2                !
 ! R103  R(58,84)                1.3833         estimate D2E/DX2                !
 ! R104  R(59,60)                1.3824         estimate D2E/DX2                !
 ! R105  R(59,61)                1.5038         estimate D2E/DX2                !
 ! R106  R(60,62)                1.5078         estimate D2E/DX2                !
 ! R107  R(61,63)                1.5152         estimate D2E/DX2                !
 ! R108  R(61,90)                1.7997         estimate D2E/DX2                !
 ! R109  R(62,64)                1.5066         estimate D2E/DX2                !
 ! R110  R(62,91)                1.805          estimate D2E/DX2                !
 ! R111  R(63,64)                1.3887         estimate D2E/DX2                !
 ! R112  R(63,65)                1.3991         estimate D2E/DX2                !
 ! R113  R(64,66)                1.4008         estimate D2E/DX2                !
 ! R114  R(65,67)                1.4055         estimate D2E/DX2                !
 ! R115  R(66,68)                1.4231         estimate D2E/DX2                !
 ! R116  R(67,68)                1.4368         estimate D2E/DX2                !
 ! R117  R(67,69)                1.4149         estimate D2E/DX2                !
 ! R118  R(68,70)                1.4287         estimate D2E/DX2                !
 ! R119  R(69,71)                1.4242         estimate D2E/DX2                !
 ! R120  R(70,72)                1.4296         estimate D2E/DX2                !
 ! R121  R(71,72)                1.3822         estimate D2E/DX2                !
 ! R122  R(71,73)                1.4421         estimate D2E/DX2                !
 ! R123  R(72,74)                1.4451         estimate D2E/DX2                !
 ! R124  R(73,75)                1.377          estimate D2E/DX2                !
 ! R125  R(74,76)                1.3777         estimate D2E/DX2                !
 ! R126  R(75,76)                1.445          estimate D2E/DX2                !
 ! R127  R(75,77)                1.4272         estimate D2E/DX2                !
 ! R128  R(76,78)                1.4288         estimate D2E/DX2                !
 ! R129  R(77,81)                1.4391         estimate D2E/DX2                !
 ! R130  R(78,81)                1.4399         estimate D2E/DX2                !
 ! R131  R(79,82)                1.427          estimate D2E/DX2                !
 ! R132  R(80,82)                1.4287         estimate D2E/DX2                !
 ! R133  R(81,82)                1.3706         estimate D2E/DX2                !
 ! R134  R(83,84)                1.4053         estimate D2E/DX2                !
 ! A1    A(5,1,17)             121.7424         estimate D2E/DX2                !
 ! A2    A(5,1,23)             122.921          estimate D2E/DX2                !
 ! A3    A(17,1,23)            107.3757         estimate D2E/DX2                !
 ! A4    A(6,2,43)             107.3372         estimate D2E/DX2                !
 ! A5    A(6,2,44)             120.8475         estimate D2E/DX2                !
 ! A6    A(43,2,44)            121.4782         estimate D2E/DX2                !
 ! A7    A(7,3,18)             112.8922         estimate D2E/DX2                !
 ! A8    A(7,3,26)             101.2635         estimate D2E/DX2                !
 ! A9    A(7,3,85)             110.2035         estimate D2E/DX2                !
 ! A10   A(18,3,26)            112.2989         estimate D2E/DX2                !
 ! A11   A(18,3,85)            108.9463         estimate D2E/DX2                !
 ! A12   A(26,3,85)            111.0906         estimate D2E/DX2                !
 ! A13   A(8,4,45)             120.3593         estimate D2E/DX2                !
 ! A14   A(8,4,46)             106.7538         estimate D2E/DX2                !
 ! A15   A(45,4,46)            122.5264         estimate D2E/DX2                !
 ! A16   A(1,5,9)              119.3701         estimate D2E/DX2                !
 ! A17   A(1,5,29)             115.8126         estimate D2E/DX2                !
 ! A18   A(9,5,29)             119.2437         estimate D2E/DX2                !
 ! A19   A(2,6,10)             119.874          estimate D2E/DX2                !
 ! A20   A(2,6,15)             108.2948         estimate D2E/DX2                !
 ! A21   A(10,6,15)            119.3655         estimate D2E/DX2                !
 ! A22   A(3,7,12)             124.9678         estimate D2E/DX2                !
 ! A23   A(3,7,30)             109.3637         estimate D2E/DX2                !
 ! A24   A(12,7,30)            121.1298         estimate D2E/DX2                !
 ! A25   A(4,8,11)             120.0083         estimate D2E/DX2                !
 ! A26   A(4,8,16)             109.8315         estimate D2E/DX2                !
 ! A27   A(11,8,16)            119.8778         estimate D2E/DX2                !
 ! A28   A(5,9,13)             117.5502         estimate D2E/DX2                !
 ! A29   A(5,9,35)             120.7314         estimate D2E/DX2                !
 ! A30   A(13,9,35)            117.4611         estimate D2E/DX2                !
 ! A31   A(6,10,49)            119.707          estimate D2E/DX2                !
 ! A32   A(6,10,53)            120.9746         estimate D2E/DX2                !
 ! A33   A(49,10,53)           109.1656         estimate D2E/DX2                !
 ! A34   A(8,11,50)            120.0943         estimate D2E/DX2                !
 ! A35   A(8,11,54)            120.0858         estimate D2E/DX2                !
 ! A36   A(50,11,54)           110.2795         estimate D2E/DX2                !
 ! A37   A(7,12,14)            115.7625         estimate D2E/DX2                !
 ! A38   A(7,12,36)            120.0952         estimate D2E/DX2                !
 ! A39   A(14,12,36)           118.923          estimate D2E/DX2                !
 ! A40   A(9,13,15)            122.2001         estimate D2E/DX2                !
 ! A41   A(9,13,43)            121.3452         estimate D2E/DX2                !
 ! A42   A(15,13,43)           107.2147         estimate D2E/DX2                !
 ! A43   A(12,14,16)           121.0612         estimate D2E/DX2                !
 ! A44   A(12,14,46)           121.3084         estimate D2E/DX2                !
 ! A45   A(16,14,46)           108.0006         estimate D2E/DX2                !
 ! A46   A(6,15,13)            108.2333         estimate D2E/DX2                !
 ! A47   A(6,15,17)            118.9796         estimate D2E/DX2                !
 ! A48   A(13,15,17)           120.2064         estimate D2E/DX2                !
 ! A49   A(8,16,14)            106.5658         estimate D2E/DX2                !
 ! A50   A(8,16,18)            120.2073         estimate D2E/DX2                !
 ! A51   A(14,16,18)           123.7454         estimate D2E/DX2                !
 ! A52   A(1,17,15)            118.8809         estimate D2E/DX2                !
 ! A53   A(1,17,19)            109.6399         estimate D2E/DX2                !
 ! A54   A(15,17,19)           121.3505         estimate D2E/DX2                !
 ! A55   A(3,18,16)            116.1559         estimate D2E/DX2                !
 ! A56   A(3,18,20)            121.7738         estimate D2E/DX2                !
 ! A57   A(16,18,20)           119.6154         estimate D2E/DX2                !
 ! A58   A(17,19,21)           109.7248         estimate D2E/DX2                !
 ! A59   A(17,19,53)           119.4765         estimate D2E/DX2                !
 ! A60   A(21,19,53)           122.3915         estimate D2E/DX2                !
 ! A61   A(18,20,22)           120.6308         estimate D2E/DX2                !
 ! A62   A(18,20,54)           119.9183         estimate D2E/DX2                !
 ! A63   A(22,20,54)           116.5765         estimate D2E/DX2                !
 ! A64   A(19,21,23)           101.4803         estimate D2E/DX2                !
 ! A65   A(19,21,57)           110.4799         estimate D2E/DX2                !
 ! A66   A(19,21,89)           113.7039         estimate D2E/DX2                !
 ! A67   A(23,21,57)           108.9661         estimate D2E/DX2                !
 ! A68   A(23,21,89)           113.3914         estimate D2E/DX2                !
 ! A69   A(57,21,89)           108.6199         estimate D2E/DX2                !
 ! A70   A(20,22,24)           112.9013         estimate D2E/DX2                !
 ! A71   A(20,22,58)           109.3126         estimate D2E/DX2                !
 ! A72   A(20,22,86)           110.8572         estimate D2E/DX2                !
 ! A73   A(24,22,58)           100.1861         estimate D2E/DX2                !
 ! A74   A(24,22,86)           111.7564         estimate D2E/DX2                !
 ! A75   A(58,22,86)           111.3811         estimate D2E/DX2                !
 ! A76   A(1,23,21)            111.372          estimate D2E/DX2                !
 ! A77   A(1,23,25)            119.8348         estimate D2E/DX2                !
 ! A78   A(21,23,25)           122.057          estimate D2E/DX2                !
 ! A79   A(22,24,26)           123.4141         estimate D2E/DX2                !
 ! A80   A(22,24,62)           111.2735         estimate D2E/DX2                !
 ! A81   A(26,24,62)           121.7993         estimate D2E/DX2                !
 ! A82   A(23,25,27)           119.0764         estimate D2E/DX2                !
 ! A83   A(23,25,61)           122.7297         estimate D2E/DX2                !
 ! A84   A(27,25,61)           110.6607         estimate D2E/DX2                !
 ! A85   A(3,26,24)            122.8723         estimate D2E/DX2                !
 ! A86   A(3,26,28)            111.393          estimate D2E/DX2                !
 ! A87   A(24,26,28)           122.9343         estimate D2E/DX2                !
 ! A88   A(25,27,29)           122.0591         estimate D2E/DX2                !
 ! A89   A(25,27,65)           108.0702         estimate D2E/DX2                !
 ! A90   A(29,27,65)           120.6245         estimate D2E/DX2                !
 ! A91   A(26,28,30)           100.2961         estimate D2E/DX2                !
 ! A92   A(26,28,66)           112.7684         estimate D2E/DX2                !
 ! A93   A(26,28,92)           111.3086         estimate D2E/DX2                !
 ! A94   A(30,28,66)           111.3318         estimate D2E/DX2                !
 ! A95   A(30,28,92)           112.3277         estimate D2E/DX2                !
 ! A96   A(66,28,92)           108.6912         estimate D2E/DX2                !
 ! A97   A(5,29,27)            119.72           estimate D2E/DX2                !
 ! A98   A(5,29,31)            119.0887         estimate D2E/DX2                !
 ! A99   A(27,29,31)           115.8223         estimate D2E/DX2                !
 ! A100  A(7,30,28)            113.5898         estimate D2E/DX2                !
 ! A101  A(7,30,32)            119.9399         estimate D2E/DX2                !
 ! A102  A(28,30,32)           121.2569         estimate D2E/DX2                !
 ! A103  A(29,31,33)           121.0576         estimate D2E/DX2                !
 ! A104  A(29,31,69)           122.2198         estimate D2E/DX2                !
 ! A105  A(33,31,69)           108.9909         estimate D2E/DX2                !
 ! A106  A(30,32,34)           120.1597         estimate D2E/DX2                !
 ! A107  A(30,32,70)           120.3778         estimate D2E/DX2                !
 ! A108  A(34,32,70)           109.852          estimate D2E/DX2                !
 ! A109  A(31,33,35)           121.0691         estimate D2E/DX2                !
 ! A110  A(31,33,73)           106.9706         estimate D2E/DX2                !
 ! A111  A(35,33,73)           122.5556         estimate D2E/DX2                !
 ! A112  A(32,34,36)           121.101          estimate D2E/DX2                !
 ! A113  A(32,34,74)           106.424          estimate D2E/DX2                !
 ! A114  A(36,34,74)           122.4662         estimate D2E/DX2                !
 ! A115  A(9,35,33)            117.3348         estimate D2E/DX2                !
 ! A116  A(9,35,37)            120.6836         estimate D2E/DX2                !
 ! A117  A(33,35,37)           117.8056         estimate D2E/DX2                !
 ! A118  A(12,36,34)           116.6476         estimate D2E/DX2                !
 ! A119  A(12,36,38)           120.0634         estimate D2E/DX2                !
 ! A120  A(34,36,38)           118.3156         estimate D2E/DX2                !
 ! A121  A(35,37,39)           119.0445         estimate D2E/DX2                !
 ! A122  A(35,37,77)           118.579          estimate D2E/DX2                !
 ! A123  A(39,37,77)           116.8638         estimate D2E/DX2                !
 ! A124  A(36,38,42)           119.1852         estimate D2E/DX2                !
 ! A125  A(36,38,78)           118.1314         estimate D2E/DX2                !
 ! A126  A(42,38,78)           117.2615         estimate D2E/DX2                !
 ! A127  A(37,39,43)           118.8167         estimate D2E/DX2                !
 ! A128  A(37,39,79)           120.2886         estimate D2E/DX2                !
 ! A129  A(43,39,79)           115.2943         estimate D2E/DX2                !
 ! A130  A(41,40,44)           121.5935         estimate D2E/DX2                !
 ! A131  A(41,40,79)           108.2993         estimate D2E/DX2                !
 ! A132  A(44,40,79)           121.9839         estimate D2E/DX2                !
 ! A133  A(40,41,45)           120.724          estimate D2E/DX2                !
 ! A134  A(40,41,80)           108.6408         estimate D2E/DX2                !
 ! A135  A(45,41,80)           122.0078         estimate D2E/DX2                !
 ! A136  A(38,42,46)           118.9471         estimate D2E/DX2                !
 ! A137  A(38,42,80)           120.3311         estimate D2E/DX2                !
 ! A138  A(46,42,80)           114.8614         estimate D2E/DX2                !
 ! A139  A(2,43,13)            108.5388         estimate D2E/DX2                !
 ! A140  A(2,43,39)            122.0153         estimate D2E/DX2                !
 ! A141  A(13,43,39)           121.2211         estimate D2E/DX2                !
 ! A142  A(2,44,40)            115.0994         estimate D2E/DX2                !
 ! A143  A(2,44,47)            119.9827         estimate D2E/DX2                !
 ! A144  A(40,44,47)           118.8382         estimate D2E/DX2                !
 ! A145  A(4,45,41)            114.8254         estimate D2E/DX2                !
 ! A146  A(4,45,48)            120.3794         estimate D2E/DX2                !
 ! A147  A(41,45,48)           118.907          estimate D2E/DX2                !
 ! A148  A(4,46,14)            108.7378         estimate D2E/DX2                !
 ! A149  A(4,46,42)            121.7706         estimate D2E/DX2                !
 ! A150  A(14,46,42)           121.3235         estimate D2E/DX2                !
 ! A151  A(44,47,48)           119.6593         estimate D2E/DX2                !
 ! A152  A(44,47,49)           117.3981         estimate D2E/DX2                !
 ! A153  A(48,47,49)           117.7033         estimate D2E/DX2                !
 ! A154  A(45,48,47)           120.2029         estimate D2E/DX2                !
 ! A155  A(45,48,50)           117.3568         estimate D2E/DX2                !
 ! A156  A(47,48,50)           117.3904         estimate D2E/DX2                !
 ! A157  A(10,49,47)           122.0245         estimate D2E/DX2                !
 ! A158  A(10,49,51)           107.2535         estimate D2E/DX2                !
 ! A159  A(47,49,51)           122.7958         estimate D2E/DX2                !
 ! A160  A(11,50,48)           121.4196         estimate D2E/DX2                !
 ! A161  A(11,50,52)           106.7416         estimate D2E/DX2                !
 ! A162  A(48,50,52)           123.193          estimate D2E/DX2                !
 ! A163  A(49,51,52)           119.2413         estimate D2E/DX2                !
 ! A164  A(49,51,55)           111.7958         estimate D2E/DX2                !
 ! A165  A(52,51,55)           122.5073         estimate D2E/DX2                !
 ! A166  A(50,52,51)           119.3457         estimate D2E/DX2                !
 ! A167  A(50,52,56)           111.4494         estimate D2E/DX2                !
 ! A168  A(51,52,56)           122.0601         estimate D2E/DX2                !
 ! A169  A(10,53,19)           119.7157         estimate D2E/DX2                !
 ! A170  A(10,53,55)           110.0306         estimate D2E/DX2                !
 ! A171  A(19,53,55)           122.2071         estimate D2E/DX2                !
 ! A172  A(11,54,20)           120.1848         estimate D2E/DX2                !
 ! A173  A(11,54,56)           108.5904         estimate D2E/DX2                !
 ! A174  A(20,54,56)           125.577          estimate D2E/DX2                !
 ! A175  A(51,55,53)           101.2737         estimate D2E/DX2                !
 ! A176  A(51,55,83)           108.6612         estimate D2E/DX2                !
 ! A177  A(51,55,88)           113.692          estimate D2E/DX2                !
 ! A178  A(53,55,83)           110.6585         estimate D2E/DX2                !
 ! A179  A(53,55,88)           113.5249         estimate D2E/DX2                !
 ! A180  A(83,55,88)           108.8016         estimate D2E/DX2                !
 ! A181  A(52,56,54)           101.6221         estimate D2E/DX2                !
 ! A182  A(52,56,84)           108.7165         estimate D2E/DX2                !
 ! A183  A(52,56,87)           113.8157         estimate D2E/DX2                !
 ! A184  A(54,56,84)           109.6469         estimate D2E/DX2                !
 ! A185  A(54,56,87)           112.5959         estimate D2E/DX2                !
 ! A186  A(84,56,87)           110.0935         estimate D2E/DX2                !
 ! A187  A(21,57,59)           118.7671         estimate D2E/DX2                !
 ! A188  A(21,57,83)           120.9628         estimate D2E/DX2                !
 ! A189  A(59,57,83)           119.7715         estimate D2E/DX2                !
 ! A190  A(22,58,60)           111.1221         estimate D2E/DX2                !
 ! A191  A(22,58,84)           125.9948         estimate D2E/DX2                !
 ! A192  A(60,58,84)           120.8045         estimate D2E/DX2                !
 ! A193  A(57,59,60)           119.3805         estimate D2E/DX2                !
 ! A194  A(57,59,61)           123.5739         estimate D2E/DX2                !
 ! A195  A(60,59,61)           115.9721         estimate D2E/DX2                !
 ! A196  A(58,60,59)           120.7885         estimate D2E/DX2                !
 ! A197  A(58,60,62)           111.4113         estimate D2E/DX2                !
 ! A198  A(59,60,62)           125.7234         estimate D2E/DX2                !
 ! A199  A(25,61,59)           109.2327         estimate D2E/DX2                !
 ! A200  A(25,61,63)           101.4109         estimate D2E/DX2                !
 ! A201  A(25,61,90)           113.7109         estimate D2E/DX2                !
 ! A202  A(59,61,63)           109.4674         estimate D2E/DX2                !
 ! A203  A(59,61,90)           110.3284         estimate D2E/DX2                !
 ! A204  A(63,61,90)           112.3201         estimate D2E/DX2                !
 ! A205  A(24,62,60)           100.1182         estimate D2E/DX2                !
 ! A206  A(24,62,64)           112.8266         estimate D2E/DX2                !
 ! A207  A(24,62,91)           112.3064         estimate D2E/DX2                !
 ! A208  A(60,62,64)           109.2274         estimate D2E/DX2                !
 ! A209  A(60,62,91)           111.7098         estimate D2E/DX2                !
 ! A210  A(64,62,91)           110.2691         estimate D2E/DX2                !
 ! A211  A(61,63,64)           125.4236         estimate D2E/DX2                !
 ! A212  A(61,63,65)           109.667          estimate D2E/DX2                !
 ! A213  A(64,63,65)           120.1049         estimate D2E/DX2                !
 ! A214  A(62,64,63)           115.6727         estimate D2E/DX2                !
 ! A215  A(62,64,66)           122.632          estimate D2E/DX2                !
 ! A216  A(63,64,66)           119.7753         estimate D2E/DX2                !
 ! A217  A(27,65,63)           109.124          estimate D2E/DX2                !
 ! A218  A(27,65,67)           122.3261         estimate D2E/DX2                !
 ! A219  A(63,65,67)           121.8765         estimate D2E/DX2                !
 ! A220  A(28,66,64)           118.2705         estimate D2E/DX2                !
 ! A221  A(28,66,68)           119.5026         estimate D2E/DX2                !
 ! A222  A(64,66,68)           120.9675         estimate D2E/DX2                !
 ! A223  A(65,67,68)           118.1345         estimate D2E/DX2                !
 ! A224  A(65,67,69)           115.3009         estimate D2E/DX2                !
 ! A225  A(68,67,69)           121.0081         estimate D2E/DX2                !
 ! A226  A(66,68,67)           118.9129         estimate D2E/DX2                !
 ! A227  A(66,68,70)           119.7478         estimate D2E/DX2                !
 ! A228  A(67,68,70)           116.5262         estimate D2E/DX2                !
 ! A229  A(31,69,67)           120.9903         estimate D2E/DX2                !
 ! A230  A(31,69,71)           107.6276         estimate D2E/DX2                !
 ! A231  A(67,69,71)           120.7303         estimate D2E/DX2                !
 ! A232  A(32,70,68)           119.8059         estimate D2E/DX2                !
 ! A233  A(32,70,72)           106.7115         estimate D2E/DX2                !
 ! A234  A(68,70,72)           121.5404         estimate D2E/DX2                !
 ! A235  A(69,71,72)           119.2371         estimate D2E/DX2                !
 ! A236  A(69,71,73)           107.8949         estimate D2E/DX2                !
 ! A237  A(72,71,73)           120.605          estimate D2E/DX2                !
 ! A238  A(70,72,71)           120.6746         estimate D2E/DX2                !
 ! A239  A(70,72,74)           108.2345         estimate D2E/DX2                !
 ! A240  A(71,72,74)           119.151          estimate D2E/DX2                !
 ! A241  A(33,73,71)           108.2025         estimate D2E/DX2                !
 ! A242  A(33,73,75)           119.4837         estimate D2E/DX2                !
 ! A243  A(71,73,75)           119.9433         estimate D2E/DX2                !
 ! A244  A(34,74,72)           108.0158         estimate D2E/DX2                !
 ! A245  A(34,74,76)           119.1593         estimate D2E/DX2                !
 ! A246  A(72,74,76)           120.3838         estimate D2E/DX2                !
 ! A247  A(73,75,76)           119.8097         estimate D2E/DX2                !
 ! A248  A(73,75,77)           119.359          estimate D2E/DX2                !
 ! A249  A(76,75,77)           108.7346         estimate D2E/DX2                !
 ! A250  A(74,76,75)           120.0949         estimate D2E/DX2                !
 ! A251  A(74,76,78)           119.6411         estimate D2E/DX2                !
 ! A252  A(75,76,78)           108.2343         estimate D2E/DX2                !
 ! A253  A(37,77,75)           122.1732         estimate D2E/DX2                !
 ! A254  A(37,77,81)           121.4005         estimate D2E/DX2                !
 ! A255  A(75,77,81)           106.2488         estimate D2E/DX2                !
 ! A256  A(38,78,76)           122.1274         estimate D2E/DX2                !
 ! A257  A(38,78,81)           121.1791         estimate D2E/DX2                !
 ! A258  A(76,78,81)           106.4182         estimate D2E/DX2                !
 ! A259  A(39,79,40)           121.5711         estimate D2E/DX2                !
 ! A260  A(39,79,82)           120.4684         estimate D2E/DX2                !
 ! A261  A(40,79,82)           106.884          estimate D2E/DX2                !
 ! A262  A(41,80,42)           122.4113         estimate D2E/DX2                !
 ! A263  A(41,80,82)           106.516          estimate D2E/DX2                !
 ! A264  A(42,80,82)           120.3645         estimate D2E/DX2                !
 ! A265  A(77,81,78)           109.4605         estimate D2E/DX2                !
 ! A266  A(77,81,82)           119.9357         estimate D2E/DX2                !
 ! A267  A(78,81,82)           120.0197         estimate D2E/DX2                !
 ! A268  A(79,82,80)           109.4475         estimate D2E/DX2                !
 ! A269  A(79,82,81)           119.8912         estimate D2E/DX2                !
 ! A270  A(80,82,81)           120.0724         estimate D2E/DX2                !
 ! A271  A(55,83,57)           120.867          estimate D2E/DX2                !
 ! A272  A(55,83,84)           118.5994         estimate D2E/DX2                !
 ! A273  A(57,83,84)           120.006          estimate D2E/DX2                !
 ! A274  A(56,84,58)           116.3958         estimate D2E/DX2                !
 ! A275  A(56,84,83)           123.3517         estimate D2E/DX2                !
 ! A276  A(58,84,83)           119.1916         estimate D2E/DX2                !
 ! D1    D(17,1,5,9)            -0.3616         estimate D2E/DX2                !
 ! D2    D(17,1,5,29)         -153.86           estimate D2E/DX2                !
 ! D3    D(23,1,5,9)           144.6107         estimate D2E/DX2                !
 ! D4    D(23,1,5,29)           -8.8877         estimate D2E/DX2                !
 ! D5    D(5,1,17,15)           -1.6663         estimate D2E/DX2                !
 ! D6    D(5,1,17,19)          144.1989         estimate D2E/DX2                !
 ! D7    D(23,1,17,15)        -151.3455         estimate D2E/DX2                !
 ! D8    D(23,1,17,19)          -5.4802         estimate D2E/DX2                !
 ! D9    D(5,1,23,21)         -147.1266         estimate D2E/DX2                !
 ! D10   D(5,1,23,25)            4.6939         estimate D2E/DX2                !
 ! D11   D(17,1,23,21)           2.1124         estimate D2E/DX2                !
 ! D12   D(17,1,23,25)         153.9329         estimate D2E/DX2                !
 ! D13   D(43,2,6,10)         -144.4904         estimate D2E/DX2                !
 ! D14   D(43,2,6,15)           -2.7191         estimate D2E/DX2                !
 ! D15   D(44,2,6,10)            0.9574         estimate D2E/DX2                !
 ! D16   D(44,2,6,15)          142.7286         estimate D2E/DX2                !
 ! D17   D(6,2,43,13)            5.6289         estimate D2E/DX2                !
 ! D18   D(6,2,43,39)          154.3281         estimate D2E/DX2                !
 ! D19   D(44,2,43,13)        -139.5549         estimate D2E/DX2                !
 ! D20   D(44,2,43,39)           9.1443         estimate D2E/DX2                !
 ! D21   D(6,2,44,40)         -155.6192         estimate D2E/DX2                !
 ! D22   D(6,2,44,47)           -3.3455         estimate D2E/DX2                !
 ! D23   D(43,2,44,40)         -15.025          estimate D2E/DX2                !
 ! D24   D(43,2,44,47)         137.2487         estimate D2E/DX2                !
 ! D25   D(18,3,7,12)          -19.0794         estimate D2E/DX2                !
 ! D26   D(18,3,7,30)          137.0529         estimate D2E/DX2                !
 ! D27   D(26,3,7,12)         -139.3486         estimate D2E/DX2                !
 ! D28   D(26,3,7,30)           16.7837         estimate D2E/DX2                !
 ! D29   D(85,3,7,12)          102.9894         estimate D2E/DX2                !
 ! D30   D(85,3,7,30)         -100.8784         estimate D2E/DX2                !
 ! D31   D(7,3,18,16)           26.7818         estimate D2E/DX2                !
 ! D32   D(7,3,18,20)         -135.3556         estimate D2E/DX2                !
 ! D33   D(26,3,18,16)         140.5056         estimate D2E/DX2                !
 ! D34   D(26,3,18,20)         -21.6317         estimate D2E/DX2                !
 ! D35   D(85,3,18,16)         -95.9909         estimate D2E/DX2                !
 ! D36   D(85,3,18,20)         101.8717         estimate D2E/DX2                !
 ! D37   D(7,3,26,24)          140.7146         estimate D2E/DX2                !
 ! D38   D(7,3,26,28)          -20.798          estimate D2E/DX2                !
 ! D39   D(18,3,26,24)          20.0258         estimate D2E/DX2                !
 ! D40   D(18,3,26,28)        -141.4868         estimate D2E/DX2                !
 ! D41   D(85,3,26,24)        -102.27           estimate D2E/DX2                !
 ! D42   D(85,3,26,28)          96.2174         estimate D2E/DX2                !
 ! D43   D(45,4,8,11)            2.5156         estimate D2E/DX2                !
 ! D44   D(45,4,8,16)         -142.5511         estimate D2E/DX2                !
 ! D45   D(46,4,8,11)          148.3166         estimate D2E/DX2                !
 ! D46   D(46,4,8,16)            3.2499         estimate D2E/DX2                !
 ! D47   D(8,4,45,41)          152.0615         estimate D2E/DX2                !
 ! D48   D(8,4,45,48)           -0.6313         estimate D2E/DX2                !
 ! D49   D(46,4,45,41)          11.7295         estimate D2E/DX2                !
 ! D50   D(46,4,45,48)        -140.9633         estimate D2E/DX2                !
 ! D51   D(8,4,46,14)           -1.8411         estimate D2E/DX2                !
 ! D52   D(8,4,46,42)         -150.6895         estimate D2E/DX2                !
 ! D53   D(45,4,46,14)         143.0438         estimate D2E/DX2                !
 ! D54   D(45,4,46,42)          -5.8046         estimate D2E/DX2                !
 ! D55   D(1,5,9,13)             1.7074         estimate D2E/DX2                !
 ! D56   D(1,5,9,35)          -154.5321         estimate D2E/DX2                !
 ! D57   D(29,5,9,13)          154.2961         estimate D2E/DX2                !
 ! D58   D(29,5,9,35)           -1.9433         estimate D2E/DX2                !
 ! D59   D(1,5,29,27)            8.0336         estimate D2E/DX2                !
 ! D60   D(1,5,29,31)          161.1003         estimate D2E/DX2                !
 ! D61   D(9,5,29,27)         -145.5002         estimate D2E/DX2                !
 ! D62   D(9,5,29,31)            7.5665         estimate D2E/DX2                !
 ! D63   D(2,6,10,49)           -0.178          estimate D2E/DX2                !
 ! D64   D(2,6,10,53)          141.3876         estimate D2E/DX2                !
 ! D65   D(15,6,10,49)        -137.7901         estimate D2E/DX2                !
 ! D66   D(15,6,10,53)           3.7756         estimate D2E/DX2                !
 ! D67   D(2,6,15,13)           -1.2011         estimate D2E/DX2                !
 ! D68   D(2,6,15,17)         -143.1985         estimate D2E/DX2                !
 ! D69   D(10,6,15,13)         140.7969         estimate D2E/DX2                !
 ! D70   D(10,6,15,17)          -1.2004         estimate D2E/DX2                !
 ! D71   D(3,7,12,14)            2.1648         estimate D2E/DX2                !
 ! D72   D(3,7,12,36)          156.3741         estimate D2E/DX2                !
 ! D73   D(30,7,12,14)        -151.3507         estimate D2E/DX2                !
 ! D74   D(30,7,12,36)           2.8586         estimate D2E/DX2                !
 ! D75   D(3,7,30,28)           -7.5108         estimate D2E/DX2                !
 ! D76   D(3,7,30,32)         -162.3193         estimate D2E/DX2                !
 ! D77   D(12,7,30,28)         149.6987         estimate D2E/DX2                !
 ! D78   D(12,7,30,32)          -5.1097         estimate D2E/DX2                !
 ! D79   D(4,8,11,50)            0.5819         estimate D2E/DX2                !
 ! D80   D(4,8,11,54)         -142.4276         estimate D2E/DX2                !
 ! D81   D(16,8,11,50)         142.1759         estimate D2E/DX2                !
 ! D82   D(16,8,11,54)          -0.8337         estimate D2E/DX2                !
 ! D83   D(4,8,16,14)           -3.3484         estimate D2E/DX2                !
 ! D84   D(4,8,16,18)          144.1953         estimate D2E/DX2                !
 ! D85   D(11,8,16,14)        -148.4675         estimate D2E/DX2                !
 ! D86   D(11,8,16,18)          -0.9239         estimate D2E/DX2                !
 ! D87   D(5,9,13,15)           -1.1113         estimate D2E/DX2                !
 ! D88   D(5,9,13,43)         -143.586          estimate D2E/DX2                !
 ! D89   D(35,9,13,15)         155.9147         estimate D2E/DX2                !
 ! D90   D(35,9,13,43)          13.44           estimate D2E/DX2                !
 ! D91   D(5,9,35,33)           -8.6335         estimate D2E/DX2                !
 ! D92   D(5,9,35,37)          147.9023         estimate D2E/DX2                !
 ! D93   D(13,9,35,33)        -164.8934         estimate D2E/DX2                !
 ! D94   D(13,9,35,37)          -8.3576         estimate D2E/DX2                !
 ! D95   D(6,10,49,47)           1.8921         estimate D2E/DX2                !
 ! D96   D(6,10,49,51)         151.5725         estimate D2E/DX2                !
 ! D97   D(53,10,49,47)       -143.758          estimate D2E/DX2                !
 ! D98   D(53,10,49,51)          5.9225         estimate D2E/DX2                !
 ! D99   D(6,10,53,19)          -3.0809         estimate D2E/DX2                !
 ! D100  D(6,10,53,55)        -152.5411         estimate D2E/DX2                !
 ! D101  D(49,10,53,19)        142.0572         estimate D2E/DX2                !
 ! D102  D(49,10,53,55)         -7.4031         estimate D2E/DX2                !
 ! D103  D(8,11,50,48)          -5.7385         estimate D2E/DX2                !
 ! D104  D(8,11,50,52)        -154.3521         estimate D2E/DX2                !
 ! D105  D(54,11,50,48)        140.5491         estimate D2E/DX2                !
 ! D106  D(54,11,50,52)         -8.0646         estimate D2E/DX2                !
 ! D107  D(8,11,54,20)           3.3339         estimate D2E/DX2                !
 ! D108  D(8,11,54,56)         158.2585         estimate D2E/DX2                !
 ! D109  D(50,11,54,20)       -142.9569         estimate D2E/DX2                !
 ! D110  D(50,11,54,56)         11.9676         estimate D2E/DX2                !
 ! D111  D(7,12,14,16)           7.0642         estimate D2E/DX2                !
 ! D112  D(7,12,14,46)         149.1164         estimate D2E/DX2                !
 ! D113  D(36,12,14,16)       -147.4634         estimate D2E/DX2                !
 ! D114  D(36,12,14,46)         -5.4112         estimate D2E/DX2                !
 ! D115  D(7,12,36,34)           5.1095         estimate D2E/DX2                !
 ! D116  D(7,12,36,38)        -149.5318         estimate D2E/DX2                !
 ! D117  D(14,12,36,34)        158.5148         estimate D2E/DX2                !
 ! D118  D(14,12,36,38)          3.8735         estimate D2E/DX2                !
 ! D119  D(9,13,15,6)         -142.3599         estimate D2E/DX2                !
 ! D120  D(9,13,15,17)          -0.9124         estimate D2E/DX2                !
 ! D121  D(43,13,15,6)           4.6422         estimate D2E/DX2                !
 ! D122  D(43,13,15,17)        146.0898         estimate D2E/DX2                !
 ! D123  D(9,13,43,2)          140.987          estimate D2E/DX2                !
 ! D124  D(9,13,43,39)          -8.0077         estimate D2E/DX2                !
 ! D125  D(15,13,43,2)          -6.3568         estimate D2E/DX2                !
 ! D126  D(15,13,43,39)       -155.3515         estimate D2E/DX2                !
 ! D127  D(12,14,16,8)         148.618          estimate D2E/DX2                !
 ! D128  D(12,14,16,18)          2.5189         estimate D2E/DX2                !
 ! D129  D(46,14,16,8)           2.1523         estimate D2E/DX2                !
 ! D130  D(46,14,16,18)       -143.9467         estimate D2E/DX2                !
 ! D131  D(12,14,46,4)        -146.5512         estimate D2E/DX2                !
 ! D132  D(12,14,46,42)          2.4626         estimate D2E/DX2                !
 ! D133  D(16,14,46,4)          -0.1849         estimate D2E/DX2                !
 ! D134  D(16,14,46,42)        148.8289         estimate D2E/DX2                !
 ! D135  D(6,15,17,1)          139.6966         estimate D2E/DX2                !
 ! D136  D(6,15,17,19)          -2.0714         estimate D2E/DX2                !
 ! D137  D(13,15,17,1)           2.28           estimate D2E/DX2                !
 ! D138  D(13,15,17,19)       -139.488          estimate D2E/DX2                !
 ! D139  D(8,16,18,3)         -162.3269         estimate D2E/DX2                !
 ! D140  D(8,16,18,20)           0.2185         estimate D2E/DX2                !
 ! D141  D(14,16,18,3)         -20.5414         estimate D2E/DX2                !
 ! D142  D(14,16,18,20)        142.0039         estimate D2E/DX2                !
 ! D143  D(1,17,19,21)           6.8219         estimate D2E/DX2                !
 ! D144  D(1,17,19,53)        -142.0895         estimate D2E/DX2                !
 ! D145  D(15,17,19,21)        151.6977         estimate D2E/DX2                !
 ! D146  D(15,17,19,53)          2.7863         estimate D2E/DX2                !
 ! D147  D(3,18,20,22)           3.648          estimate D2E/DX2                !
 ! D148  D(3,18,20,54)         163.8041         estimate D2E/DX2                !
 ! D149  D(16,18,20,22)       -157.8887         estimate D2E/DX2                !
 ! D150  D(16,18,20,54)          2.2675         estimate D2E/DX2                !
 ! D151  D(17,19,21,23)         -5.128          estimate D2E/DX2                !
 ! D152  D(17,19,21,57)       -120.5874         estimate D2E/DX2                !
 ! D153  D(17,19,21,89)        116.9864         estimate D2E/DX2                !
 ! D154  D(53,19,21,23)        142.7074         estimate D2E/DX2                !
 ! D155  D(53,19,21,57)         27.2479         estimate D2E/DX2                !
 ! D156  D(53,19,21,89)        -95.1783         estimate D2E/DX2                !
 ! D157  D(17,19,53,10)         -0.2074         estimate D2E/DX2                !
 ! D158  D(17,19,53,55)        145.4447         estimate D2E/DX2                !
 ! D159  D(21,19,53,10)       -145.0637         estimate D2E/DX2                !
 ! D160  D(21,19,53,55)          0.5884         estimate D2E/DX2                !
 ! D161  D(18,20,22,24)         16.5162         estimate D2E/DX2                !
 ! D162  D(18,20,22,58)        127.0934         estimate D2E/DX2                !
 ! D163  D(18,20,22,86)       -109.7508         estimate D2E/DX2                !
 ! D164  D(54,20,22,24)       -144.2768         estimate D2E/DX2                !
 ! D165  D(54,20,22,58)        -33.6996         estimate D2E/DX2                !
 ! D166  D(54,20,22,86)         89.4562         estimate D2E/DX2                !
 ! D167  D(18,20,54,11)         -4.036          estimate D2E/DX2                !
 ! D168  D(18,20,54,56)       -154.4394         estimate D2E/DX2                !
 ! D169  D(22,20,54,11)        156.9013         estimate D2E/DX2                !
 ! D170  D(22,20,54,56)          6.4979         estimate D2E/DX2                !
 ! D171  D(19,21,23,1)           1.8113         estimate D2E/DX2                !
 ! D172  D(19,21,23,25)       -149.2844         estimate D2E/DX2                !
 ! D173  D(57,21,23,1)         118.3827         estimate D2E/DX2                !
 ! D174  D(57,21,23,25)        -32.713          estimate D2E/DX2                !
 ! D175  D(89,21,23,1)        -120.5191         estimate D2E/DX2                !
 ! D176  D(89,21,23,25)         88.3852         estimate D2E/DX2                !
 ! D177  D(19,21,57,59)        144.4636         estimate D2E/DX2                !
 ! D178  D(19,21,57,83)        -27.4164         estimate D2E/DX2                !
 ! D179  D(23,21,57,59)         33.7921         estimate D2E/DX2                !
 ! D180  D(23,21,57,83)       -138.0879         estimate D2E/DX2                !
 ! D181  D(89,21,57,59)        -90.1792         estimate D2E/DX2                !
 ! D182  D(89,21,57,83)         97.9407         estimate D2E/DX2                !
 ! D183  D(20,22,24,26)        -18.9201         estimate D2E/DX2                !
 ! D184  D(20,22,24,62)        140.1984         estimate D2E/DX2                !
 ! D185  D(58,22,24,26)       -135.067          estimate D2E/DX2                !
 ! D186  D(58,22,24,62)         24.0515         estimate D2E/DX2                !
 ! D187  D(86,22,24,26)        106.8647         estimate D2E/DX2                !
 ! D188  D(86,22,24,62)        -94.0168         estimate D2E/DX2                !
 ! D189  D(20,22,58,60)       -133.5571         estimate D2E/DX2                !
 ! D190  D(20,22,58,84)         30.0133         estimate D2E/DX2                !
 ! D191  D(24,22,58,60)        -14.7463         estimate D2E/DX2                !
 ! D192  D(24,22,58,84)        148.8241         estimate D2E/DX2                !
 ! D193  D(86,22,58,60)        103.5986         estimate D2E/DX2                !
 ! D194  D(86,22,58,84)        -92.831          estimate D2E/DX2                !
 ! D195  D(1,23,25,27)           0.6277         estimate D2E/DX2                !
 ! D196  D(1,23,25,61)        -146.2277         estimate D2E/DX2                !
 ! D197  D(21,23,25,27)        149.3705         estimate D2E/DX2                !
 ! D198  D(21,23,25,61)          2.5151         estimate D2E/DX2                !
 ! D199  D(22,24,26,3)           0.2229         estimate D2E/DX2                !
 ! D200  D(22,24,26,28)        159.6266         estimate D2E/DX2                !
 ! D201  D(62,24,26,3)        -156.7722         estimate D2E/DX2                !
 ! D202  D(62,24,26,28)          2.6315         estimate D2E/DX2                !
 ! D203  D(22,24,62,60)        -23.5998         estimate D2E/DX2                !
 ! D204  D(22,24,62,64)       -139.5799         estimate D2E/DX2                !
 ! D205  D(22,24,62,91)         95.0435         estimate D2E/DX2                !
 ! D206  D(26,24,62,60)        135.9087         estimate D2E/DX2                !
 ! D207  D(26,24,62,64)         19.9287         estimate D2E/DX2                !
 ! D208  D(26,24,62,91)       -105.448          estimate D2E/DX2                !
 ! D209  D(23,25,27,29)         -1.2109         estimate D2E/DX2                !
 ! D210  D(23,25,27,65)       -147.9943         estimate D2E/DX2                !
 ! D211  D(61,25,27,29)        149.3459         estimate D2E/DX2                !
 ! D212  D(61,25,27,65)          2.5625         estimate D2E/DX2                !
 ! D213  D(23,25,61,59)         26.072          estimate D2E/DX2                !
 ! D214  D(23,25,61,63)        141.5715         estimate D2E/DX2                !
 ! D215  D(23,25,61,90)        -97.6445         estimate D2E/DX2                !
 ! D216  D(27,25,61,59)       -123.2181         estimate D2E/DX2                !
 ! D217  D(27,25,61,63)         -7.7186         estimate D2E/DX2                !
 ! D218  D(27,25,61,90)        113.0655         estimate D2E/DX2                !
 ! D219  D(3,26,28,30)          16.5852         estimate D2E/DX2                !
 ! D220  D(3,26,28,66)         135.0886         estimate D2E/DX2                !
 ! D221  D(3,26,28,92)        -102.4478         estimate D2E/DX2                !
 ! D222  D(24,26,28,30)       -144.914          estimate D2E/DX2                !
 ! D223  D(24,26,28,66)        -26.4106         estimate D2E/DX2                !
 ! D224  D(24,26,28,92)         96.053          estimate D2E/DX2                !
 ! D225  D(25,27,29,5)          -3.3485         estimate D2E/DX2                !
 ! D226  D(25,27,29,31)       -157.2619         estimate D2E/DX2                !
 ! D227  D(65,27,29,5)         139.4085         estimate D2E/DX2                !
 ! D228  D(65,27,29,31)        -14.5049         estimate D2E/DX2                !
 ! D229  D(25,27,65,63)          4.3737         estimate D2E/DX2                !
 ! D230  D(25,27,65,67)        156.1219         estimate D2E/DX2                !
 ! D231  D(29,27,65,63)       -142.9757         estimate D2E/DX2                !
 ! D232  D(29,27,65,67)          8.7725         estimate D2E/DX2                !
 ! D233  D(26,28,30,7)          -5.3814         estimate D2E/DX2                !
 ! D234  D(26,28,30,32)        149.0576         estimate D2E/DX2                !
 ! D235  D(66,28,30,7)        -124.9335         estimate D2E/DX2                !
 ! D236  D(66,28,30,32)         29.5055         estimate D2E/DX2                !
 ! D237  D(92,28,30,7)         112.9051         estimate D2E/DX2                !
 ! D238  D(92,28,30,32)        -92.6559         estimate D2E/DX2                !
 ! D239  D(26,28,66,64)         26.7413         estimate D2E/DX2                !
 ! D240  D(26,28,66,68)       -140.5695         estimate D2E/DX2                !
 ! D241  D(30,28,66,64)        138.5806         estimate D2E/DX2                !
 ! D242  D(30,28,66,68)        -28.7302         estimate D2E/DX2                !
 ! D243  D(92,28,66,64)        -97.1787         estimate D2E/DX2                !
 ! D244  D(92,28,66,68)         95.5105         estimate D2E/DX2                !
 ! D245  D(5,29,31,33)          -2.6088         estimate D2E/DX2                !
 ! D246  D(5,29,31,69)        -148.5592         estimate D2E/DX2                !
 ! D247  D(27,29,31,33)        151.4782         estimate D2E/DX2                !
 ! D248  D(27,29,31,69)          5.5277         estimate D2E/DX2                !
 ! D249  D(7,30,32,34)          -0.7044         estimate D2E/DX2                !
 ! D250  D(7,30,32,70)         142.0334         estimate D2E/DX2                !
 ! D251  D(28,30,32,34)       -153.5551         estimate D2E/DX2                !
 ! D252  D(28,30,32,70)        -10.8173         estimate D2E/DX2                !
 ! D253  D(29,31,33,35)         -8.4878         estimate D2E/DX2                !
 ! D254  D(29,31,33,73)       -155.703          estimate D2E/DX2                !
 ! D255  D(69,31,33,35)        141.449          estimate D2E/DX2                !
 ! D256  D(69,31,33,73)         -5.7662         estimate D2E/DX2                !
 ! D257  D(29,31,69,67)          9.9605         estimate D2E/DX2                !
 ! D258  D(29,31,69,71)        154.6772         estimate D2E/DX2                !
 ! D259  D(33,31,69,67)       -139.5583         estimate D2E/DX2                !
 ! D260  D(33,31,69,71)          5.1584         estimate D2E/DX2                !
 ! D261  D(30,32,34,36)          9.0539         estimate D2E/DX2                !
 ! D262  D(30,32,34,74)        155.2976         estimate D2E/DX2                !
 ! D263  D(70,32,34,36)       -137.2119         estimate D2E/DX2                !
 ! D264  D(70,32,34,74)          9.0319         estimate D2E/DX2                !
 ! D265  D(30,32,70,68)        -11.004          estimate D2E/DX2                !
 ! D266  D(30,32,70,72)       -154.2698         estimate D2E/DX2                !
 ! D267  D(34,32,70,68)        135.1766         estimate D2E/DX2                !
 ! D268  D(34,32,70,72)         -8.0892         estimate D2E/DX2                !
 ! D269  D(31,33,35,9)          13.7996         estimate D2E/DX2                !
 ! D270  D(31,33,35,37)       -143.4244         estimate D2E/DX2                !
 ! D271  D(73,33,35,9)         155.8872         estimate D2E/DX2                !
 ! D272  D(73,33,35,37)         -1.3368         estimate D2E/DX2                !
 ! D273  D(31,33,73,71)          4.1545         estimate D2E/DX2                !
 ! D274  D(31,33,73,75)        146.2957         estimate D2E/DX2                !
 ! D275  D(35,33,73,71)       -142.4599         estimate D2E/DX2                !
 ! D276  D(35,33,73,75)         -0.3186         estimate D2E/DX2                !
 ! D277  D(32,34,36,12)        -10.9106         estimate D2E/DX2                !
 ! D278  D(32,34,36,38)        144.1887         estimate D2E/DX2                !
 ! D279  D(74,34,36,12)       -151.7335         estimate D2E/DX2                !
 ! D280  D(74,34,36,38)          3.3658         estimate D2E/DX2                !
 ! D281  D(32,34,74,72)         -6.3644         estimate D2E/DX2                !
 ! D282  D(32,34,74,76)       -148.5977         estimate D2E/DX2                !
 ! D283  D(36,34,74,72)        139.3079         estimate D2E/DX2                !
 ! D284  D(36,34,74,76)         -2.9254         estimate D2E/DX2                !
 ! D285  D(9,35,37,39)          -2.1341         estimate D2E/DX2                !
 ! D286  D(9,35,37,77)        -155.1452         estimate D2E/DX2                !
 ! D287  D(33,35,37,39)        154.2948         estimate D2E/DX2                !
 ! D288  D(33,35,37,77)          1.2836         estimate D2E/DX2                !
 ! D289  D(12,36,38,42)          0.5544         estimate D2E/DX2                !
 ! D290  D(12,36,38,78)        153.8793         estimate D2E/DX2                !
 ! D291  D(34,36,38,42)       -153.6718         estimate D2E/DX2                !
 ! D292  D(34,36,38,78)         -0.3469         estimate D2E/DX2                !
 ! D293  D(35,37,39,43)          7.8059         estimate D2E/DX2                !
 ! D294  D(35,37,39,79)       -144.5778         estimate D2E/DX2                !
 ! D295  D(77,37,39,43)        161.2715         estimate D2E/DX2                !
 ! D296  D(77,37,39,79)          8.8878         estimate D2E/DX2                !
 ! D297  D(35,37,77,75)          0.3578         estimate D2E/DX2                !
 ! D298  D(35,37,77,81)        140.8278         estimate D2E/DX2                !
 ! D299  D(39,37,77,75)       -153.2354         estimate D2E/DX2                !
 ! D300  D(39,37,77,81)        -12.7654         estimate D2E/DX2                !
 ! D301  D(36,38,42,46)         -3.5005         estimate D2E/DX2                !
 ! D302  D(36,38,42,80)        148.1722         estimate D2E/DX2                !
 ! D303  D(78,38,42,46)       -157.0538         estimate D2E/DX2                !
 ! D304  D(78,38,42,80)         -5.381          estimate D2E/DX2                !
 ! D305  D(36,38,78,76)         -3.107          estimate D2E/DX2                !
 ! D306  D(36,38,78,81)       -143.47           estimate D2E/DX2                !
 ! D307  D(42,38,78,76)        150.7309         estimate D2E/DX2                !
 ! D308  D(42,38,78,81)         10.368          estimate D2E/DX2                !
 ! D309  D(37,39,43,2)        -147.8428         estimate D2E/DX2                !
 ! D310  D(37,39,43,13)         -3.0119         estimate D2E/DX2                !
 ! D311  D(79,39,43,2)           5.8798         estimate D2E/DX2                !
 ! D312  D(79,39,43,13)        150.7107         estimate D2E/DX2                !
[...]
 Alpha virt. eigenvalues --    1.28860   1.28998   1.29309   1.29491   1.30317
 Alpha virt. eigenvalues --    1.30532   1.30733   1.30829   1.31230   1.31705
 Alpha virt. eigenvalues --    1.31882   1.32176   1.32742   1.32863   1.33403
 Alpha virt. eigenvalues --    1.33670   1.33887   1.34204   1.34347   1.35486
 Alpha virt. eigenvalues --    1.35625   1.36348   1.36608   1.37101   1.37692
 Alpha virt. eigenvalues --    1.37747   1.38461   1.38963   1.39272   1.39629
 Alpha virt. eigenvalues --    1.40257   1.40432   1.41067   1.41691   1.42049
 Alpha virt. eigenvalues --    1.42484   1.42874   1.44276   1.44392   1.44741
 Alpha virt. eigenvalues --    1.45382   1.45691   1.46130   1.46610   1.46735
 Alpha virt. eigenvalues --    1.46988   1.47343   1.47926   1.48919   1.49475
 Alpha virt. eigenvalues --    1.49802   1.50712   1.51622   1.52296   1.52936
 Alpha virt. eigenvalues --    1.53131   1.53256   1.53935   1.54348   1.54957
 Alpha virt. eigenvalues --    1.55230   1.55615   1.56238   1.56654   1.57367
 Alpha virt. eigenvalues --    1.58111   1.58286   1.58925   1.59369   1.59750
 Alpha virt. eigenvalues --    1.60188   1.60419   1.60759   1.61444   1.61728
 Alpha virt. eigenvalues --    1.62058   1.62428   1.62528   1.63299   1.63901
 Alpha virt. eigenvalues --    1.64254   1.64297   1.64538   1.64922   1.65152
 Alpha virt. eigenvalues --    1.65469   1.65584   1.66140   1.66204   1.66265
 Alpha virt. eigenvalues --    1.66566   1.66995   1.67255   1.67466   1.67933
 Alpha virt. eigenvalues --    1.68235   1.68418   1.68674   1.68952   1.69277
 Alpha virt. eigenvalues --    1.69630   1.69849   1.69913   1.69957   1.70099
 Alpha virt. eigenvalues --    1.70296   1.70643   1.71055   1.71185   1.71276
 Alpha virt. eigenvalues --    1.71500   1.71792   1.71979   1.72253   1.72423
 Alpha virt. eigenvalues --    1.72460   1.72603   1.73194   1.73228   1.73622
 Alpha virt. eigenvalues --    1.73991   1.74472   1.74559   1.74729   1.74924
 Alpha virt. eigenvalues --    1.75010   1.75228   1.75413   1.75761   1.76021
 Alpha virt. eigenvalues --    1.76261   1.76377   1.76690   1.76917   1.77061
 Alpha virt. eigenvalues --    1.77359   1.77832   1.78121   1.78499   1.78601
 Alpha virt. eigenvalues --    1.78904   1.79009   1.79227   1.79613   1.79866
 Alpha virt. eigenvalues --    1.80028   1.80502   1.80939   1.81051   1.81899
 Alpha virt. eigenvalues --    1.82147   1.82305   1.82914   1.83328   1.83835
 Alpha virt. eigenvalues --    1.83965   1.84261   1.84383   1.84829   1.85247
 Alpha virt. eigenvalues --    1.85762   1.85931   1.86140   1.86609   1.86905
 Alpha virt. eigenvalues --    1.87195   1.87596   1.88275   1.88726   1.88961
 Alpha virt. eigenvalues --    1.89464   1.89585   1.90537   1.90730   1.90903
 Alpha virt. eigenvalues --    1.91350   1.91656   1.92119   1.92222   1.92376
 Alpha virt. eigenvalues --    1.93285   1.93647   1.93828   1.94430   1.94606
 Alpha virt. eigenvalues --    1.94860   1.95045   1.95450   1.95693   1.95950
 Alpha virt. eigenvalues --    1.96453   1.96593   1.96861   1.97334   1.97494
 Alpha virt. eigenvalues --    1.97704   1.98045   1.98340   1.98491   1.98762
 Alpha virt. eigenvalues --    1.98886   1.99317   1.99476   1.99752   1.99950
 Alpha virt. eigenvalues --    2.00176   2.00769   2.00952   2.01046   2.01340
 Alpha virt. eigenvalues --    2.01639   2.01795   2.02029   2.02246   2.02700
 Alpha virt. eigenvalues --    2.02899   2.03173   2.03634   2.03819   2.04131
 Alpha virt. eigenvalues --    2.04375   2.04683   2.04783   2.05235   2.05738
 Alpha virt. eigenvalues --    2.06114   2.06532   2.06725   2.07216   2.07488
 Alpha virt. eigenvalues --    2.07810   2.08456   2.09225   2.09583   2.10116
 Alpha virt. eigenvalues --    2.10456   2.10873   2.11335   2.11498   2.12164
 Alpha virt. eigenvalues --    2.12533   2.12697   2.13466   2.14107   2.14118
 Alpha virt. eigenvalues --    2.14246   2.14997   2.15629   2.15766   2.16182
 Alpha virt. eigenvalues --    2.16811   2.17196   2.17904   2.18230   2.18345
 Alpha virt. eigenvalues --    2.18509   2.19123   2.19561   2.20036   2.20199
 Alpha virt. eigenvalues --    2.20679   2.20970   2.21414   2.21814   2.22459
 Alpha virt. eigenvalues --    2.22812   2.23053   2.23527   2.23763   2.24531
 Alpha virt. eigenvalues --    2.24989   2.25109   2.25235   2.25541   2.26066
 Alpha virt. eigenvalues --    2.26342   2.26446   2.27145   2.27442   2.28085
 Alpha virt. eigenvalues --    2.28378   2.29238   2.29668   2.29909   2.30161
 Alpha virt. eigenvalues --    2.30387   2.30654   2.31359   2.31599   2.31888
 Alpha virt. eigenvalues --    2.32654   2.33380   2.33671   2.34084   2.34672
 Alpha virt. eigenvalues --    2.35218   2.35633   2.36420   2.36698   2.37453
 Alpha virt. eigenvalues --    2.37971   2.38252   2.38806   2.39461   2.40162
 Alpha virt. eigenvalues --    2.40664   2.40999   2.41325   2.42058   2.42419
 Alpha virt. eigenvalues --    2.43049   2.43279   2.43767   2.44157   2.44684
 Alpha virt. eigenvalues --    2.45355   2.45628   2.46509   2.47200   2.47752
 Alpha virt. eigenvalues --    2.48371   2.48784   2.48954   2.49961   2.50103
 Alpha virt. eigenvalues --    2.50396   2.50913   2.51491   2.51650   2.52368
 Alpha virt. eigenvalues --    2.53131   2.53285   2.53620   2.54036   2.54533
 Alpha virt. eigenvalues --    2.55058   2.55344   2.55453   2.55840   2.56021
 Alpha virt. eigenvalues --    2.56432   2.56757   2.57217   2.57403   2.57663
 Alpha virt. eigenvalues --    2.58051   2.58198   2.58308   2.58433   2.58669
 Alpha virt. eigenvalues --    2.59246   2.59366   2.59778   2.60061   2.60695
 Alpha virt. eigenvalues --    2.60929   2.61072   2.61713   2.62689   2.62748
 Alpha virt. eigenvalues --    2.63098   2.63783   2.63922   2.64195   2.64225
 Alpha virt. eigenvalues --    2.64808   2.64951   2.65339   2.65579   2.65876
 Alpha virt. eigenvalues --    2.66054   2.66618   2.66820   2.66896   2.67444
 Alpha virt. eigenvalues --    2.68012   2.68311   2.68710   2.68903   2.69375
 Alpha virt. eigenvalues --    2.69951   2.70386   2.70658   2.70873   2.71972
 Alpha virt. eigenvalues --    2.72042   2.72331   2.73213   2.73441   2.73679
 Alpha virt. eigenvalues --    2.74053   2.74881   2.75181   2.75219   2.75810
 Alpha virt. eigenvalues --    2.76049   2.76657   2.76906   2.77112   2.77681
 Alpha virt. eigenvalues --    2.77926   2.78434   2.78984   2.79495   2.79896
 Alpha virt. eigenvalues --    2.80171   2.80616   2.81023   2.81194   2.82093
 Alpha virt. eigenvalues --    2.82123   2.82868   2.83348   2.83491   2.84126
 Alpha virt. eigenvalues --    2.84802   2.84978   2.85297   2.85802   2.86162
 Alpha virt. eigenvalues --    2.87041   2.87947   2.88009   2.88592   2.88989
 Alpha virt. eigenvalues --    2.89683   2.90169   2.90338   2.90685   2.91185
 Alpha virt. eigenvalues --    2.91969   2.92487   2.92739   2.93296   2.93603
 Alpha virt. eigenvalues --    2.93894   2.94152   2.94877   2.95627   2.96083
 Alpha virt. eigenvalues --    2.96545   2.97447   2.98129   2.99185   3.00320
 Alpha virt. eigenvalues --    3.01138   3.02347   3.02483   3.03313   3.04388
 Alpha virt. eigenvalues --    3.05973   3.07080   3.08461   3.09871   3.10680
 Alpha virt. eigenvalues --    3.12649   3.13685   3.15102   3.16484   3.17941
 Alpha virt. eigenvalues --    3.18739   3.19563   3.20616   3.22498   3.23941
 Alpha virt. eigenvalues --    3.25191   3.26203   3.28572   3.30378   3.32332
 Alpha virt. eigenvalues --    3.33210   3.34769   3.35806   3.36811   3.38938
 Alpha virt. eigenvalues --    3.41444   3.42611   3.44168   3.46032   3.47683
 Alpha virt. eigenvalues --    3.50132   3.51859   3.53111   3.55953   3.59251
 Alpha virt. eigenvalues --    4.00119   4.00906   4.01340   4.02441   4.03166
 Alpha virt. eigenvalues --    4.03762   4.04452   4.05130   4.05351   4.06064
 Alpha virt. eigenvalues --    4.07056   4.07151   4.08098   4.08347   4.08976
 Alpha virt. eigenvalues --    4.09329   4.10194   4.11179   4.12300   4.12516
 Alpha virt. eigenvalues --    4.13508   4.14103   4.15341   4.16594   4.17114
 Alpha virt. eigenvalues --    4.17573   4.18226   4.19132   4.19921   4.20883
 Alpha virt. eigenvalues --    4.21339   4.22156   4.23063   4.24135   4.24742
 Alpha virt. eigenvalues --    4.25271   4.26814   4.27064   4.27540   4.27920
 Alpha virt. eigenvalues --    4.28297   4.28660   4.29233   4.30064   4.31212
 Alpha virt. eigenvalues --    4.32701   4.33065   4.34240   4.34839   4.37681
 Alpha virt. eigenvalues --    4.38745   4.39566   4.40210   4.41364   4.41793
 Alpha virt. eigenvalues --    4.43577   4.44208   4.45354   4.47176   4.48267
 Alpha virt. eigenvalues --    4.49171   4.49888   4.50625   4.52566   4.55235
 Alpha virt. eigenvalues --    4.56958   4.57746   4.58327   4.60200   4.61842
 Alpha virt. eigenvalues --    4.63181   4.65432   4.66047   4.68327   4.69873
 Alpha virt. eigenvalues --    4.71938   4.76261   4.79355   4.80764   4.84661
 Alpha virt. eigenvalues --    4.85862   4.88634   4.90371   4.92140   4.94679
 Alpha virt. eigenvalues --    4.98717   5.04886   5.08490   5.12297   5.15895
 Alpha virt. eigenvalues --    5.20306   5.22353
          Condensed to atoms (all electrons):
 Mulliken charges:
               1
     1  C    0.003263
     2  C   -0.023484
     3  C   -0.356959
     4  C   -0.022521
     5  C    0.035517
     6  C   -0.019978
     7  C    0.081770
     8  C   -0.025128
     9  C    0.046588
    10  C    0.031122
    11  C    0.026071
    12  C    0.066384
    13  C   -0.026530
    14  C   -0.047027
    15  C   -0.019453
    16  C    0.013512
    17  C    0.026894
    18  C    0.123301
    19  C    0.091922
    20  C    0.152955
    21  C   -0.376720
    22  C   -0.377381
    23  C    0.091802
    24  C    0.178557
    25  C    0.088973
    26  C    0.181935
    27  C    0.012842
    28  C   -0.349737
    29  C    0.044998
    30  C    0.115054
    31  C   -0.026996
    32  C    0.000288
    33  C   -0.024588
    34  C   -0.020582
    35  C    0.039870
    36  C    0.039782
    37  C    0.047451
    38  C    0.045193
    39  C    0.052892
    40  C   -0.030246
    41  C   -0.030715
    42  C    0.058838
    43  C   -0.034398
    44  C    0.056754
    45  C    0.057430
    46  C   -0.026241
    47  C    0.034541
    48  C    0.040565
    49  C    0.002638
    50  C    0.004027
    51  C    0.087567
    52  C    0.089228
    53  C    0.089202
    54  C    0.077709
    55  C   -0.375789
    56  C   -0.383288
    57  C    0.121365
    58  C    0.116106
    59  C    0.147052
    60  C    0.116759
    61  C   -0.388259
    62  C   -0.374830
    63  C    0.076840
    64  C    0.149740
    65  C    0.005976
    66  C    0.088510
    67  C    0.040451
    68  C    0.076681
    69  C   -0.016098
    70  C   -0.037308
    71  C   -0.004898
    72  C    0.011782
    73  C   -0.008457
    74  C   -0.008935
    75  C    0.004793
    76  C    0.004359
    77  C   -0.021423
    78  C   -0.021217
    79  C   -0.018334
    80  C   -0.021645
    81  C    0.002615
    82  C   -0.024007
    83  C    0.121758
    84  C    0.148651
    85  Cl  -0.008697
    86  Cl   0.013842
    87  Cl   0.014993
    88  Cl   0.012261
    89  Cl   0.012318
    90  Cl   0.018936
    91  Cl   0.017848
    92  Cl  -0.009203
 Sum of Mulliken charges =  -0.00000
 Mulliken charges with hydrogens summed into heavy atoms:
               1
     1  C    0.003263
     2  C   -0.023484
     3  C   -0.356959
     4  C   -0.022521
     5  C    0.035517
     6  C   -0.019978
     7  C    0.081770
     8  C   -0.025128
     9  C    0.046588
    10  C    0.031122
    11  C    0.026071
    12  C    0.066384
    13  C   -0.026530
    14  C   -0.047027
    15  C   -0.019453
    16  C    0.013512
    17  C    0.026894
    18  C    0.123301
    19  C    0.091922
    20  C    0.152955
    21  C   -0.376720
    22  C   -0.377381
    23  C    0.091802
    24  C    0.178557
    25  C    0.088973
    26  C    0.181935
    27  C    0.012842
    28  C   -0.349737
    29  C    0.044998
    30  C    0.115054
    31  C   -0.026996
    32  C    0.000288
    33  C   -0.024588
    34  C   -0.020582
    35  C    0.039870
    36  C    0.039782
    37  C    0.047451
    38  C    0.045193
    39  C    0.052892
    40  C   -0.030246
    41  C   -0.030715
    42  C    0.058838
    43  C   -0.034398
    44  C    0.056754
    45  C    0.057430
    46  C   -0.026241
    47  C    0.034541
    48  C    0.040565
    49  C    0.002638
    50  C    0.004027
    51  C    0.087567
    52  C    0.089228
    53  C    0.089202
    54  C    0.077709
    55  C   -0.375789
    56  C   -0.383288
    57  C    0.121365
    58  C    0.116106
    59  C    0.147052
    60  C    0.116759
    61  C   -0.388259
    62  C   -0.374830
    63  C    0.076840
    64  C    0.149740
    65  C    0.005976
    66  C    0.088510
    67  C    0.040451
    68  C    0.076681
    69  C   -0.016098
    70  C   -0.037308
    71  C   -0.004898
    72  C    0.011782
    73  C   -0.008457
    74  C   -0.008935
    75  C    0.004793
    76  C    0.004359
    77  C   -0.021423
    78  C   -0.021217
    79  C   -0.018334
    80  C   -0.021645
    81  C    0.002615
    82  C   -0.024007
    83  C    0.121758
    84  C    0.148651
    85  Cl  -0.008697
    86  Cl   0.013842
    87  Cl   0.014993
    88  Cl   0.012261
    89  Cl   0.012318
    90  Cl   0.018936
    91  Cl   0.017848
    92  Cl  -0.009203
 Electronic spatial extent (au):  <R**2>=          50633.1372
 Charge=              0.0000 electrons
 Dipole moment (field-independent basis, Debye):
    X=             -7.0385    Y=             -5.5290    Z=              0.1115  Tot=              8.9512
 Quadrupole moment (field-independent basis, Debye-Ang):
   XX=           -572.6767   YY=           -582.0591   ZZ=           -559.2178
   XY=             -1.1718   XZ=             -3.6421   YZ=             -1.1685
 Traceless Quadrupole moment (field-independent basis, Debye-Ang):
   XX=             -1.3589   YY=            -10.7412   ZZ=             12.1001
   XY=             -1.1718   XZ=             -3.6421   YZ=             -1.1685
 Octapole moment (field-independent basis, Debye-Ang**2):
  XXX=              8.9066  YYY=            -54.0020  ZZZ=              9.7618  XYY=             24.3180
  XXY=             42.4221  XXZ=             15.1772  XZZ=              2.1155  YZZ=              4.8804
  YYZ=              7.5647  XYZ=              8.3773
 Hexadecapole moment (field-independent basis, Debye-Ang**3):
 XXXX=         -26819.9087 YYYY=         -26258.9359 ZZZZ=         -19912.8881 XXXY=             94.2283
 XXXZ=             31.3462 YYYX=             19.8168 YYYZ=             -8.4096 ZZZX=            -27.6042
 ZZZY=             -2.0669 XXYY=          -8849.4223 XXZZ=          -7901.9053 YYZZ=          -7656.6753
 XXYZ=             -4.4771 YYXZ=             -3.4664 ZZXY=             -7.4937
 N-N= 2.059900806307D+04 E-N=-5.734755710647D+04  KE= 6.841416691264D+03
 No NMR shielding tensors so no spin-rotation constants.
 Leave Link  601 at Mon Jun 27 05:04:12 2022, MaxMem=  1342177280 cpu:              24.3 elap:               1.2
 (Enter /home/mkliu/g16/l9999.exe)
 1\1\GINC-NODE02\FOpt\RB3LYP\6-31G(d,p)\C84Cl8\MKLIU\27-Jun-2022\0\\#P 
 opt b3lyp/6-31G(d, p) empiricaldispersion=GD3\\force\\0,1\C,8.53277062
 98,18.8830721921,10.7398384067\C,12.4080423245,20.127643846,8.89834297
 04\C,8.2195667477,27.1196998932,10.5826517304\C,12.2818675809,25.58503
 62872,8.9284895255\C,8.0535049157,19.0875996489,9.4135638137\C,12.0736
 691383,19.4924962469,10.1442353789\C,7.947041717,26.8210939182,9.11736
 21772\C,11.8396384386,26.1416792318,10.1782766484\C,9.0154504489,19.16
 25989017,8.3131417167\C,12.3195832127,20.1472900405,11.3419816608\C,12
 .095256597,25.4767501541,11.3634506473\C,8.9591338487,26.6620372166,8.
 1146153884\C,10.3835578095,18.9999879501,8.62424466\C,10.2836748323,26
 .7227880323,8.5672588573\C,10.8397371445,18.7836195169,9.9731075897\C,
 10.5969200239,26.8044265845,9.9953355573\C,9.9300585304,18.753526962,1
 1.0206374754\C,9.6262632892,26.7696425577,10.9978836201\C,10.224717285
 3,19.3710901195,12.2823042677\C,9.890308845,26.0736512362,12.211254810
 9\C,8.9372847885,19.8030127009,12.9530885152\C,8.7524292453,25.5887025
 497,13.0823724069\C,7.9095570394,19.4752000592,11.8781282614\C,7.41864
 80608,25.5684932614,12.3678635183\C,6.7602783001,20.1966540607,11.7327
 256869\C,7.1747701438,26.25722092,11.2581008648\C,6.1924858513,20.3399
 053782,10.4499662444\C,6.0591285942,25.900666916,10.297958815\C,6.7869
 505321,19.769618322,9.2949970223\C,6.7040901902,26.2397972217,8.982288
 225\C,6.4367577013,20.3628066842,8.0612651046\C,6.3653792956,25.565827
 612,7.812804081\C,7.3454540915,20.3418990329,6.9400014352\C,7.31763124
 47,25.4768189063,6.7317264379\C,8.6774649039,19.8918615394,7.090609648
 2\C,8.6546726919,25.9084913588,6.8997083126\C,9.725874514,20.580156410
 7,6.3264377711\C,9.7178598257,25.1603022801,6.2244304487\C,11.09661138
 19,20.5667695134,6.8306964952\C,12.8038726338,22.1620455417,7.68483049
 79\C,12.7848170265,23.5987823213,7.6861239118\C,11.0669021751,25.17304
 17789,6.7902352236\C,11.4055027958,19.7513944336,7.9377898323\C,13.004
 0052738,21.4175703867,8.8722954097\C,12.9326818931,24.3268378353,8.891
 2520395\C,11.3271184511,25.9804181994,7.9292159088\C,13.2250091881,22.
 1398591426,10.125560054\C,13.180088695,23.5897599471,10.1360126117\C,1
 2.9175994814,21.4607997659,11.3381304721\C,12.8180890888,24.2226478808
 ,11.3528581008\C,12.4762522073,22.1425053793,12.5039812891\C,12.434951
 9465,23.5037937038,12.5116904165\C,11.394941668,20.0572254065,12.43677
 74833\C,11.1314224881,25.4695358455,12.3987497894\C,11.4985497576,21.2
 945427978,13.3037653741\C,11.4002165211,24.2727575144,13.3107529098\C,
 8.9331609245,21.3159227987,13.2264577254\C,8.9236474043,24.1100441146,
 13.3893714858\C,7.7181491935,22.0290446067,13.1085308101\C,7.730983567
 7,23.4174451822,13.208265207\C,6.4403687807,21.3996264044,12.589397363
 1\C,6.6178221363,24.3426303549,12.7385356461\C,5.7718978054,22.3286956
 967,11.5725605795\C,5.8903241037,23.7199053019,11.5587369656\C,5.52845
 4606,21.6267132147,10.3835884766\C,5.6629259532,24.4277540328,10.36011
 86561\C,5.3039705402,22.2894220239,9.1563064703\C,5.340499966,23.73720
 28206,9.1453027862\C,5.6243348361,21.5416108362,7.9826510232\C,5.59383
 312,24.3734231965,7.8729421292\C,5.9469516817,22.2098794153,6.76079484
 27\C,5.9309491774,23.5957539159,6.709934989\C,7.0028923693,21.45700154
 4,6.1010384876\C,6.9869137811,24.2938749922,5.9879102381\C,7.995202460
 7,22.1241517986,5.4113913174\C,7.991355412,23.5823463877,5.359781528\C
 ,9.3525371428,21.6728824087,5.5034900693\C,9.3501383039,24.0341276979,
 5.4410278668\C,11.9295711521,21.7020842148,6.6428088447\C,11.912716943
 9,24.0444921945,6.6341506075\C,10.1901079146,22.8518037074,5.393651397
 1\C,11.4400341879,22.865241808,5.9615971948\C,10.1488984747,22.0226633
 651,13.4000511131\C,10.1402674565,23.4349802501,13.4625283152\Cl,7.920
 7636215,28.9305499859,10.932229776\Cl,8.6577521439,26.5863768095,14.63
 86387109\Cl,12.0309073426,24.7937770189,14.9613263417\Cl,12.1111884304
 ,20.9073891164,14.9969101553\Cl,8.620595626,18.8960440692,14.524903911
 3\Cl,5.3096530525,20.9744857379,13.9796713214\Cl,5.4195175537,24.70692
 70559,14.0988282991\Cl,4.5472841153,26.948293545,10.5994915308\\Versio
 n=ES64L-G16RevA.03\State=1-A\HF=-6882.6293117\RMSD=9.899e-09\RMSF=1.49
 5e-05\Dipole=0.8306907,-1.3844417,-3.1297611\Quadrupole=4.0232076,-2.4
 620655,-1.561142,7.5352319,3.5383586,-0.2568357\PG=C01 [X(C84Cl8)]\\@


 IN SO FAR AS QUANTUM MECHANICS IS CORRECT, CHEMICAL 
 QUESTIONS ARE PROBLEMS IN APPLIED MATHEMATICS.

                    -- EYRING, WALTER, & KIMBALL, 1944
 Job cpu time:       1 days 10 hours 42 minutes 44.2 seconds.
 Elapsed time:       0 days  1 hours 26 minutes 54.3 seconds.
 File lengths (MBytes):  RWF=   1225 Int=      0 D2E=      0 Chk=    154 Scr=      1
 Normal termination of Gaussian 16 at Mon Jun 27 05:04:14 2022.
