 Entering Gaussian System, Link 0=g16
 Input=8_addons_C84_11_Cl22_rank_9.gjf
 Output=8_addons_C84_11_Cl22_rank_9.log
 Initial command:
 /home/mkliu/g16/l1.exe "/data/scratch/Gau-216133.inp" -scrdir="/data/scratch/"
 Entering Link 1 = /home/mkliu/g16/l1.exe PID=    216134.
  
 Copyright (c) 1988,1990,1992,1993,1995,1998,2003,2009,2016,
            Gaussian, Inc.  All Rights Reserved.
  
 This is part of the Gaussian(R) 16 program.  It is based on
 the Gaussian(R) 09 system (copyright 2009, Gaussian, Inc.),
 the Gaussian(R) 03 system (copyright 2003, Gaussian, Inc.),
 the Gaussian(R) 98 system (copyright 1998, Gaussian, Inc.),
 the Gaussian(R) 94 system (copyright 1995, Gaussian, Inc.),
 the Gaussian 92(TM) system (copyright 1992, Gaussian, Inc.),
 the Gaussian 90(TM) system (copyright 1990, Gaussian, Inc.),
 the Gaussian 88(TM) system (copyright 1988, Gaussian, Inc.),
 the Gaussian 86(TM) system (copyright 1986, Carnegie Mellon
 University), and the Gaussian 82(TM) system (copyright 1983,
 Carnegie Mellon University). Gaussian is a federally registered
 trademark of Gaussian, Inc.
  
 This software contains proprietary and confidential information,
 including trade secrets, belonging to Gaussian, Inc.
  
 This software is provided under written license and may be
 used, copied, transmitted, or stored only in accord with that
 written license.
  
 The following legend is applicable only to US Government
 contracts under FAR:
  
                    RESTRICTED RIGHTS LEGEND
  
 Use, reproduction and disclosure by the US Government is
 subject to restrictions as set forth in subparagraphs (a)
 and (c) of the Commercial Computer Software - Restricted
 Rights clause in FAR 52.227-19.
  
 Gaussian, Inc.
 340 Quinnipiac St., Bldg. 40, Wallingford CT 06492
  
  
 ---------------------------------------------------------------
 Warning -- This program may not be used in any manner that
 competes with the business of Gaussian, Inc. or will provide
 assistance to any competitor of Gaussian, Inc.  The licensee
 of this program is prohibited from giving any competitor of
 Gaussian, Inc. access to this program.  By using this program,
 the user acknowledges that Gaussian, Inc. is engaged in the
 business of creating and licensing software in the field of
 computational chemistry and represents and warrants to the
 licensee that it is not a competitor of Gaussian, Inc. and that
 it will not use this program in any manner prohibited above.
 ---------------------------------------------------------------
  

 Cite this work as:
 Gaussian 16, Revision A.03,
 M. J. Frisch, G. W. Trucks, H. B. Schlegel, G. E. Scuseria, 
 M. A. Robb, J. R. Cheeseman, G. Scalmani, V. Barone, 
 G. A. Petersson, H. Nakatsuji, X. Li, M. Caricato, A. V. Marenich, 
 J. Bloino, B. G. Janesko, R. Gomperts, B. Mennucci, H. P. Hratchian, 
 J. V. Ortiz, A. F. Izmaylov, J. L. Sonnenberg, D. Williams-Young, 
 F. Ding, F. Lipparini, F. Egidi, J. Goings, B. Peng, A. Petrone, 
 T. Henderson, D. Ranasinghe, V. G. Zakrzewski, J. Gao, N. Rega, 
 G. Zheng, W. Liang, M. Hada, M. Ehara, K. Toyota, R. Fukuda, 
 J. Hasegawa, M. Ishida, T. Nakajima, Y. Honda, O. Kitao, H. Nakai, 
 T. Vreven, K. Throssell, J. A. Montgomery, Jr., J. E. Peralta, 
 F. Ogliaro, M. J. Bearpark, J. J. Heyd, E. N. Brothers, K. N. Kudin, 
 V. N. Staroverov, T. A. Keith, R. Kobayashi, J. Normand, 
 K. Raghavachari, A. P. Rendell, J. C. Burant, S. S. Iyengar, 
 J. Tomasi, M. Cossi, J. M. Millam, M. Klene, C. Adamo, R. Cammi, 
 J. W. Ochterski, R. L. Martin, K. Morokuma, O. Farkas, 
 J. B. Foresman, and D. J. Fox, Gaussian, Inc., Wallingford CT, 2016.
 
 ******************************************
 Gaussian 16:  ES64L-G16RevA.03 25-Dec-2016
                30-Jun-2022 
 ******************************************
 %mem=10GB
 %chk=8_addons_C84_11_Cl22_rank_9.chk
 %nprocshared=24
 Will use up to   24 processors via shared memory.
 ------------------------------------------------
 #P opt b3lyp/6-31G(d, p) empiricaldispersion=GD3
 ------------------------------------------------
 1/18=20,19=15,26=3,38=1/1,3;
 2/9=110,12=2,17=6,18=5,40=1/2;
 3/5=1,6=6,7=101,11=2,25=1,30=1,71=1,74=-5,124=31/1,2,3;
 4//1;
 5/5=2,38=5/2;
 6/7=2,8=2,9=2,10=2,28=1/1;
 7//1,2,3,16;
 1/18=20,19=15,26=3/3(2);
 2/9=110/2;
 99//99;
 2/9=110/2;
 3/5=1,6=6,7=101,11=2,25=1,30=1,71=1,74=-5,124=31/1,2,3;
 4/5=5,16=3,69=1/1;
 5/5=2,38=5/2;
 7//1,2,3,16;
 1/18=20,19=15,26=3/3(-5);
 2/9=110/2;
 6/7=2,8=2,9=2,10=2,19=2,28=1/1;
 99/9=1/99;
 Leave Link    1 at Thu Jun 30 00:17:17 2022, MaxMem=  1342177280 cpu:               0.7 elap:               0.1
 (Enter /home/mkliu/g16/l101.exe)
 -----
 force
 -----
 Symbolic Z-matrix:
 Charge =  0 Multiplicity = 1
 C                     8.49035   18.90289   10.74975 
 C                     12.5815   19.99188   8.87423 
 C                     8.25902   26.83659   10.52504 
 C                     12.28408   25.57539   8.96849 
 C                     8.01878   19.12334   9.44236 
 C                     12.06821   19.50706   10.19459 
 C                     7.96031   26.80923   9.13669 
 C                     11.85477   26.15105   10.21803 
 C                     8.98415   19.23993   8.36693 
 C                     12.33827   20.14174   11.36665 
 C                     12.12507   25.51114   11.3915 
 C                     8.96744   26.63672   8.15545 
 C                     10.34334   19.10184   8.68435 
 C                     10.28922   26.69839   8.63018 
 C                     10.8032   18.86773   10.01155 
 C                     10.59346   26.80405   10.00858 
 C                     9.87908   18.78533   11.0369 
 C                     9.58719   26.76877   10.99697 
 C                     10.15354   19.45434   12.27354 
 C                     9.84509   26.03836   12.20459 
 C                     8.94258   20.00444   12.7725 
 C                     8.75557   25.40381   12.8389 
 C                     7.88909   19.54049   11.89125 
 C                     7.41832   25.53553   12.36402 
 C                     6.73159   20.24707   11.75265 
 C                     7.17143   26.2408   11.23192 
 C                     6.16581   20.37498   10.46694 
 C                     6.03757   25.91934   10.29704 
 C                     6.76349   19.80616   9.3235 
 C                     6.66032   26.25996   8.974 
 C                     6.42501   20.40993   8.0986 
 C                     6.36368   25.59678   7.83382 
 C                     7.34294   20.39348   6.98516 
 C                     7.34385   25.45165   6.80739 
 C                     8.66842   19.95619   7.15693 
 C                     8.6738    25.88863   6.96102 
 C                     9.71235   20.62573   6.41072 
 C                     9.72548   25.1481   6.29462 
 C                     11.06297   20.58794   6.906 
 C                     12.76537   22.15606   7.76728 
 C                     12.70593   23.56087   7.7749 
 C                     11.05211   25.14832   6.8577 
 C                     11.36012   19.8119   7.98433 
 C                     12.94256   21.45511   8.93466 
 C                     12.87868   24.28803   8.96326 
 C                     11.33268   25.93851   7.99327 
 C                     13.14661   22.1691   10.15029 
 C                     13.12754   23.56168   10.16455 
 C                     13.17566   21.38941   11.45771 
 C                     13.06863   24.33616   11.47162 
 C                     12.43659   22.15939   12.52107 
 C                     12.39565   23.51172   12.52578 
 C                     11.34969   20.14608   12.40151 
 C                     11.10793   25.42357   12.38001 
 C                     11.34082   21.41132   13.04031 
 C                     11.24865   24.17373   13.04051 
 C                     8.89214   21.30537   13.30858 
 C                     8.89183   24.12438   13.43319 
 C                     7.66081   22.05101   13.19686 
 C                     7.669     23.41229   13.29888 
 C                     6.41519   21.43831   12.60798 
 C                     6.59668   24.34701   12.76486 
 C                     5.7987    22.36748   11.58188 
 C                     5.92166   23.73445   11.56387 
 C                     5.55257   21.66359   10.38953 
 C                     5.70087   24.43738   10.34469 
 C                     5.33894   22.32994   9.17329 
 C                     5.38579   23.75541   9.17208 
 C                     5.62587   21.56808   8.01068 
 C                     5.38097   24.46017   7.82417 
 C                     5.95752   22.23701   6.77567 
 C                     5.94007   23.60213   6.71695 
 C                     7.00964   21.48538   6.14544 
 C                     7.01502   24.27877   6.0657 
 C                     8.01755   22.13684   5.44756 
 C                     8.02101   23.5749   5.42379 
 C                     9.35289   21.67823   5.54459 
 C                     9.36938   24.02831   5.51913 
 C                     12.09053   21.62198   6.52194 
 C                     11.87131   24.01168   6.70571 
 C                     10.20083   22.85686   5.44761 
 C                     11.44808   22.86704   5.99019 
 C                     10.1366   22.02018   13.46399 
 C                     10.12467   23.44912   13.5008 
 Cl                    13.99049   19.02734   8.28282 
 Cl                    14.895    21.05124   11.88859 
 Cl                    14.73846   24.85442   11.92822 
 Cl                    13.28044   20.91696   5.35777 
 Cl                    5.24471   21.04301   13.9296 
 Cl                    5.37085   24.7356   14.03357 
 Cl                    4.54672   26.86997   10.65302 
 Cl                    3.68953   24.9899   7.45506 
 
 ITRead=  0  0  0  0  0  0  0  0  0  0  0  0  0  0  0  0  0  0  0  0
 ITRead=  0  0  0  0  0  0  0  0  0  0  0  0  0  0  0  0  0  0  0  0
 ITRead=  0  0  0  0  0  0  0  0  0  0  0  0  0  0  0  0  0  0  0  0
 ITRead=  0  0  0  0  0  0  0  0  0  0  0  0  0  0  0  0  0  0  0  0
 ITRead=  0  0  0  0  0  0  0  0  0  0  0  0
 MicOpt= -1 -1 -1 -1 -1 -1 -1 -1 -1 -1 -1 -1 -1 -1 -1 -1 -1 -1 -1 -1
 MicOpt= -1 -1 -1 -1 -1 -1 -1 -1 -1 -1 -1 -1 -1 -1 -1 -1 -1 -1 -1 -1
 MicOpt= -1 -1 -1 -1 -1 -1 -1 -1 -1 -1 -1 -1 -1 -1 -1 -1 -1 -1 -1 -1
 MicOpt= -1 -1 -1 -1 -1 -1 -1 -1 -1 -1 -1 -1 -1 -1 -1 -1 -1 -1 -1 -1
 MicOpt= -1 -1 -1 -1 -1 -1 -1 -1 -1 -1 -1 -1
 NAtoms=     92 NQM=       92 NQMF=       0 NMMI=      0 NMMIF=      0
                NMic=       0 NMicF=      0.
                    Isotopes and Nuclear Properties:
 (Nuclear quadrupole moments (NQMom) in fm**2, nuclear magnetic moments (NMagM)
  in nuclear magnetons)

  Atom         1           2           3           4           5           6           7           8           9          10
 IAtWgt=          12          12          12          12          12          12          12          12          12          12
 AtmWgt=  12.0000000  12.0000000  12.0000000  12.0000000  12.0000000  12.0000000  12.0000000  12.0000000  12.0000000  12.0000000
 NucSpn=           0           0           0           0           0           0           0           0           0           0
 AtZEff=  -0.0000000  -0.0000000  -0.0000000  -0.0000000  -0.0000000  -0.0000000  -0.0000000  -0.0000000  -0.0000000  -0.0000000
 NQMom=    0.0000000   0.0000000   0.0000000   0.0000000   0.0000000   0.0000000   0.0000000   0.0000000   0.0000000   0.0000000
 NMagM=    0.0000000   0.0000000   0.0000000   0.0000000   0.0000000   0.0000000   0.0000000   0.0000000   0.0000000   0.0000000
 AtZNuc=   6.0000000   6.0000000   6.0000000   6.0000000   6.0000000   6.0000000   6.0000000   6.0000000   6.0000000   6.0000000

  Atom        11          12          13          14          15          16          17          18          19          20
 IAtWgt=          12          12          12          12          12          12          12          12          12          12
 AtmWgt=  12.0000000  12.0000000  12.0000000  12.0000000  12.0000000  12.0000000  12.0000000  12.0000000  12.0000000  12.0000000
 NucSpn=           0           0           0           0           0           0           0           0           0           0
 AtZEff=  -0.0000000  -0.0000000  -0.0000000  -0.0000000  -0.0000000  -0.0000000  -0.0000000  -0.0000000  -0.0000000  -0.0000000
 NQMom=    0.0000000   0.0000000   0.0000000   0.0000000   0.0000000   0.0000000   0.0000000   0.0000000   0.0000000   0.0000000
 NMagM=    0.0000000   0.0000000   0.0000000   0.0000000   0.0000000   0.0000000   0.0000000   0.0000000   0.0000000   0.0000000
 AtZNuc=   6.0000000   6.0000000   6.0000000   6.0000000   6.0000000   6.0000000   6.0000000   6.0000000   6.0000000   6.0000000

  Atom        21          22          23          24          25          26          27          28          29          30
 IAtWgt=          12          12          12          12          12          12          12          12          12          12
 AtmWgt=  12.0000000  12.0000000  12.0000000  12.0000000  12.0000000  12.0000000  12.0000000  12.0000000  12.0000000  12.0000000
 NucSpn=           0           0           0           0           0           0           0           0           0           0
 AtZEff=  -0.0000000  -0.0000000  -0.0000000  -0.0000000  -0.0000000  -0.0000000  -0.0000000  -0.0000000  -0.0000000  -0.0000000
 NQMom=    0.0000000   0.0000000   0.0000000   0.0000000   0.0000000   0.0000000   0.0000000   0.0000000   0.0000000   0.0000000
 NMagM=    0.0000000   0.0000000   0.0000000   0.0000000   0.0000000   0.0000000   0.0000000   0.0000000   0.0000000   0.0000000
 AtZNuc=   6.0000000   6.0000000   6.0000000   6.0000000   6.0000000   6.0000000   6.0000000   6.0000000   6.0000000   6.0000000

  Atom        31          32          33          34          35          36          37          38          39          40
 IAtWgt=          12          12          12          12          12          12          12          12          12          12
 AtmWgt=  12.0000000  12.0000000  12.0000000  12.0000000  12.0000000  12.0000000  12.0000000  12.0000000  12.0000000  12.0000000
 NucSpn=           0           0           0           0           0           0           0           0           0           0
 AtZEff=  -0.0000000  -0.0000000  -0.0000000  -0.0000000  -0.0000000  -0.0000000  -0.0000000  -0.0000000  -0.0000000  -0.0000000
 NQMom=    0.0000000   0.0000000   0.0000000   0.0000000   0.0000000   0.0000000   0.0000000   0.0000000   0.0000000   0.0000000
 NMagM=    0.0000000   0.0000000   0.0000000   0.0000000   0.0000000   0.0000000   0.0000000   0.0000000   0.0000000   0.0000000
 AtZNuc=   6.0000000   6.0000000   6.0000000   6.0000000   6.0000000   6.0000000   6.0000000   6.0000000   6.0000000   6.0000000

  Atom        41          42          43          44          45          46          47          48          49          50
 IAtWgt=          12          12          12          12          12          12          12          12          12          12
 AtmWgt=  12.0000000  12.0000000  12.0000000  12.0000000  12.0000000  12.0000000  12.0000000  12.0000000  12.0000000  12.0000000
 NucSpn=           0           0           0           0           0           0           0           0           0           0
 AtZEff=  -0.0000000  -0.0000000  -0.0000000  -0.0000000  -0.0000000  -0.0000000  -0.0000000  -0.0000000  -0.0000000  -0.0000000
 NQMom=    0.0000000   0.0000000   0.0000000   0.0000000   0.0000000   0.0000000   0.0000000   0.0000000   0.0000000   0.0000000
 NMagM=    0.0000000   0.0000000   0.0000000   0.0000000   0.0000000   0.0000000   0.0000000   0.0000000   0.0000000   0.0000000
 AtZNuc=   6.0000000   6.0000000   6.0000000   6.0000000   6.0000000   6.0000000   6.0000000   6.0000000   6.0000000   6.0000000

  Atom        51          52          53          54          55          56          57          58          59          60
 IAtWgt=          12          12          12          12          12          12          12          12          12          12
 AtmWgt=  12.0000000  12.0000000  12.0000000  12.0000000  12.0000000  12.0000000  12.0000000  12.0000000  12.0000000  12.0000000
 NucSpn=           0           0           0           0           0           0           0           0           0           0
 AtZEff=  -0.0000000  -0.0000000  -0.0000000  -0.0000000  -0.0000000  -0.0000000  -0.0000000  -0.0000000  -0.0000000  -0.0000000
 NQMom=    0.0000000   0.0000000   0.0000000   0.0000000   0.0000000   0.0000000   0.0000000   0.0000000   0.0000000   0.0000000
 NMagM=    0.0000000   0.0000000   0.0000000   0.0000000   0.0000000   0.0000000   0.0000000   0.0000000   0.0000000   0.0000000
 AtZNuc=   6.0000000   6.0000000   6.0000000   6.0000000   6.0000000   6.0000000   6.0000000   6.0000000   6.0000000   6.0000000

  Atom        61          62          63          64          65          66          67          68          69          70
 IAtWgt=          12          12          12          12          12          12          12          12          12          12
 AtmWgt=  12.0000000  12.0000000  12.0000000  12.0000000  12.0000000  12.0000000  12.0000000  12.0000000  12.0000000  12.0000000
 NucSpn=           0           0           0           0           0           0           0           0           0           0
 AtZEff=  -0.0000000  -0.0000000  -0.0000000  -0.0000000  -0.0000000  -0.0000000  -0.0000000  -0.0000000  -0.0000000  -0.0000000
 NQMom=    0.0000000   0.0000000   0.0000000   0.0000000   0.0000000   0.0000000   0.0000000   0.0000000   0.0000000   0.0000000
 NMagM=    0.0000000   0.0000000   0.0000000   0.0000000   0.0000000   0.0000000   0.0000000   0.0000000   0.0000000   0.0000000
 AtZNuc=   6.0000000   6.0000000   6.0000000   6.0000000   6.0000000   6.0000000   6.0000000   6.0000000   6.0000000   6.0000000

  Atom        71          72          73          74          75          76          77          78          79          80
 IAtWgt=          12          12          12          12          12          12          12          12          12          12
 AtmWgt=  12.0000000  12.0000000  12.0000000  12.0000000  12.0000000  12.0000000  12.0000000  12.0000000  12.0000000  12.0000000
 NucSpn=           0           0           0           0           0           0           0           0           0           0
 AtZEff=  -0.0000000  -0.0000000  -0.0000000  -0.0000000  -0.0000000  -0.0000000  -0.0000000  -0.0000000  -0.0000000  -0.0000000
 NQMom=    0.0000000   0.0000000   0.0000000   0.0000000   0.0000000   0.0000000   0.0000000   0.0000000   0.0000000   0.0000000
 NMagM=    0.0000000   0.0000000   0.0000000   0.0000000   0.0000000   0.0000000   0.0000000   0.0000000   0.0000000   0.0000000
 AtZNuc=   6.0000000   6.0000000   6.0000000   6.0000000   6.0000000   6.0000000   6.0000000   6.0000000   6.0000000   6.0000000

  Atom        81          82          83          84          85          86          87          88          89          90
 IAtWgt=          12          12          12          12          35          35          35          35          35          35
 AtmWgt=  12.0000000  12.0000000  12.0000000  12.0000000  34.9688527  34.9688527  34.9688527  34.9688527  34.9688527  34.9688527
 NucSpn=           0           0           0           0           3           3           3           3           3           3
 AtZEff=  -0.0000000  -0.0000000  -0.0000000  -0.0000000  -0.0000000  -0.0000000  -0.0000000  -0.0000000  -0.0000000  -0.0000000
 NQMom=    0.0000000   0.0000000   0.0000000   0.0000000  -8.1650000  -8.1650000  -8.1650000  -8.1650000  -8.1650000  -8.1650000
 NMagM=    0.0000000   0.0000000   0.0000000   0.0000000   0.8218740   0.8218740   0.8218740   0.8218740   0.8218740   0.8218740
 AtZNuc=   6.0000000   6.0000000   6.0000000   6.0000000  17.0000000  17.0000000  17.0000000  17.0000000  17.0000000  17.0000000

  Atom        91          92
 IAtWgt=          35          35
 AtmWgt=  34.9688527  34.9688527
 NucSpn=           3           3
 AtZEff=  -0.0000000  -0.0000000
 NQMom=   -8.1650000  -8.1650000
 NMagM=    0.8218740   0.8218740
 AtZNuc=  17.0000000  17.0000000
 Leave Link  101 at Thu Jun 30 00:17:17 2022, MaxMem=  1342177280 cpu:               6.7 elap:               0.3
 (Enter /home/mkliu/g16/l103.exe)

 GradGradGradGradGradGradGradGradGradGradGradGradGradGradGradGradGradGrad
 Berny optimization.
 Initialization pass.
                           ----------------------------
                           !    Initial Parameters    !
                           ! (Angstroms and Degrees)  !
 --------------------------                            --------------------------
 ! Name  Definition              Value          Derivative Info.                !
 --------------------------------------------------------------------------------
 ! R1    R(1,5)                  1.4072         estimate D2E/DX2                !
 ! R2    R(1,17)                 1.423          estimate D2E/DX2                !
 ! R3    R(1,23)                 1.4391         estimate D2E/DX2                !
 ! R4    R(2,6)                  1.4973         estimate D2E/DX2                !
 ! R5    R(2,43)                 1.5219         estimate D2E/DX2                !
 ! R6    R(2,44)                 1.5083         estimate D2E/DX2                !
 ! R7    R(2,85)                 1.807          estimate D2E/DX2                !
 ! R8    R(3,7)                  1.4204         estimate D2E/DX2                !
 ! R9    R(3,18)                 1.4112         estimate D2E/DX2                !
 ! R10   R(3,26)                 1.4274         estimate D2E/DX2                !
 ! R11   R(4,8)                  1.4412         estimate D2E/DX2                !
 ! R12   R(4,45)                 1.4181         estimate D2E/DX2                !
 ! R13   R(4,46)                 1.41           estimate D2E/DX2                !
 ! R14   R(5,9)                  1.4499         estimate D2E/DX2                !
 ! R15   R(5,29)                 1.4339         estimate D2E/DX2                !
 ! R16   R(6,10)                 1.36           estimate D2E/DX2                !
 ! R17   R(6,15)                 1.4292         estimate D2E/DX2                !
 ! R18   R(7,12)                 1.4167         estimate D2E/DX2                !
 ! R19   R(7,30)                 1.4206         estimate D2E/DX2                !
 ! R20   R(8,11)                 1.3637         estimate D2E/DX2                !
 ! R21   R(8,16)                 1.4357         estimate D2E/DX2                !
 ! R22   R(9,13)                 1.4026         estimate D2E/DX2                !
 ! R23   R(9,35)                 1.4411         estimate D2E/DX2                !
 ! R24   R(10,49)                1.5054         estimate D2E/DX2                !
 ! R25   R(10,53)                1.4312         estimate D2E/DX2                !
 ! R26   R(11,50)                1.5091         estimate D2E/DX2                !
 ! R27   R(11,54)                1.4211         estimate D2E/DX2                !
 ! R28   R(12,14)                1.4058         estimate D2E/DX2                !
 ! R29   R(12,36)                1.4396         estimate D2E/DX2                !
 ! R30   R(13,15)                1.424          estimate D2E/DX2                !
 ! R31   R(13,43)                1.4241         estimate D2E/DX2                !
 ! R32   R(14,16)                1.4155         estimate D2E/DX2                !
 ! R33   R(14,46)                1.4394         estimate D2E/DX2                !
 ! R34   R(15,17)                1.3828         estimate D2E/DX2                !
 ! R35   R(16,18)                1.4109         estimate D2E/DX2                !
 ! R36   R(17,19)                1.4325         estimate D2E/DX2                !
 ! R37   R(18,20)                1.4347         estimate D2E/DX2                !
 ! R38   R(19,21)                1.4206         estimate D2E/DX2                !
 ! R39   R(19,53)                1.3877         estimate D2E/DX2                !
 ! R40   R(20,22)                1.4114         estimate D2E/DX2                !
 ! R41   R(20,54)                1.4154         estimate D2E/DX2                !
 ! R42   R(21,23)                1.4497         estimate D2E/DX2                !
 ! R43   R(21,57)                1.408          estimate D2E/DX2                !
 ! R44   R(22,24)                1.4252         estimate D2E/DX2                !
 ! R45   R(22,58)                1.4173         estimate D2E/DX2                !
 ! R46   R(23,25)                1.3632         estimate D2E/DX2                !
 ! R47   R(24,26)                1.3565         estimate D2E/DX2                !
 ! R48   R(24,62)                1.4994         estimate D2E/DX2                !
 ! R49   R(25,27)                1.4105         estimate D2E/DX2                !
 ! R50   R(25,61)                1.5003         estimate D2E/DX2                !
 ! R51   R(26,28)                1.5043         estimate D2E/DX2                !
 ! R52   R(27,29)                1.41           estimate D2E/DX2                !
 ! R53   R(27,65)                1.4292         estimate D2E/DX2                !
 ! R54   R(28,30)                1.5014         estimate D2E/DX2                !
 ! R55   R(28,66)                1.5205         estimate D2E/DX2                !
 ! R56   R(28,91)                1.8036         estimate D2E/DX2                !
 ! R57   R(29,31)                1.4069         estimate D2E/DX2                !
 ! R58   R(30,32)                1.352          estimate D2E/DX2                !
 ! R59   R(31,33)                1.4431         estimate D2E/DX2                !
 ! R60   R(31,69)                1.4099         estimate D2E/DX2                !
 ! R61   R(32,34)                1.4267         estimate D2E/DX2                !
 ! R62   R(32,70)                1.5026         estimate D2E/DX2                !
 ! R63   R(33,35)                1.4063         estimate D2E/DX2                !
 ! R64   R(33,73)                1.4172         estimate D2E/DX2                !
 ! R65   R(34,36)                1.4083         estimate D2E/DX2                !
 ! R66   R(34,74)                1.4261         estimate D2E/DX2                !
 ! R67   R(35,37)                1.4474         estimate D2E/DX2                !
 ! R68   R(36,38)                1.4486         estimate D2E/DX2                !
 ! R69   R(37,39)                1.4391         estimate D2E/DX2                !
 ! R70   R(37,77)                1.4097         estimate D2E/DX2                !
 ! R71   R(38,42)                1.4412         estimate D2E/DX2                !
 ! R72   R(38,78)                1.4079         estimate D2E/DX2                !
 ! R73   R(39,43)                1.3614         estimate D2E/DX2                !
 ! R74   R(39,79)                1.5075         estimate D2E/DX2                !
 ! R75   R(40,41)                1.4061         estimate D2E/DX2                !
 ! R76   R(40,44)                1.3731         estimate D2E/DX2                !
 ! R77   R(40,79)                1.5138         estimate D2E/DX2                !
 ! R78   R(41,45)                1.4039         estimate D2E/DX2                !
 ! R79   R(41,80)                1.4293         estimate D2E/DX2                !
 ! R80   R(42,46)                1.4116         estimate D2E/DX2                !
 ! R81   R(42,80)                1.4093         estimate D2E/DX2                !
 ! R82   R(44,47)                1.4245         estimate D2E/DX2                !
 ! R83   R(45,48)                1.4257         estimate D2E/DX2                !
 ! R84   R(47,48)                1.3928         estimate D2E/DX2                !
 ! R85   R(47,49)                1.5225         estimate D2E/DX2                !
 ! R86   R(48,50)                1.5204         estimate D2E/DX2                !
 ! R87   R(49,51)                1.5066         estimate D2E/DX2                !
 ! R88   R(49,86)                1.8045         estimate D2E/DX2                !
 ! R89   R(50,52)                1.498          estimate D2E/DX2                !
 ! R90   R(50,87)                1.8071         estimate D2E/DX2                !
 ! R91   R(51,52)                1.353          estimate D2E/DX2                !
 ! R92   R(51,55)                1.4248         estimate D2E/DX2                !
 ! R93   R(52,56)                1.4208         estimate D2E/DX2                !
 ! R94   R(53,55)                1.4174         estimate D2E/DX2                !
 ! R95   R(54,56)                1.4206         estimate D2E/DX2                !
 ! R96   R(55,83)                1.4143         estimate D2E/DX2                !
 ! R97   R(56,84)                1.4143         estimate D2E/DX2                !
 ! R98   R(57,59)                1.4438         estimate D2E/DX2                !
 ! R99   R(57,83)                1.4435         estimate D2E/DX2                !
 ! R100  R(58,60)                1.4214         estimate D2E/DX2                !
 ! R101  R(58,84)                1.4073         estimate D2E/DX2                !
 ! R102  R(59,60)                1.3651         estimate D2E/DX2                !
 ! R103  R(59,61)                1.5079         estimate D2E/DX2                !
 ! R104  R(60,62)                1.5195         estimate D2E/DX2                !
 ! R105  R(61,63)                1.5153         estimate D2E/DX2                !
 ! R106  R(61,89)                1.8091         estimate D2E/DX2                !
 ! R107  R(62,64)                1.5077         estimate D2E/DX2                !
 ! R108  R(62,90)                1.8065         estimate D2E/DX2                !
 ! R109  R(63,64)                1.3726         estimate D2E/DX2                !
 ! R110  R(63,65)                1.4063         estimate D2E/DX2                !
 ! R111  R(64,66)                1.4245         estimate D2E/DX2                !
 ! R112  R(65,67)                1.4032         estimate D2E/DX2                !
 ! R113  R(66,68)                1.3926         estimate D2E/DX2                !
 ! R114  R(67,68)                1.4262         estimate D2E/DX2                !
 ! R115  R(67,69)                1.4193         estimate D2E/DX2                !
 ! R116  R(68,70)                1.521          estimate D2E/DX2                !
 ! R117  R(69,71)                1.4432         estimate D2E/DX2                !
 ! R118  R(70,72)                1.5082         estimate D2E/DX2                !
 ! R119  R(70,92)                1.8105         estimate D2E/DX2                !
 ! R120  R(71,72)                1.3665         estimate D2E/DX2                !
 ! R121  R(71,73)                1.4384         estimate D2E/DX2                !
 ! R122  R(72,74)                1.4274         estimate D2E/DX2                !
 ! R123  R(73,75)                1.3883         estimate D2E/DX2                !
 ! R124  R(74,76)                1.3855         estimate D2E/DX2                !
 ! R125  R(75,76)                1.4383         estimate D2E/DX2                !
 ! R126  R(75,77)                1.4152         estimate D2E/DX2                !
 ! R127  R(76,78)                1.4258         estimate D2E/DX2                !
 ! R128  R(77,81)                1.4552         estimate D2E/DX2                !
 ! R129  R(78,81)                1.4383         estimate D2E/DX2                !
 ! R130  R(79,82)                1.4986         estimate D2E/DX2                !
 ! R131  R(79,88)                1.8078         estimate D2E/DX2                !
 ! R132  R(80,82)                1.4147         estimate D2E/DX2                !
 ! R133  R(81,82)                1.3602         estimate D2E/DX2                !
 ! R134  R(83,84)                1.4295         estimate D2E/DX2                !
 ! A1    A(5,1,17)             121.8351         estimate D2E/DX2                !
 ! A2    A(5,1,23)             121.8372         estimate D2E/DX2                !
 ! A3    A(17,1,23)            106.5159         estimate D2E/DX2                !
 ! A4    A(6,2,43)             101.6672         estimate D2E/DX2                !
 ! A5    A(6,2,44)             111.1529         estimate D2E/DX2                !
 ! A6    A(6,2,85)             112.524          estimate D2E/DX2                !
 ! A7    A(43,2,44)            109.2852         estimate D2E/DX2                !
 ! A8    A(43,2,85)            111.7937         estimate D2E/DX2                !
 ! A9    A(44,2,85)            110.1374         estimate D2E/DX2                !
 ! A10   A(7,3,18)             121.594          estimate D2E/DX2                !
 ! A11   A(7,3,26)             108.4071         estimate D2E/DX2                !
 ! A12   A(18,3,26)            122.104          estimate D2E/DX2                !
 ! A13   A(8,4,45)             119.3881         estimate D2E/DX2                !
 ! A14   A(8,4,46)             107.2058         estimate D2E/DX2                !
 ! A15   A(45,4,46)            120.9426         estimate D2E/DX2                !
 ! A16   A(1,5,9)              118.5939         estimate D2E/DX2                !
 ! A17   A(1,5,29)             116.422          estimate D2E/DX2                !
 ! A18   A(9,5,29)             118.8889         estimate D2E/DX2                !
 ! A19   A(2,6,10)             122.7383         estimate D2E/DX2                !
 ! A20   A(2,6,15)             109.5934         estimate D2E/DX2                !
 ! A21   A(10,6,15)            119.665          estimate D2E/DX2                !
 ! A22   A(3,7,12)             121.9958         estimate D2E/DX2                !
 ! A23   A(3,7,30)             108.1696         estimate D2E/DX2                !
 ! A24   A(12,7,30)            121.6115         estimate D2E/DX2                !
 ! A25   A(4,8,11)             119.9737         estimate D2E/DX2                !
 ! A26   A(4,8,16)             108.4753         estimate D2E/DX2                !
 ! A27   A(11,8,16)            120.8719         estimate D2E/DX2                !
 ! A28   A(5,9,13)             117.9994         estimate D2E/DX2                !
 ! A29   A(5,9,35)             121.1235         estimate D2E/DX2                !
 ! A30   A(13,9,35)            116.8246         estimate D2E/DX2                !
 ! A31   A(6,10,49)            123.3255         estimate D2E/DX2                !
 ! A32   A(6,10,53)            119.1715         estimate D2E/DX2                !
 ! A33   A(49,10,53)           109.7541         estimate D2E/DX2                !
 ! A34   A(8,11,50)            122.3437         estimate D2E/DX2                !
 ! A35   A(8,11,54)            119.0542         estimate D2E/DX2                !
 ! A36   A(50,11,54)           111.2614         estimate D2E/DX2                !
 ! A37   A(7,12,14)            115.4162         estimate D2E/DX2                !
 ! A38   A(7,12,36)            119.5343         estimate D2E/DX2                !
 ! A39   A(14,12,36)           119.6536         estimate D2E/DX2                !
 ! A40   A(9,13,15)            122.6878         estimate D2E/DX2                !
 ! A41   A(9,13,43)            122.1114         estimate D2E/DX2                !
 ! A42   A(15,13,43)           108.0315         estimate D2E/DX2                !
 ! A43   A(12,14,16)           122.2893         estimate D2E/DX2                !
 ! A44   A(12,14,46)           120.598          estimate D2E/DX2                !
 ! A45   A(16,14,46)           108.3295         estimate D2E/DX2                !
 ! A46   A(6,15,13)            109.3705         estimate D2E/DX2                !
 ! A47   A(6,15,17)            121.5486         estimate D2E/DX2                !
 ! A48   A(13,15,17)           119.0181         estimate D2E/DX2                !
 ! A49   A(8,16,14)            107.2736         estimate D2E/DX2                !
 ! A50   A(8,16,18)            120.8636         estimate D2E/DX2                !
 ! A51   A(14,16,18)           121.8032         estimate D2E/DX2                !
 ! A52   A(1,17,15)            119.8449         estimate D2E/DX2                !
 ! A53   A(1,17,19)            108.8202         estimate D2E/DX2                !
 ! A54   A(15,17,19)           118.9625         estimate D2E/DX2                !
 ! A55   A(3,18,16)            115.8345         estimate D2E/DX2                !
 ! A56   A(3,18,20)            118.3692         estimate D2E/DX2                !
 ! A57   A(16,18,20)           118.306          estimate D2E/DX2                !
 ! A58   A(17,19,21)           108.7074         estimate D2E/DX2                !
 ! A59   A(17,19,53)           118.5256         estimate D2E/DX2                !
 ! A60   A(21,19,53)           120.6215         estimate D2E/DX2                !
 ! A61   A(18,20,22)           117.9314         estimate D2E/DX2                !
 ! A62   A(18,20,54)           119.0661         estimate D2E/DX2                !
 ! A63   A(22,20,54)           115.9595         estimate D2E/DX2                !
 ! A64   A(19,21,23)           106.3807         estimate D2E/DX2                !
 ! A65   A(19,21,57)           121.4718         estimate D2E/DX2                !
 ! A66   A(23,21,57)           120.0738         estimate D2E/DX2                !
 ! A67   A(20,22,24)           122.2093         estimate D2E/DX2                !
 ! A68   A(20,22,58)           121.3386         estimate D2E/DX2                !
 ! A69   A(24,22,58)           108.2623         estimate D2E/DX2                !
 ! A70   A(1,23,21)            108.6838         estimate D2E/DX2                !
 ! A71   A(1,23,25)            120.2491         estimate D2E/DX2                !
 ! A72   A(21,23,25)           120.8612         estimate D2E/DX2                !
 ! A73   A(22,24,26)           119.7973         estimate D2E/DX2                !
 ! A74   A(22,24,62)           110.5987         estimate D2E/DX2                !
 ! A75   A(26,24,62)           122.377          estimate D2E/DX2                !
 ! A76   A(23,25,27)           118.7036         estimate D2E/DX2                !
 ! A77   A(23,25,61)           122.1868         estimate D2E/DX2                !
 ! A78   A(27,25,61)           111.2894         estimate D2E/DX2                !
 ! A79   A(3,26,24)            119.4482         estimate D2E/DX2                !
 ! A80   A(3,26,28)            110.8383         estimate D2E/DX2                !
 ! A81   A(24,26,28)           123.008          estimate D2E/DX2                !
 ! A82   A(25,27,29)           122.1795         estimate D2E/DX2                !
 ! A83   A(25,27,65)           107.6532         estimate D2E/DX2                !
 ! A84   A(29,27,65)           120.1106         estimate D2E/DX2                !
 ! A85   A(26,28,30)           100.7497         estimate D2E/DX2                !
 ! A86   A(26,28,66)           110.8367         estimate D2E/DX2                !
 ! A87   A(26,28,91)           112.8139         estimate D2E/DX2                !
 ! A88   A(30,28,66)           109.9128         estimate D2E/DX2                !
 ! A89   A(30,28,91)           113.4028         estimate D2E/DX2                !
 ! A90   A(66,28,91)           108.9346         estimate D2E/DX2                !
 ! A91   A(5,29,27)            119.7319         estimate D2E/DX2                !
 ! A92   A(5,29,31)            119.1519         estimate D2E/DX2                !
 ! A93   A(27,29,31)           115.5256         estimate D2E/DX2                !
 ! A94   A(7,30,28)            111.4913         estimate D2E/DX2                !
 ! A95   A(7,30,32)            119.1451         estimate D2E/DX2                !
 ! A96   A(28,30,32)           122.742          estimate D2E/DX2                !
 ! A97   A(29,31,33)           120.9173         estimate D2E/DX2                !
 ! A98   A(29,31,69)           122.9006         estimate D2E/DX2                !
 ! A99   A(33,31,69)           108.7713         estimate D2E/DX2                !
 ! A100  A(30,32,34)           120.3922         estimate D2E/DX2                !
 ! A101  A(30,32,70)           121.3305         estimate D2E/DX2                !
 ! A102  A(34,32,70)           111.5782         estimate D2E/DX2                !
 ! A103  A(31,33,35)           120.586          estimate D2E/DX2                !
 ! A104  A(31,33,73)           107.3846         estimate D2E/DX2                !
 ! A105  A(35,33,73)           122.2505         estimate D2E/DX2                !
 ! A106  A(32,34,36)           122.5995         estimate D2E/DX2                !
 ! A107  A(32,34,74)           107.423          estimate D2E/DX2                !
 ! A108  A(36,34,74)           121.9825         estimate D2E/DX2                !
 ! A109  A(9,35,33)            117.62           estimate D2E/DX2                !
 ! A110  A(9,35,37)            120.3162         estimate D2E/DX2                !
 ! A111  A(33,35,37)           118.229          estimate D2E/DX2                !
 ! A112  A(12,36,34)           116.3829         estimate D2E/DX2                !
 ! A113  A(12,36,38)           119.9488         estimate D2E/DX2                !
 ! A114  A(34,36,38)           118.4765         estimate D2E/DX2                !
 ! A115  A(35,37,39)           119.166          estimate D2E/DX2                !
 ! A116  A(35,37,77)           118.5701         estimate D2E/DX2                !
 ! A117  A(39,37,77)           118.0603         estimate D2E/DX2                !
 ! A118  A(36,38,42)           119.2401         estimate D2E/DX2                !
 ! A119  A(36,38,78)           118.4474         estimate D2E/DX2                !
 ! A120  A(42,38,78)           116.626          estimate D2E/DX2                !
 ! A121  A(37,39,43)           119.501          estimate D2E/DX2                !
 ! A122  A(37,39,79)           122.2787         estimate D2E/DX2                !
 ! A123  A(43,39,79)           116.3608         estimate D2E/DX2                !
 ! A124  A(41,40,44)           120.7207         estimate D2E/DX2                !
 ! A125  A(41,40,79)           109.7621         estimate D2E/DX2                !
 ! A126  A(44,40,79)           125.2272         estimate D2E/DX2                !
 ! A127  A(40,41,45)           121.1239         estimate D2E/DX2                !
 ! A128  A(40,41,80)           109.6172         estimate D2E/DX2                !
 ! A129  A(45,41,80)           122.7995         estimate D2E/DX2                !
 ! A130  A(38,42,46)           119.8251         estimate D2E/DX2                !
 ! A131  A(38,42,80)           119.5256         estimate D2E/DX2                !
 ! A132  A(46,42,80)           115.0053         estimate D2E/DX2                !
 ! A133  A(2,43,13)            110.1542         estimate D2E/DX2                !
 ! A134  A(2,43,39)            124.8147         estimate D2E/DX2                !
 ! A135  A(13,43,39)           121.1804         estimate D2E/DX2                !
 ! A136  A(2,44,40)            115.4841         estimate D2E/DX2                !
 ! A137  A(2,44,47)            123.6908         estimate D2E/DX2                !
 ! A138  A(40,44,47)           119.2178         estimate D2E/DX2                !
 ! A139  A(4,45,41)            114.9455         estimate D2E/DX2                !
 ! A140  A(4,45,48)            122.1813         estimate D2E/DX2                !
 ! A141  A(41,45,48)           118.0895         estimate D2E/DX2                !
 ! A142  A(4,46,14)            108.6057         estimate D2E/DX2                !
 ! A143  A(4,46,42)            123.1172         estimate D2E/DX2                !
 ! A144  A(14,46,42)           120.49           estimate D2E/DX2                !
 ! A145  A(44,47,48)           120.5258         estimate D2E/DX2                !
 ! A146  A(44,47,49)           118.6115         estimate D2E/DX2                !
 ! A147  A(48,47,49)           120.2313         estimate D2E/DX2                !
 ! A148  A(45,48,47)           120.209          estimate D2E/DX2                !
 ! A149  A(45,48,50)           117.2634         estimate D2E/DX2                !
 ! A150  A(47,48,50)           121.241          estimate D2E/DX2                !
 ! A151  A(10,49,47)           111.2151         estimate D2E/DX2                !
 ! A152  A(10,49,51)           101.1511         estimate D2E/DX2                !
 ! A153  A(10,49,86)           112.9008         estimate D2E/DX2                !
 ! A154  A(47,49,51)           109.5727         estimate D2E/DX2                !
 ! A155  A(47,49,86)           108.6144         estimate D2E/DX2                !
 ! A156  A(51,49,86)           113.2446         estimate D2E/DX2                !
 ! A157  A(11,50,48)           112.0362         estimate D2E/DX2                !
 ! A158  A(11,50,52)           100.6604         estimate D2E/DX2                !
 ! A159  A(11,50,87)           111.5856         estimate D2E/DX2                !
 ! A160  A(48,50,52)           110.001          estimate D2E/DX2                !
 ! A161  A(48,50,87)           109.1176         estimate D2E/DX2                !
 ! A162  A(52,50,87)           113.2771         estimate D2E/DX2                !
 ! A163  A(49,51,52)           121.8799         estimate D2E/DX2                !
 ! A164  A(49,51,55)           111.4797         estimate D2E/DX2                !
 ! A165  A(52,51,55)           120.0173         estimate D2E/DX2                !
 ! A166  A(50,52,51)           122.2811         estimate D2E/DX2                !
 ! A167  A(50,52,56)           111.1728         estimate D2E/DX2                !
 ! A168  A(51,52,56)           119.4327         estimate D2E/DX2                !
 ! A169  A(10,53,19)           121.8178         estimate D2E/DX2                !
 ! A170  A(10,53,55)           109.4461         estimate D2E/DX2                !
 ! A171  A(19,53,55)           118.7607         estimate D2E/DX2                !
 ! A172  A(11,54,20)           121.7097         estimate D2E/DX2                !
 ! A173  A(11,54,56)           107.8624         estimate D2E/DX2                !
 ! A174  A(20,54,56)           121.8789         estimate D2E/DX2                !
 ! A175  A(51,55,53)           107.435          estimate D2E/DX2                !
 ! A176  A(51,55,83)           122.5461         estimate D2E/DX2                !
 ! A177  A(53,55,83)           121.6423         estimate D2E/DX2                !
 ! A178  A(52,56,54)           108.7506         estimate D2E/DX2                !
 ! A179  A(52,56,84)           121.3817         estimate D2E/DX2                !
 ! A180  A(54,56,84)           121.557          estimate D2E/DX2                !
 ! A181  A(21,57,59)           118.5725         estimate D2E/DX2                !
 ! A182  A(21,57,83)           117.8816         estimate D2E/DX2                !
 ! A183  A(59,57,83)           119.1968         estimate D2E/DX2                !
 ! A184  A(22,58,60)           109.2638         estimate D2E/DX2                !
 ! A185  A(22,58,84)           122.5158         estimate D2E/DX2                !
 ! A186  A(60,58,84)           121.185          estimate D2E/DX2                !
 ! A187  A(57,59,60)           120.2705         estimate D2E/DX2                !
 ! A188  A(57,59,61)           121.659          estimate D2E/DX2                !
 ! A189  A(60,59,61)           116.0611         estimate D2E/DX2                !
 ! A190  A(58,60,59)           120.7831         estimate D2E/DX2                !
 ! A191  A(58,60,62)           109.3996         estimate D2E/DX2                !
 ! A192  A(59,60,62)           125.6571         estimate D2E/DX2                !
 ! A193  A(25,61,59)           111.7817         estimate D2E/DX2                !
 ! A194  A(25,61,63)           100.7559         estimate D2E/DX2                !
 ! A195  A(25,61,89)           112.2989         estimate D2E/DX2                !
 ! A196  A(59,61,63)           110.5705         estimate D2E/DX2                !
 ! A197  A(59,61,89)           109.7517         estimate D2E/DX2                !
 ! A198  A(63,61,89)           111.4342         estimate D2E/DX2                !
 ! A199  A(24,62,60)           101.2359         estimate D2E/DX2                !
 ! A200  A(24,62,64)           110.7581         estimate D2E/DX2                !
 ! A201  A(24,62,90)           112.8969         estimate D2E/DX2                !
 ! A202  A(60,62,64)           110.2418         estimate D2E/DX2                !
 ! A203  A(60,62,90)           111.3698         estimate D2E/DX2                !
 ! A204  A(64,62,90)           110.0612         estimate D2E/DX2                !
 ! A205  A(61,63,64)           125.6686         estimate D2E/DX2                !
 ! A206  A(61,63,65)           109.78           estimate D2E/DX2                !
 ! A207  A(64,63,65)           120.1997         estimate D2E/DX2                !
 ! A208  A(62,64,63)           115.7384         estimate D2E/DX2                !
 ! A209  A(62,64,66)           123.4112         estimate D2E/DX2                !
 ! A210  A(63,64,66)           119.2596         estimate D2E/DX2                !
 ! A211  A(27,65,63)           109.2846         estimate D2E/DX2                !
 ! A212  A(27,65,67)           122.7147         estimate D2E/DX2                !
 ! A213  A(63,65,67)           121.5909         estimate D2E/DX2                !
 ! A214  A(28,66,64)           118.2588         estimate D2E/DX2                !
 ! A215  A(28,66,68)           120.0668         estimate D2E/DX2                !
 ! A216  A(64,66,68)           120.9354         estimate D2E/DX2                !
 ! A217  A(65,67,68)           118.0582         estimate D2E/DX2                !
 ! A218  A(65,67,69)           115.1077         estimate D2E/DX2                !
 ! A219  A(68,67,69)           121.9488         estimate D2E/DX2                !
 ! A220  A(66,68,67)           119.7462         estimate D2E/DX2                !
 ! A221  A(66,68,70)           121.3317         estimate D2E/DX2                !
 ! A222  A(67,68,70)           117.6287         estimate D2E/DX2                !
 ! A223  A(31,69,67)           120.2954         estimate D2E/DX2                !
 ! A224  A(31,69,71)           107.6903         estimate D2E/DX2                !
 ! A225  A(67,69,71)           119.9104         estimate D2E/DX2                !
 ! A226  A(32,70,68)           110.0435         estimate D2E/DX2                !
 ! A227  A(32,70,72)           101.1051         estimate D2E/DX2                !
 ! A228  A(32,70,92)           113.0172         estimate D2E/DX2                !
 ! A229  A(68,70,72)           112.6923         estimate D2E/DX2                !
 ! A230  A(68,70,92)           108.6147         estimate D2E/DX2                !
 ! A231  A(72,70,92)           111.2912         estimate D2E/DX2                !
 ! A232  A(69,71,72)           119.7947         estimate D2E/DX2                !
 ! A233  A(69,71,73)           107.5075         estimate D2E/DX2                !
 ! A234  A(72,71,73)           120.8319         estimate D2E/DX2                !
 ! A235  A(70,72,71)           122.787          estimate D2E/DX2                !
 ! A236  A(70,72,74)           110.1467         estimate D2E/DX2                !
 ! A237  A(71,72,74)           118.9172         estimate D2E/DX2                !
 ! A238  A(33,73,71)           108.361          estimate D2E/DX2                !
 ! A239  A(33,73,75)           119.2527         estimate D2E/DX2                !
 ! A240  A(71,73,75)           120.4025         estimate D2E/DX2                !
 ! A241  A(34,74,72)           109.039          estimate D2E/DX2                !
 ! A242  A(34,74,76)           119.4298         estimate D2E/DX2                !
 ! A243  A(72,74,76)           121.1565         estimate D2E/DX2                !
 ! A244  A(73,75,76)           118.6366         estimate D2E/DX2                !
 ! A245  A(73,75,77)           119.9004         estimate D2E/DX2                !
 ! A246  A(76,75,77)           108.8366         estimate D2E/DX2                !
 ! A247  A(74,76,75)           119.9051         estimate D2E/DX2                !
 ! A248  A(74,76,78)           119.6142         estimate D2E/DX2                !
 ! A249  A(75,76,78)           108.6109         estimate D2E/DX2                !
 ! A250  A(37,77,75)           121.6468         estimate D2E/DX2                !
 ! A251  A(37,77,81)           119.8075         estimate D2E/DX2                !
 ! A252  A(75,77,81)           106.4258         estimate D2E/DX2                !
 ! A253  A(38,78,76)           121.9362         estimate D2E/DX2                !
 ! A254  A(38,78,81)           121.9363         estimate D2E/DX2                !
 ! A255  A(76,78,81)           106.521          estimate D2E/DX2                !
 ! A256  A(39,79,40)           109.6507         estimate D2E/DX2                !
 ! A257  A(39,79,82)           111.5968         estimate D2E/DX2                !
 ! A258  A(39,79,88)           110.1945         estimate D2E/DX2                !
 ! A259  A(40,79,82)           100.947          estimate D2E/DX2                !
 ! A260  A(40,79,88)           111.9584         estimate D2E/DX2                !
 ! A261  A(82,79,88)           112.1902         estimate D2E/DX2                !
 ! A262  A(41,80,42)           120.872          estimate D2E/DX2                !
 ! A263  A(41,80,82)           107.3285         estimate D2E/DX2                !
 ! A264  A(42,80,82)           122.2235         estimate D2E/DX2                !
 ! A265  A(77,81,78)           108.6337         estimate D2E/DX2                !
 ! A266  A(77,81,82)           120.9176         estimate D2E/DX2                !
 ! A267  A(78,81,82)           120.2745         estimate D2E/DX2                !
 ! A268  A(79,82,80)           111.3777         estimate D2E/DX2                !
 ! A269  A(79,82,81)           121.8997         estimate D2E/DX2                !
 ! A270  A(80,82,81)           118.8256         estimate D2E/DX2                !
 ! A271  A(55,83,57)           119.2484         estimate D2E/DX2                !
 ! A272  A(55,83,84)           116.4327         estimate D2E/DX2                !
 ! A273  A(57,83,84)           119.3788         estimate D2E/DX2                !
 ! A274  A(56,84,58)           115.7684         estimate D2E/DX2                !
 ! A275  A(56,84,83)           119.8115         estimate D2E/DX2                !
 ! A276  A(58,84,83)           119.0603         estimate D2E/DX2                !
 ! D1    D(17,1,5,9)            -0.3582         estimate D2E/DX2                !
 ! D2    D(17,1,5,29)         -152.6393         estimate D2E/DX2                !
 ! D3    D(23,1,5,9)           140.8469         estimate D2E/DX2                !
 ! D4    D(23,1,5,29)          -11.4342         estimate D2E/DX2                !
 ! D5    D(5,1,17,15)           -0.9852         estimate D2E/DX2                !
 ! D6    D(5,1,17,19)          140.7686         estimate D2E/DX2                !
 ! D7    D(23,1,17,15)        -147.2622         estimate D2E/DX2                !
 ! D8    D(23,1,17,19)          -5.5084         estimate D2E/DX2                !
 ! D9    D(5,1,23,21)         -137.0607         estimate D2E/DX2                !
 ! D10   D(5,1,23,25)            8.4317         estimate D2E/DX2                !
 ! D11   D(17,1,23,21)           9.2154         estimate D2E/DX2                !
 ! D12   D(17,1,23,25)         154.7078         estimate D2E/DX2                !
 ! D13   D(43,2,6,10)         -137.6862         estimate D2E/DX2                !
 ! D14   D(43,2,6,15)           10.8988         estimate D2E/DX2                !
 ! D15   D(44,2,6,10)          -21.4865         estimate D2E/DX2                !
 ! D16   D(44,2,6,15)          127.0985         estimate D2E/DX2                !
 ! D17   D(85,2,6,10)          102.5755         estimate D2E/DX2                !
 ! D18   D(85,2,6,15)         -108.8394         estimate D2E/DX2                !
 ! D19   D(6,2,43,13)           -8.4662         estimate D2E/DX2                !
 ! D20   D(6,2,43,39)          149.5012         estimate D2E/DX2                !
 ! D21   D(44,2,43,13)        -126.0231         estimate D2E/DX2                !
 ! D22   D(44,2,43,39)          31.9443         estimate D2E/DX2                !
 ! D23   D(85,2,43,13)         111.7873         estimate D2E/DX2                !
 ! D24   D(85,2,43,39)         -90.2453         estimate D2E/DX2                !
 ! D25   D(6,2,44,40)         -148.1976         estimate D2E/DX2                !
 ! D26   D(6,2,44,47)           17.1922         estimate D2E/DX2                !
 ! D27   D(43,2,44,40)         -36.7829         estimate D2E/DX2                !
 ! D28   D(43,2,44,47)         128.6069         estimate D2E/DX2                !
 ! D29   D(85,2,44,40)          86.396          estimate D2E/DX2                !
 ! D30   D(85,2,44,47)        -108.2142         estimate D2E/DX2                !
 ! D31   D(18,3,7,12)            3.6455         estimate D2E/DX2                !
 ! D32   D(18,3,7,30)          152.4635         estimate D2E/DX2                !
 ! D33   D(26,3,7,12)         -145.9267         estimate D2E/DX2                !
 ! D34   D(26,3,7,30)            2.8913         estimate D2E/DX2                !
 ! D35   D(7,3,18,16)            5.9239         estimate D2E/DX2                !
 ! D36   D(7,3,18,20)         -143.4139         estimate D2E/DX2                !
 ! D37   D(26,3,18,16)         151.3626         estimate D2E/DX2                !
 ! D38   D(26,3,18,20)           2.0249         estimate D2E/DX2                !
 ! D39   D(7,3,26,24)          146.4744         estimate D2E/DX2                !
 ! D40   D(7,3,26,28)           -5.6863         estimate D2E/DX2                !
 ! D41   D(18,3,26,24)          -2.911          estimate D2E/DX2                !
 ! D42   D(18,3,26,28)        -155.0717         estimate D2E/DX2                !
 ! D43   D(45,4,8,11)            5.6441         estimate D2E/DX2                !
 ! D44   D(45,4,8,16)         -139.1643         estimate D2E/DX2                !
 ! D45   D(46,4,8,11)          148.0324         estimate D2E/DX2                !
 ! D46   D(46,4,8,16)            3.2241         estimate D2E/DX2                !
 ! D47   D(8,4,45,41)          151.946          estimate D2E/DX2                !
 ! D48   D(8,4,45,48)           -3.0486         estimate D2E/DX2                !
 ! D49   D(46,4,45,41)          14.7686         estimate D2E/DX2                !
 ! D50   D(46,4,45,48)        -140.226          estimate D2E/DX2                !
 ! D51   D(8,4,46,14)           -1.8891         estimate D2E/DX2                !
 ! D52   D(8,4,46,42)         -151.0718         estimate D2E/DX2                !
 ! D53   D(45,4,46,14)         139.7943         estimate D2E/DX2                !
 ! D54   D(45,4,46,42)          -9.3884         estimate D2E/DX2                !
 ! D55   D(1,5,9,13)             1.1432         estimate D2E/DX2                !
 ! D56   D(1,5,9,35)          -155.5002         estimate D2E/DX2                !
 ! D57   D(29,5,9,13)          152.7351         estimate D2E/DX2                !
 ! D58   D(29,5,9,35)           -3.9083         estimate D2E/DX2                !
 ! D59   D(1,5,29,27)            8.6289         estimate D2E/DX2                !
 ! D60   D(1,5,29,31)          161.1006         estimate D2E/DX2                !
 ! D61   D(9,5,29,27)         -143.5671         estimate D2E/DX2                !
 ! D62   D(9,5,29,31)            8.9046         estimate D2E/DX2                !
 ! D63   D(2,6,10,49)            0.0042         estimate D2E/DX2                !
 ! D64   D(2,6,10,53)          146.1338         estimate D2E/DX2                !
 ! D65   D(15,6,10,49)        -145.5852         estimate D2E/DX2                !
 ! D66   D(15,6,10,53)           0.5443         estimate D2E/DX2                !
 ! D67   D(2,6,15,13)           -9.8557         estimate D2E/DX2                !
 ! D68   D(2,6,15,17)         -154.8636         estimate D2E/DX2                !
 ! D69   D(10,6,15,13)         139.8418         estimate D2E/DX2                !
 ! D70   D(10,6,15,17)          -5.1662         estimate D2E/DX2                !
 ! D71   D(3,7,12,14)           -9.2383         estimate D2E/DX2                !
 ! D72   D(3,7,12,36)          144.7625         estimate D2E/DX2                !
 ! D73   D(30,7,12,14)        -153.9527         estimate D2E/DX2                !
 ! D74   D(30,7,12,36)           0.0481         estimate D2E/DX2                !
 ! D75   D(3,7,30,28)            0.9398         estimate D2E/DX2                !
 ! D76   D(3,7,30,32)         -151.323          estimate D2E/DX2                !
 ! D77   D(12,7,30,28)         149.9016         estimate D2E/DX2                !
 ! D78   D(12,7,30,32)          -2.3612         estimate D2E/DX2                !
 ! D79   D(4,8,11,50)           10.9585         estimate D2E/DX2                !
 ! D80   D(4,8,11,54)         -136.478          estimate D2E/DX2                !
 ! D81   D(16,8,11,50)         151.4019         estimate D2E/DX2                !
 ! D82   D(16,8,11,54)           3.9654         estimate D2E/DX2                !
 ! D83   D(4,8,16,14)           -3.317          estimate D2E/DX2                !
 ! D84   D(4,8,16,18)          142.6565         estimate D2E/DX2                !
 ! D85   D(11,8,16,14)        -147.7507         estimate D2E/DX2                !
 ! D86   D(11,8,16,18)          -1.7772         estimate D2E/DX2                !
 ! D87   D(5,9,13,15)           -0.6547         estimate D2E/DX2                !
 ! D88   D(5,9,13,43)         -147.4714         estimate D2E/DX2                !
 ! D89   D(35,9,13,15)         156.9925         estimate D2E/DX2                !
 ! D90   D(35,9,13,43)          10.1758         estimate D2E/DX2                !
 ! D91   D(5,9,35,33)           -7.7305         estimate D2E/DX2                !
 ! D92   D(5,9,35,37)          149.8392         estimate D2E/DX2                !
 ! D93   D(13,9,35,33)        -164.6355         estimate D2E/DX2                !
 ! D94   D(13,9,35,37)          -7.0658         estimate D2E/DX2                !
 ! D95   D(6,10,49,47)          25.394          estimate D2E/DX2                !
 ! D96   D(6,10,49,51)         141.6759         estimate D2E/DX2                !
 ! D97   D(6,10,49,86)         -96.996          estimate D2E/DX2                !
 ! D98   D(53,10,49,47)       -123.471          estimate D2E/DX2                !
 ! D99   D(53,10,49,51)         -7.189          estimate D2E/DX2                !
 ! D100  D(53,10,49,86)        114.1391         estimate D2E/DX2                !
 ! D101  D(6,10,53,19)           3.8584         estimate D2E/DX2                !
 ! D102  D(6,10,53,55)        -141.1819         estimate D2E/DX2                !
 ! D103  D(49,10,53,19)        154.2024         estimate D2E/DX2                !
 ! D104  D(49,10,53,55)          9.1622         estimate D2E/DX2                !
 ! D105  D(8,11,50,48)         -27.6371         estimate D2E/DX2                !
 ! D106  D(8,11,50,52)        -144.4876         estimate D2E/DX2                !
 ! D107  D(8,11,50,87)          95.0536         estimate D2E/DX2                !
 ! D108  D(54,11,50,48)        122.0404         estimate D2E/DX2                !
 ! D109  D(54,11,50,52)          5.19           estimate D2E/DX2                !
 ! D110  D(54,11,50,87)       -115.2688         estimate D2E/DX2                !
 ! D111  D(8,11,54,20)          -3.1107         estimate D2E/DX2                !
 ! D112  D(8,11,54,56)         145.248          estimate D2E/DX2                !
 ! D113  D(50,11,54,20)       -153.9054         estimate D2E/DX2                !
 ! D114  D(50,11,54,56)         -5.5468         estimate D2E/DX2                !
 ! D115  D(7,12,14,16)           5.4881         estimate D2E/DX2                !
 ! D116  D(7,12,14,46)         149.1823         estimate D2E/DX2                !
 ! D117  D(36,12,14,16)       -148.4796         estimate D2E/DX2                !
 ! D118  D(36,12,14,46)         -4.7854         estimate D2E/DX2                !
 ! D119  D(7,12,36,34)           4.4619         estimate D2E/DX2                !
 ! D120  D(7,12,36,38)        -149.7025         estimate D2E/DX2                !
 ! D121  D(14,12,36,34)        157.3583         estimate D2E/DX2                !
 ! D122  D(14,12,36,38)          3.194          estimate D2E/DX2                !
 ! D123  D(9,13,15,6)         -146.6952         estimate D2E/DX2                !
 ! D124  D(9,13,15,17)          -0.6721         estimate D2E/DX2                !
 ! D125  D(43,13,15,6)           4.1264         estimate D2E/DX2                !
 ! D126  D(43,13,15,17)        150.1494         estimate D2E/DX2                !
 ! D127  D(9,13,43,2)          154.0964         estimate D2E/DX2                !
 ! D128  D(9,13,43,39)          -4.804          estimate D2E/DX2                !
 ! D129  D(15,13,43,2)           3.0715         estimate D2E/DX2                !
 ! D130  D(15,13,43,39)       -155.8289         estimate D2E/DX2                !
 ! D131  D(12,14,16,8)         149.6672         estimate D2E/DX2                !
 ! D132  D(12,14,16,18)          4.0828         estimate D2E/DX2                !
 ! D133  D(46,14,16,8)           2.1395         estimate D2E/DX2                !
 ! D134  D(46,14,16,18)       -143.4449         estimate D2E/DX2                !
 ! D135  D(12,14,46,4)        -148.3301         estimate D2E/DX2                !
 ! D136  D(12,14,46,42)          1.8063         estimate D2E/DX2                !
 ! D137  D(16,14,46,4)          -0.1524         estimate D2E/DX2                !
 ! D138  D(16,14,46,42)        149.9839         estimate D2E/DX2                !
 ! D139  D(6,15,17,1)          143.2608         estimate D2E/DX2                !
 ! D140  D(6,15,17,19)           5.3047         estimate D2E/DX2                !
 ! D141  D(13,15,17,1)           1.4795         estimate D2E/DX2                !
 ! D142  D(13,15,17,19)       -136.4766         estimate D2E/DX2                !
 ! D143  D(8,16,18,3)         -150.7336         estimate D2E/DX2                !
 ! D144  D(8,16,18,20)          -1.3756         estimate D2E/DX2                !
 ! D145  D(14,16,18,3)          -9.6903         estimate D2E/DX2                !
 ! D146  D(14,16,18,20)        139.6676         estimate D2E/DX2                !
 ! D147  D(1,17,19,21)          -0.287          estimate D2E/DX2                !
 ! D148  D(1,17,19,53)        -143.0496         estimate D2E/DX2                !
 ! D149  D(15,17,19,21)        141.8561         estimate D2E/DX2                !
 ! D150  D(15,17,19,53)         -0.9065         estimate D2E/DX2                !
 ! D151  D(3,18,20,22)           1.2887         estimate D2E/DX2                !
 ! D152  D(3,18,20,54)         150.7765         estimate D2E/DX2                !
 ! D153  D(16,18,20,22)       -147.2888         estimate D2E/DX2                !
 ! D154  D(16,18,20,54)          2.1991         estimate D2E/DX2                !
 ! D155  D(17,19,21,23)          5.9156         estimate D2E/DX2                !
 ! D156  D(17,19,21,57)       -136.4888         estimate D2E/DX2                !
 ! D157  D(53,19,21,23)        147.7589         estimate D2E/DX2                !
 ! D158  D(53,19,21,57)          5.3546         estimate D2E/DX2                !
 ! D159  D(17,19,53,10)         -3.662          estimate D2E/DX2                !
 ! D160  D(17,19,53,55)        138.288          estimate D2E/DX2                !
 ! D161  D(21,19,53,10)       -141.9008         estimate D2E/DX2                !
 ! D162  D(21,19,53,55)          0.0492         estimate D2E/DX2                !
 ! D163  D(18,20,22,24)         -3.8382         estimate D2E/DX2                !
 ! D164  D(18,20,22,58)        140.9701         estimate D2E/DX2                !
 ! D165  D(54,20,22,24)       -154.2621         estimate D2E/DX2                !
 ! D166  D(54,20,22,58)         -9.4538         estimate D2E/DX2                !
 ! D167  D(18,20,54,11)         -0.0171         estimate D2E/DX2                !
 ! D168  D(18,20,54,56)       -144.0017         estimate D2E/DX2                !
 ! D169  D(22,20,54,11)        150.0547         estimate D2E/DX2                !
 ! D170  D(22,20,54,56)          6.0701         estimate D2E/DX2                !
 ! D171  D(19,21,23,1)          -9.3917         estimate D2E/DX2                !
 ! D172  D(19,21,23,25)       -154.6346         estimate D2E/DX2                !
 ! D173  D(57,21,23,1)         133.6463         estimate D2E/DX2                !
 ! D174  D(57,21,23,25)        -11.5965         estimate D2E/DX2                !
 ! D175  D(19,21,57,59)        150.2186         estimate D2E/DX2                !
 ! D176  D(19,21,57,83)         -6.2057         estimate D2E/DX2                !
 ! D177  D(23,21,57,59)         12.7795         estimate D2E/DX2                !
 ! D178  D(23,21,57,83)       -143.6447         estimate D2E/DX2                !
 ! D179  D(20,22,24,26)          3.0395         estimate D2E/DX2                !
 ! D180  D(20,22,24,62)        154.0186         estimate D2E/DX2                !
 ! D181  D(58,22,24,26)       -145.7395         estimate D2E/DX2                !
 ! D182  D(58,22,24,62)          5.2397         estimate D2E/DX2                !
 ! D183  D(20,22,58,60)       -146.8775         estimate D2E/DX2                !
 ! D184  D(20,22,58,84)          3.9627         estimate D2E/DX2                !
 ! D185  D(24,22,58,60)          2.2262         estimate D2E/DX2                !
 ! D186  D(24,22,58,84)        153.0664         estimate D2E/DX2                !
 ! D187  D(1,23,25,27)          -2.077          estimate D2E/DX2                !
 ! D188  D(1,23,25,61)        -148.564          estimate D2E/DX2                !
 ! D189  D(21,23,25,27)        139.2278         estimate D2E/DX2                !
 ! D190  D(21,23,25,61)         -7.2592         estimate D2E/DX2                !
 ! D191  D(22,24,26,3)           0.3743         estimate D2E/DX2                !
 ! D192  D(22,24,26,28)        149.012          estimate D2E/DX2                !
 ! D193  D(62,24,26,3)        -147.0983         estimate D2E/DX2                !
 ! D194  D(62,24,26,28)          1.5393         estimate D2E/DX2                !
 ! D195  D(22,24,62,60)         -9.8072         estimate D2E/DX2                !
 ! D196  D(22,24,62,64)       -126.7133         estimate D2E/DX2                !
 ! D197  D(22,24,62,90)        109.3486         estimate D2E/DX2                !
 ! D198  D(26,24,62,60)        140.2932         estimate D2E/DX2                !
 ! D199  D(26,24,62,64)         23.3872         estimate D2E/DX2                !
 ! D200  D(26,24,62,90)       -100.551          estimate D2E/DX2                !
 ! D201  D(23,25,27,29)         -0.5205         estimate D2E/DX2                !
 ! D202  D(23,25,27,65)       -145.8324         estimate D2E/DX2                !
 ! D203  D(61,25,27,29)        149.3805         estimate D2E/DX2                !
 ! D204  D(61,25,27,65)          4.0686         estimate D2E/DX2                !
 ! D205  D(23,25,61,59)         22.0946         estimate D2E/DX2                !
 ! D206  D(23,25,61,63)        139.5494         estimate D2E/DX2                !
 ! D207  D(23,25,61,89)       -101.7692         estimate D2E/DX2                !
 ! D208  D(27,25,61,59)       -126.5902         estimate D2E/DX2                !
 ! D209  D(27,25,61,63)         -9.1353         estimate D2E/DX2                !
 ! D210  D(27,25,61,89)        109.546          estimate D2E/DX2                !
 ! D211  D(3,26,28,30)           5.8212         estimate D2E/DX2                !
 ! D212  D(3,26,28,66)         122.1289         estimate D2E/DX2                !
 ! D213  D(3,26,28,91)        -115.4078         estimate D2E/DX2                !
 ! D214  D(24,26,28,30)       -145.1711         estimate D2E/DX2                !
 ! D215  D(24,26,28,66)        -28.8634         estimate D2E/DX2                !
 ! D216  D(24,26,28,91)         93.5999         estimate D2E/DX2                !
 ! D217  D(25,27,29,5)          -2.8989         estimate D2E/DX2                !
 ! D218  D(25,27,29,31)       -156.3282         estimate D2E/DX2                !
 ! D219  D(65,27,29,5)         138.279          estimate D2E/DX2                !
 ! D220  D(65,27,29,31)        -15.1503         estimate D2E/DX2                !
 ! D221  D(25,27,65,63)          3.4562         estimate D2E/DX2                !
 ! D222  D(25,27,65,67)        155.6316         estimate D2E/DX2                !
 ! D223  D(29,27,65,63)       -142.7074         estimate D2E/DX2                !
 ! D224  D(29,27,65,67)          9.468          estimate D2E/DX2                !
 ! D225  D(26,28,30,7)          -4.0501         estimate D2E/DX2                !
 ! D226  D(26,28,30,32)        147.0503         estimate D2E/DX2                !
 ! D227  D(66,28,30,7)        -121.0415         estimate D2E/DX2                !
 ! D228  D(66,28,30,32)         30.0589         estimate D2E/DX2                !
 ! D229  D(91,28,30,7)         116.761          estimate D2E/DX2                !
 ! D230  D(91,28,30,32)        -92.1386         estimate D2E/DX2                !
 ! D231  D(26,28,66,64)         30.1737         estimate D2E/DX2                !
 ! D232  D(26,28,66,68)       -140.0716         estimate D2E/DX2                !
 ! D233  D(30,28,66,64)        140.6692         estimate D2E/DX2                !
 ! D234  D(30,28,66,68)        -29.5761         estimate D2E/DX2                !
 ! D235  D(91,28,66,64)        -94.5187         estimate D2E/DX2                !
 ! D236  D(91,28,66,68)         95.236          estimate D2E/DX2                !
 ! D237  D(5,29,31,33)          -2.383          estimate D2E/DX2                !
 ! D238  D(5,29,31,69)        -148.9147         estimate D2E/DX2                !
 ! D239  D(27,29,31,33)        151.2095         estimate D2E/DX2                !
 ! D240  D(27,29,31,69)          4.6777         estimate D2E/DX2                !
 ! D241  D(7,30,32,34)          -0.0406         estimate D2E/DX2                !
 ! D242  D(7,30,32,70)         148.8494         estimate D2E/DX2                !
 ! D243  D(28,30,32,34)       -149.0523         estimate D2E/DX2                !
 ! D244  D(28,30,32,70)         -0.1623         estimate D2E/DX2                !
 ! D245  D(29,31,33,35)         -9.7059         estimate D2E/DX2                !
 ! D246  D(29,31,33,73)       -156.2792         estimate D2E/DX2                !
 ! D247  D(69,31,33,35)        141.0168         estimate D2E/DX2                !
 ! D248  D(69,31,33,73)         -5.5565         estimate D2E/DX2                !
 ! D249  D(29,31,69,67)         12.3489         estimate D2E/DX2                !
 ! D250  D(29,31,69,71)        154.7709         estimate D2E/DX2                !
 ! D251  D(33,31,69,67)       -137.6714         estimate D2E/DX2                !
 ! D252  D(33,31,69,71)          4.7506         estimate D2E/DX2                !
 ! D253  D(30,32,34,36)          4.9493         estimate D2E/DX2                !
 ! D254  D(30,32,34,74)        154.2251         estimate D2E/DX2                !
 ! D255  D(70,32,34,36)       -146.7172         estimate D2E/DX2                !
 ! D256  D(70,32,34,74)          2.5586         estimate D2E/DX2                !
 ! D257  D(30,32,70,68)        -29.4184         estimate D2E/DX2                !
 ! D258  D(30,32,70,72)       -148.7657         estimate D2E/DX2                !
 ! D259  D(30,32,70,92)         92.1936         estimate D2E/DX2                !
 ! D260  D(34,32,70,68)        121.9439         estimate D2E/DX2                !
 ! D261  D(34,32,70,72)          2.5966         estimate D2E/DX2                !
 ! D262  D(34,32,70,92)       -116.4442         estimate D2E/DX2                !
 ! D263  D(31,33,35,9)          14.4337         estimate D2E/DX2                !
 ! D264  D(31,33,35,37)       -143.6133         estimate D2E/DX2                !
 ! D265  D(73,33,35,9)         156.0002         estimate D2E/DX2                !
 ! D266  D(73,33,35,37)         -2.0468         estimate D2E/DX2                !
 ! D267  D(31,33,73,71)          4.1507         estimate D2E/DX2                !
 ! D268  D(31,33,73,75)        147.0001         estimate D2E/DX2                !
 ! D269  D(35,33,73,71)       -141.7428         estimate D2E/DX2                !
 ! D270  D(35,33,73,75)          1.1066         estimate D2E/DX2                !
 ! D271  D(32,34,36,12)         -7.0138         estimate D2E/DX2                !
 ! D272  D(32,34,36,38)        147.5457         estimate D2E/DX2                !
 ! D273  D(74,34,36,12)       -151.9352         estimate D2E/DX2                !
 ! D274  D(74,34,36,38)          2.6243         estimate D2E/DX2                !
 ! D275  D(32,34,74,72)         -7.0535         estimate D2E/DX2                !
 ! D276  D(32,34,74,76)       -152.449          estimate D2E/DX2                !
 ! D277  D(36,34,74,72)        142.453          estimate D2E/DX2                !
 ! D278  D(36,34,74,76)         -2.9425         estimate D2E/DX2                !
 ! D279  D(9,35,37,39)          -1.1666         estimate D2E/DX2                !
 ! D280  D(9,35,37,77)        -157.7013         estimate D2E/DX2                !
 ! D281  D(33,35,37,39)        156.2695         estimate D2E/DX2                !
 ! D282  D(33,35,37,77)         -0.2653         estimate D2E/DX2                !
 ! D283  D(12,36,38,42)          1.3383         estimate D2E/DX2                !
 ! D284  D(12,36,38,78)        153.8892         estimate D2E/DX2                !
 ! D285  D(34,36,38,42)       -152.2937         estimate D2E/DX2                !
 ! D286  D(34,36,38,78)          0.2573         estimate D2E/DX2                !
 ! D287  D(35,37,39,43)          6.819          estimate D2E/DX2                !
 ! D288  D(35,37,39,79)       -157.0863         estimate D2E/DX2                !
 ! D289  D(77,37,39,43)        163.4727         estimate D2E/DX2                !
 ! D290  D(77,37,39,79)         -0.4326         estimate D2E/DX2                !
 ! D291  D(35,37,77,75)          3.5413         estimate D2E/DX2                !
 ! D292  D(35,37,77,81)        140.9244         estimate D2E/DX2                !
 ! D293  D(39,37,77,75)       -153.2537         estimate D2E/DX2                !
 ! D294  D(39,37,77,81)        -15.8706         estimate D2E/DX2                !
 ! D295  D(36,38,42,46)         -4.3089         estimate D2E/DX2                !
 ! D296  D(36,38,42,80)        147.8991         estimate D2E/DX2                !
 ! D297  D(78,38,42,46)       -157.348          estimate D2E/DX2                !
 ! D298  D(78,38,42,80)         -5.1401         estimate D2E/DX2                !
 ! D299  D(36,38,78,76)         -2.8562         estimate D2E/DX2                !
 ! D300  D(36,38,78,81)       -144.4278         estimate D2E/DX2                !
 ! D301  D(42,38,78,76)        150.404          estimate D2E/DX2                !
 ! D302  D(42,38,78,81)          8.8323         estimate D2E/DX2                !
 ! D303  D(37,39,43,2)        -159.7119         estimate D2E/DX2                !
 ! D304  D(37,39,43,13)         -4.019          estimate D2E/DX2                !
 ! D305  D(79,39,43,2)           5.124          estimate D2E/DX2                !
 ! D306  D(79,39,43,13)        160.8169         estimate D2E/DX2                !
 ! D307  D(37,39,79,40)        130.0831         estimate D2E/DX2                !
 ! D308  D(37,39,79,82)         19.0918         estimate D2E/DX2                !
 ! D309  D(37,39,79,88)       -106.2471         estimate D2E/DX2                !
 ! D310  D(43,39,79,40)        -34.2953         estimate D2E/DX2                !
 ! D311  D(43,39,79,82)       -145.2866         estimate D2E/DX2                !
 ! D312  D(43,39,79,88)         89.3745         estimate D2E/DX2                !
[...]
 Alpha virt. eigenvalues --    1.27028   1.27507   1.27916   1.28088   1.28365
 Alpha virt. eigenvalues --    1.28423   1.28749   1.28976   1.29469   1.29917
 Alpha virt. eigenvalues --    1.30466   1.30814   1.31012   1.31311   1.31727
 Alpha virt. eigenvalues --    1.31959   1.32297   1.32958   1.33513   1.33689
 Alpha virt. eigenvalues --    1.33874   1.34274   1.35043   1.35168   1.35232
 Alpha virt. eigenvalues --    1.35508   1.36171   1.36509   1.36942   1.37166
 Alpha virt. eigenvalues --    1.37392   1.38135   1.38845   1.38996   1.39095
 Alpha virt. eigenvalues --    1.40085   1.40305   1.40936   1.41580   1.41928
 Alpha virt. eigenvalues --    1.42783   1.43643   1.44253   1.44627   1.44786
 Alpha virt. eigenvalues --    1.45032   1.45365   1.45791   1.46084   1.46670
 Alpha virt. eigenvalues --    1.47261   1.47691   1.48637   1.49181   1.49408
 Alpha virt. eigenvalues --    1.50370   1.50721   1.51089   1.51843   1.52486
 Alpha virt. eigenvalues --    1.52678   1.53216   1.54070   1.54313   1.54502
 Alpha virt. eigenvalues --    1.55065   1.55396   1.56214   1.56623   1.57029
 Alpha virt. eigenvalues --    1.57723   1.58339   1.59053   1.59367   1.59667
 Alpha virt. eigenvalues --    1.60103   1.60464   1.61037   1.61708   1.62406
 Alpha virt. eigenvalues --    1.62571   1.63028   1.63325   1.63602   1.64186
 Alpha virt. eigenvalues --    1.64271   1.64518   1.64779   1.65014   1.65366
 Alpha virt. eigenvalues --    1.65571   1.65705   1.65829   1.66285   1.66467
 Alpha virt. eigenvalues --    1.66738   1.67094   1.67244   1.67354   1.67955
 Alpha virt. eigenvalues --    1.68040   1.68315   1.68577   1.69022   1.69121
 Alpha virt. eigenvalues --    1.69224   1.69465   1.69755   1.70017   1.70070
 Alpha virt. eigenvalues --    1.70494   1.70717   1.70841   1.71122   1.71132
 Alpha virt. eigenvalues --    1.71393   1.71742   1.72057   1.72104   1.72157
 Alpha virt. eigenvalues --    1.72526   1.72908   1.73115   1.73417   1.73628
 Alpha virt. eigenvalues --    1.73942   1.74232   1.74607   1.74722   1.74908
 Alpha virt. eigenvalues --    1.75456   1.75536   1.75586   1.75797   1.75960
 Alpha virt. eigenvalues --    1.76365   1.76462   1.76979   1.77238   1.77299
 Alpha virt. eigenvalues --    1.77414   1.77794   1.77847   1.77911   1.78079
 Alpha virt. eigenvalues --    1.78193   1.78422   1.78925   1.79160   1.79379
 Alpha virt. eigenvalues --    1.79922   1.80259   1.80438   1.80938   1.81196
 Alpha virt. eigenvalues --    1.81342   1.81576   1.81791   1.82004   1.82435
 Alpha virt. eigenvalues --    1.82566   1.83011   1.83314   1.83781   1.84179
 Alpha virt. eigenvalues --    1.84783   1.85213   1.85784   1.86156   1.86371
 Alpha virt. eigenvalues --    1.87165   1.87486   1.87748   1.87925   1.88123
 Alpha virt. eigenvalues --    1.88763   1.89168   1.89344   1.89670   1.89947
 Alpha virt. eigenvalues --    1.90313   1.90782   1.91328   1.92042   1.92284
 Alpha virt. eigenvalues --    1.92622   1.93010   1.93441   1.93718   1.94257
 Alpha virt. eigenvalues --    1.94624   1.94837   1.95069   1.95140   1.95572
 Alpha virt. eigenvalues --    1.96023   1.96237   1.96618   1.96938   1.97054
 Alpha virt. eigenvalues --    1.97818   1.98049   1.98493   1.98636   1.98713
 Alpha virt. eigenvalues --    1.99102   1.99234   1.99604   1.99812   2.00049
 Alpha virt. eigenvalues --    2.00398   2.00559   2.00801   2.01107   2.01274
 Alpha virt. eigenvalues --    2.01613   2.01784   2.02309   2.02499   2.02753
 Alpha virt. eigenvalues --    2.02926   2.03346   2.03833   2.04287   2.04390
 Alpha virt. eigenvalues --    2.04760   2.04939   2.05266   2.06139   2.06499
 Alpha virt. eigenvalues --    2.06924   2.07012   2.07446   2.07651   2.08012
 Alpha virt. eigenvalues --    2.08502   2.09019   2.09387   2.09483   2.09760
 Alpha virt. eigenvalues --    2.09893   2.10455   2.10923   2.11399   2.11625
 Alpha virt. eigenvalues --    2.12274   2.12671   2.12826   2.13109   2.13407
 Alpha virt. eigenvalues --    2.13642   2.14232   2.14847   2.15009   2.15816
 Alpha virt. eigenvalues --    2.16426   2.16813   2.16980   2.17325   2.17500
 Alpha virt. eigenvalues --    2.18115   2.18706   2.18952   2.19344   2.19907
 Alpha virt. eigenvalues --    2.20317   2.20770   2.20987   2.21308   2.22125
 Alpha virt. eigenvalues --    2.22393   2.22742   2.22806   2.23347   2.23819
 Alpha virt. eigenvalues --    2.24111   2.24452   2.25086   2.25405   2.25596
 Alpha virt. eigenvalues --    2.25985   2.26545   2.27057   2.27595   2.27849
 Alpha virt. eigenvalues --    2.28170   2.28343   2.28583   2.29176   2.29370
 Alpha virt. eigenvalues --    2.30002   2.30447   2.30683   2.31501   2.31891
 Alpha virt. eigenvalues --    2.32322   2.32952   2.33736   2.34022   2.34379
 Alpha virt. eigenvalues --    2.34461   2.34785   2.35585   2.36056   2.36694
 Alpha virt. eigenvalues --    2.37223   2.37499   2.38381   2.39022   2.39912
 Alpha virt. eigenvalues --    2.40688   2.41064   2.41436   2.42085   2.42388
 Alpha virt. eigenvalues --    2.42881   2.43310   2.43609   2.44323   2.44744
 Alpha virt. eigenvalues --    2.45196   2.45659   2.46190   2.46468   2.47476
 Alpha virt. eigenvalues --    2.48446   2.48592   2.48949   2.49479   2.50161
 Alpha virt. eigenvalues --    2.50428   2.51015   2.51715   2.51918   2.52191
 Alpha virt. eigenvalues --    2.52688   2.52945   2.53183   2.53617   2.53784
 Alpha virt. eigenvalues --    2.54237   2.54873   2.55148   2.55755   2.56001
 Alpha virt. eigenvalues --    2.56161   2.56443   2.56660   2.57120   2.57376
 Alpha virt. eigenvalues --    2.57801   2.58168   2.58626   2.58964   2.59137
 Alpha virt. eigenvalues --    2.59918   2.60094   2.60439   2.60579   2.61173
 Alpha virt. eigenvalues --    2.61266   2.61624   2.61831   2.62110   2.62344
 Alpha virt. eigenvalues --    2.63000   2.63251   2.63450   2.63747   2.64315
 Alpha virt. eigenvalues --    2.64473   2.64897   2.65179   2.65562   2.65647
 Alpha virt. eigenvalues --    2.65861   2.66596   2.66651   2.67398   2.67666
 Alpha virt. eigenvalues --    2.68138   2.68572   2.68933   2.69186   2.69397
 Alpha virt. eigenvalues --    2.69815   2.70172   2.70655   2.71360   2.71469
 Alpha virt. eigenvalues --    2.71503   2.72162   2.72504   2.72706   2.73050
 Alpha virt. eigenvalues --    2.73347   2.73505   2.74261   2.74835   2.75033
 Alpha virt. eigenvalues --    2.75798   2.76398   2.76555   2.76959   2.77460
 Alpha virt. eigenvalues --    2.78004   2.78484   2.78826   2.79037   2.79866
 Alpha virt. eigenvalues --    2.80427   2.80935   2.81085   2.81443   2.81926
 Alpha virt. eigenvalues --    2.82123   2.82328   2.82759   2.83323   2.83627
 Alpha virt. eigenvalues --    2.84779   2.85195   2.85513   2.86257   2.86452
 Alpha virt. eigenvalues --    2.87503   2.87780   2.87981   2.88607   2.89088
 Alpha virt. eigenvalues --    2.89174   2.89540   2.90265   2.90550   2.90695
 Alpha virt. eigenvalues --    2.91086   2.91706   2.92079   2.92359   2.92615
 Alpha virt. eigenvalues --    2.92997   2.93714   2.95270   2.95582   2.96398
 Alpha virt. eigenvalues --    2.96834   2.97816   2.98442   2.99761   3.00219
 Alpha virt. eigenvalues --    3.01044   3.02361   3.02540   3.03289   3.05277
 Alpha virt. eigenvalues --    3.05931   3.07908   3.09525   3.10307   3.11495
 Alpha virt. eigenvalues --    3.12406   3.13550   3.13949   3.15323   3.16071
 Alpha virt. eigenvalues --    3.17226   3.19646   3.20395   3.23216   3.23851
 Alpha virt. eigenvalues --    3.25172   3.27350   3.27524   3.29706   3.31498
 Alpha virt. eigenvalues --    3.32909   3.33480   3.36027   3.36943   3.40556
 Alpha virt. eigenvalues --    3.41898   3.43402   3.43922   3.45282   3.47563
 Alpha virt. eigenvalues --    3.50361   3.52277   3.55060   3.57668   3.59590
 Alpha virt. eigenvalues --    4.00788   4.01054   4.01694   4.03033   4.03475
 Alpha virt. eigenvalues --    4.03639   4.04079   4.05051   4.05432   4.06033
 Alpha virt. eigenvalues --    4.06060   4.07255   4.07676   4.08133   4.09263
 Alpha virt. eigenvalues --    4.09960   4.10090   4.10403   4.11082   4.11491
 Alpha virt. eigenvalues --    4.12244   4.13383   4.14858   4.16349   4.16559
 Alpha virt. eigenvalues --    4.17218   4.17878   4.18947   4.19637   4.20241
 Alpha virt. eigenvalues --    4.21305   4.21744   4.21987   4.22595   4.23738
 Alpha virt. eigenvalues --    4.25759   4.26320   4.27000   4.27379   4.27539
 Alpha virt. eigenvalues --    4.27914   4.28512   4.29273   4.29688   4.30877
 Alpha virt. eigenvalues --    4.31374   4.32872   4.34202   4.35010   4.36523
 Alpha virt. eigenvalues --    4.37616   4.38857   4.39837   4.41146   4.41373
 Alpha virt. eigenvalues --    4.42700   4.43879   4.43950   4.46905   4.47905
 Alpha virt. eigenvalues --    4.48614   4.49672   4.51819   4.53071   4.54520
 Alpha virt. eigenvalues --    4.56523   4.57398   4.58934   4.59305   4.60629
 Alpha virt. eigenvalues --    4.62129   4.64462   4.65761   4.67022   4.67330
 Alpha virt. eigenvalues --    4.72330   4.78141   4.79738   4.81632   4.82243
 Alpha virt. eigenvalues --    4.83632   4.86670   4.87923   4.93745   4.94956
 Alpha virt. eigenvalues --    5.02410   5.03586   5.07820   5.09250   5.14346
 Alpha virt. eigenvalues --    5.16793   5.24164
          Condensed to atoms (all electrons):
 Mulliken charges:
               1
     1  C   -0.022363
     2  C   -0.376050
     3  C    0.003638
     4  C   -0.039110
     5  C    0.050836
     6  C    0.089057
     7  C    0.007051
     8  C   -0.001712
     9  C    0.034939
    10  C    0.091837
    11  C    0.080329
    12  C    0.049778
    13  C    0.003903
    14  C   -0.030160
    15  C    0.024025
    16  C   -0.022282
    17  C   -0.012679
    18  C    0.051769
    19  C   -0.010091
    20  C    0.040958
    21  C   -0.044423
    22  C    0.011463
    23  C    0.005684
    24  C    0.086315
    25  C    0.075644
    26  C    0.089858
    27  C    0.013839
    28  C   -0.375741
    29  C    0.040540
    30  C    0.088136
    31  C   -0.020395
    32  C    0.090257
    33  C   -0.025501
    34  C   -0.001238
    35  C    0.037029
    36  C    0.037207
    37  C    0.071575
    38  C    0.046515
    39  C    0.120054
    40  C    0.083033
    41  C    0.000347
    42  C    0.048235
    43  C    0.075939
    44  C    0.144598
    45  C    0.081663
    46  C   -0.020265
    47  C    0.119927
    48  C    0.102911
    49  C   -0.371540
    50  C   -0.360448
    51  C    0.092619
    52  C    0.090010
    53  C    0.022692
    54  C    0.010373
    55  C    0.005931
    56  C    0.007700
    57  C    0.075073
    58  C    0.007150
    59  C    0.118671
    60  C    0.079277
    61  C   -0.368373
    62  C   -0.378733
    63  C    0.081305
    64  C    0.145327
    65  C    0.000880
    66  C    0.126612
    67  C    0.078496
    68  C    0.102492
    69  C   -0.036330
    70  C   -0.357690
    71  C    0.007236
    72  C    0.080915
    73  C   -0.010783
    74  C    0.026144
    75  C    0.003171
    76  C   -0.010448
    77  C   -0.046571
    78  C   -0.018333
    79  C   -0.366437
    80  C    0.009766
    81  C    0.005101
    82  C    0.072820
    83  C    0.033676
    84  C    0.042002
    85  Cl   0.001702
    86  Cl   0.005731
    87  Cl  -0.002029
    88  Cl  -0.005026
    89  Cl  -0.003510
    90  Cl   0.004714
    91  Cl   0.007497
    92  Cl  -0.005713
 Sum of Mulliken charges =  -0.00000
 Mulliken charges with hydrogens summed into heavy atoms:
               1
     1  C   -0.022363
     2  C   -0.376050
     3  C    0.003638
     4  C   -0.039110
     5  C    0.050836
     6  C    0.089057
     7  C    0.007051
     8  C   -0.001712
     9  C    0.034939
    10  C    0.091837
    11  C    0.080329
    12  C    0.049778
    13  C    0.003903
    14  C   -0.030160
    15  C    0.024025
    16  C   -0.022282
    17  C   -0.012679
    18  C    0.051769
    19  C   -0.010091
    20  C    0.040958
    21  C   -0.044423
    22  C    0.011463
    23  C    0.005684
    24  C    0.086315
    25  C    0.075644
    26  C    0.089858
    27  C    0.013839
    28  C   -0.375741
    29  C    0.040540
    30  C    0.088136
    31  C   -0.020395
    32  C    0.090257
    33  C   -0.025501
    34  C   -0.001238
    35  C    0.037029
    36  C    0.037207
    37  C    0.071575
    38  C    0.046515
    39  C    0.120054
    40  C    0.083033
    41  C    0.000347
    42  C    0.048235
    43  C    0.075939
    44  C    0.144598
    45  C    0.081663
    46  C   -0.020265
    47  C    0.119927
    48  C    0.102911
    49  C   -0.371540
    50  C   -0.360448
    51  C    0.092619
    52  C    0.090010
    53  C    0.022692
    54  C    0.010373
    55  C    0.005931
    56  C    0.007700
    57  C    0.075073
    58  C    0.007150
    59  C    0.118671
    60  C    0.079277
    61  C   -0.368373
    62  C   -0.378733
    63  C    0.081305
    64  C    0.145327
    65  C    0.000880
    66  C    0.126612
    67  C    0.078496
    68  C    0.102492
    69  C   -0.036330
    70  C   -0.357690
    71  C    0.007236
    72  C    0.080915
    73  C   -0.010783
    74  C    0.026144
    75  C    0.003171
    76  C   -0.010448
    77  C   -0.046571
    78  C   -0.018333
    79  C   -0.366437
    80  C    0.009766
    81  C    0.005101
    82  C    0.072820
    83  C    0.033676
    84  C    0.042002
    85  Cl   0.001702
    86  Cl   0.005731
    87  Cl  -0.002029
    88  Cl  -0.005026
    89  Cl  -0.003510
    90  Cl   0.004714
    91  Cl   0.007497
    92  Cl  -0.005713
 Electronic spatial extent (au):  <R**2>=          52604.4997
 Charge=             -0.0000 electrons
 Dipole moment (field-independent basis, Debye):
    X=             -0.3566    Y=              1.0733    Z=             -0.0736  Tot=              1.1334
 Quadrupole moment (field-independent basis, Debye-Ang):
   XX=           -617.5083   YY=           -564.0718   ZZ=           -554.1763
   XY=             -5.5436   XZ=             -4.1163   YZ=              0.2052
 Traceless Quadrupole moment (field-independent basis, Debye-Ang):
   XX=            -38.9229   YY=             14.5137   ZZ=             24.4091
   XY=             -5.5436   XZ=             -4.1163   YZ=              0.2052
 Octapole moment (field-independent basis, Debye-Ang**2):
  XXX=             -4.4989  YYY=            -30.3821  ZZZ=             -4.7943  XYY=              1.0298
  XXY=             -0.3105  XXZ=             -7.8482  XZZ=             -4.9127  YZZ=             17.2749
  YYZ=             14.4259  XYZ=             38.1249
 Hexadecapole moment (field-independent basis, Debye-Ang**3):
 XXXX=         -34894.2168 YYYY=         -22635.7322 ZZZZ=         -18639.8514 XXXY=             78.4194
 XXXZ=            174.5983 YYYX=            -41.5205 YYYZ=            -25.5761 ZZZX=            -81.1242
 ZZZY=            -25.4954 XXYY=          -9758.8648 XXZZ=          -8779.1978 YYZZ=          -6903.6718
 XXYZ=             34.5093 YYXZ=            -86.2111 ZZXY=             19.9564
 N-N= 2.042878731983D+04 E-N=-5.700613783545D+04  KE= 6.841403850293D+03
 No NMR shielding tensors so no spin-rotation constants.
 Leave Link  601 at Thu Jun 30 01:26:13 2022, MaxMem=  1342177280 cpu:              24.6 elap:               1.3
 (Enter /home/mkliu/g16/l9999.exe)
 1\1\GINC-NODE02\FOpt\RB3LYP\6-31G(d,p)\C84Cl8\MKLIU\30-Jun-2022\0\\#P 
 opt b3lyp/6-31G(d, p) empiricaldispersion=GD3\\force\\0,1\C,8.48581177
 09,18.8759561194,10.7606187373\C,12.5987403375,19.9808277448,8.8709035
 068\C,8.2508595642,26.8595233867,10.5288365371\C,12.3108451743,25.5995
 822282,8.9610851336\C,8.0066705047,19.0993191567,9.4460714369\C,12.074
 8218945,19.4995033425,10.1989915079\C,7.9478352729,26.8357430754,9.133
 9695484\C,11.8740877619,26.1729304203,10.2177952347\C,8.981557576,19.2
 101727791,8.3547164346\C,12.3482291939,20.1307480478,11.3747400998\C,1
 2.1341541297,25.52900196,11.3929104783\C,8.9687990709,26.6653024299,8.
 150362357\C,10.3479182557,19.0745104022,8.6746797564\C,10.3004580861,2
 6.7331115889,8.6231191603\C,10.804303102,18.8516235803,10.0134068995\C
 ,10.604891976,26.8352628889,10.0073859198\C,9.8813492182,18.7635780544
 ,11.0446864146\C,9.5885251979,26.7902472294,10.9980933691\C,10.1588307
 681,19.4363720906,12.2945064273\C,9.8457583586,26.0523948202,12.220023
 5914\C,8.9417521893,19.9821778662,12.7982192831\C,8.7495789042,25.4154
 60724,12.8591856739\C,7.8768726724,19.5177424017,11.9092197959\C,7.406
 6621447,25.5478971212,12.3766429496\C,6.7209480787,20.2275124814,11.76
 27431356\C,7.1618603841,26.2548104739,11.243302886\C,6.1481039381,20.3
 613334484,10.4768798505\C,6.0194065879,25.9307169536,10.2982854743\C,6
 .7414352643,19.7892916828,9.3231472729\C,6.6416299277,26.2837690263,8.
 9625976086\C,6.3964835041,20.3908254419,8.0885144453\C,6.3426932831,25
 .6213418189,7.8214130849\C,7.323403114,20.3755201053,6.9615598619\C,7.
 3297367746,25.468271067,6.7885570823\C,8.6571561601,19.9323160636,7.13
 27654289\C,8.6682268201,25.910157103,6.9439954807\C,9.7141488603,20.60
 72386366,6.378068443\C,9.7315845943,25.1608773134,6.2704053469\C,11.07
 75632506,20.5649566031,6.8798727655\C,12.812227383,22.1563382851,7.743
 9705177\C,12.7470031152,23.5668413469,7.7528502212\C,11.0707147417,25.
 1627902205,6.8427588038\C,11.3685188395,19.7887611194,7.9641975343\C,1
 2.9926980205,21.4481826916,8.9134548805\C,12.9148261108,24.3026424621,
 8.9456183387\C,11.3545005939,25.9647614293,7.9823682788\C,13.191735941
 4,22.1687305058,10.1421014316\C,13.16756065,23.5724155853,10.157248417
 8\C,13.196670982,21.3863939256,11.464453972\C,13.0896157304,24.3448168
 488,11.4788414007\C,12.4601735878,22.1632487011,12.5451142863\C,12.419
 781847,23.5161304668,12.5499937822\C,11.3588585748,20.1341206511,12.42
 23214734\C,11.1182009645,25.4385652921,12.3942448838\C,11.3587730567,2
 1.403192948,13.0627758334\C,11.2652415468,24.185017312,13.0608443329\C
 ,8.8921498077,21.2901126908,13.3416406515\C,8.8902038077,24.1327829468
 ,13.462737056\C,7.6480826336,22.0456493532,13.2285599962\C,7.66264642,
 23.4106963282,13.327599586\C,6.3974030587,21.4236234514,12.6282763158\
 C,6.578385243,24.3523170539,12.7807752437\C,5.7498113767,22.3586624821
 ,11.600633938\C,5.8724915386,23.731150755,11.5875167522\C,5.5086064606
 ,21.6501090824,10.4027459663\C,5.6565086417,24.441530197,10.3550486315
 \C,5.2987498344,22.3152322144,9.1773948939\C,5.3442576203,23.753361034
 3,9.173539358\C,5.599726016,21.5563943963,8.0014766492\C,5.3608504774,
 24.4666721452,7.8149264997\C,5.9404115869,22.2304464511,6.7607643949\C
 ,5.932554288,23.5971291215,6.7023792923\C,6.9975186417,21.4722418175,6
 .1202108264\C,7.0093264529,24.2855906539,6.0442120454\C,8.0121511165,2
 2.1279587561,5.4221283146\C,8.0174384978,23.5804721341,5.3986831122\C,
 9.35229374,21.6707951582,5.5106842087\C,9.3716936118,24.0371002338,5.4
 848385907\C,12.1050345517,21.6178617507,6.4967659404\C,11.887723581,24
 .0164520849,6.6872432892\C,10.2115843089,22.8591760153,5.4148142221\C,
 11.4548948389,22.8726281981,5.9667050545\C,10.146651833,22.016278483,1
 3.4953865083\C,10.132129145,23.4586028923,13.531051771\Cl,14.016580454
 ,18.9307640946,8.3090017484\Cl,14.937678104,20.9982275454,11.942464590
 4\Cl,14.7770546603,24.9177216096,11.97873943\Cl,13.3089151652,20.94299
 87427,5.2587731899\Cl,5.2040352512,20.9622452836,13.9705262986\Cl,5.36
 48122785,24.7908055098,14.1071689868\Cl,4.5262935428,26.9496084433,10.
 6719910683\Cl,3.64040871,25.0051702337,7.3775292877\\Version=ES64L-G16
 RevA.03\State=1-A\HF=-6882.6277039\RMSD=2.466e-09\RMSF=7.248e-05\Dipol
 e=-0.1981064,0.0284418,-0.3984631\Quadrupole=-22.7572209,13.7287226,9.
 0284983,13.7069338,8.557425,-3.594555\PG=C01 [X(C84Cl8)]\\@


 A true friend is someone who is there for
 you when he'd rather be anywhere else.
                               -- Len Wein
 Job cpu time:       1 days  3 hours 24 minutes 36.4 seconds.
 Elapsed time:       0 days  1 hours  8 minutes 37.9 seconds.
 File lengths (MBytes):  RWF=   1225 Int=      0 D2E=      0 Chk=    154 Scr=      1
 Normal termination of Gaussian 16 at Thu Jun 30 01:26:15 2022.
