 Entering Gaussian System, Link 0=g16
 Input=8_addons_C84_11_Cl22_rank_6.gjf
 Output=8_addons_C84_11_Cl22_rank_6.log
 Initial command:
 /home/mkliu/g16/l1.exe "/data/scratch/Gau-153379.inp" -scrdir="/data/scratch/"
 Entering Link 1 = /home/mkliu/g16/l1.exe PID=    153380.
  
 Copyright (c) 1988,1990,1992,1993,1995,1998,2003,2009,2016,
            Gaussian, Inc.  All Rights Reserved.
  
 This is part of the Gaussian(R) 16 program.  It is based on
 the Gaussian(R) 09 system (copyright 2009, Gaussian, Inc.),
 the Gaussian(R) 03 system (copyright 2003, Gaussian, Inc.),
 the Gaussian(R) 98 system (copyright 1998, Gaussian, Inc.),
 the Gaussian(R) 94 system (copyright 1995, Gaussian, Inc.),
 the Gaussian 92(TM) system (copyright 1992, Gaussian, Inc.),
 the Gaussian 90(TM) system (copyright 1990, Gaussian, Inc.),
 the Gaussian 88(TM) system (copyright 1988, Gaussian, Inc.),
 the Gaussian 86(TM) system (copyright 1986, Carnegie Mellon
 University), and the Gaussian 82(TM) system (copyright 1983,
 Carnegie Mellon University). Gaussian is a federally registered
 trademark of Gaussian, Inc.
  
 This software contains proprietary and confidential information,
 including trade secrets, belonging to Gaussian, Inc.
  
 This software is provided under written license and may be
 used, copied, transmitted, or stored only in accord with that
 written license.
  
 The following legend is applicable only to US Government
 contracts under FAR:
  
                    RESTRICTED RIGHTS LEGEND
  
 Use, reproduction and disclosure by the US Government is
 subject to restrictions as set forth in subparagraphs (a)
 and (c) of the Commercial Computer Software - Restricted
 Rights clause in FAR 52.227-19.
  
 Gaussian, Inc.
 340 Quinnipiac St., Bldg. 40, Wallingford CT 06492
  
  
 ---------------------------------------------------------------
 Warning -- This program may not be used in any manner that
 competes with the business of Gaussian, Inc. or will provide
 assistance to any competitor of Gaussian, Inc.  The licensee
 of this program is prohibited from giving any competitor of
 Gaussian, Inc. access to this program.  By using this program,
 the user acknowledges that Gaussian, Inc. is engaged in the
 business of creating and licensing software in the field of
 computational chemistry and represents and warrants to the
 licensee that it is not a competitor of Gaussian, Inc. and that
 it will not use this program in any manner prohibited above.
 ---------------------------------------------------------------
  

 Cite this work as:
 Gaussian 16, Revision A.03,
 M. J. Frisch, G. W. Trucks, H. B. Schlegel, G. E. Scuseria, 
 M. A. Robb, J. R. Cheeseman, G. Scalmani, V. Barone, 
 G. A. Petersson, H. Nakatsuji, X. Li, M. Caricato, A. V. Marenich, 
 J. Bloino, B. G. Janesko, R. Gomperts, B. Mennucci, H. P. Hratchian, 
 J. V. Ortiz, A. F. Izmaylov, J. L. Sonnenberg, D. Williams-Young, 
 F. Ding, F. Lipparini, F. Egidi, J. Goings, B. Peng, A. Petrone, 
 T. Henderson, D. Ranasinghe, V. G. Zakrzewski, J. Gao, N. Rega, 
 G. Zheng, W. Liang, M. Hada, M. Ehara, K. Toyota, R. Fukuda, 
 J. Hasegawa, M. Ishida, T. Nakajima, Y. Honda, O. Kitao, H. Nakai, 
 T. Vreven, K. Throssell, J. A. Montgomery, Jr., J. E. Peralta, 
 F. Ogliaro, M. J. Bearpark, J. J. Heyd, E. N. Brothers, K. N. Kudin, 
 V. N. Staroverov, T. A. Keith, R. Kobayashi, J. Normand, 
 K. Raghavachari, A. P. Rendell, J. C. Burant, S. S. Iyengar, 
 J. Tomasi, M. Cossi, J. M. Millam, M. Klene, C. Adamo, R. Cammi, 
 J. W. Ochterski, R. L. Martin, K. Morokuma, O. Farkas, 
 J. B. Foresman, and D. J. Fox, Gaussian, Inc., Wallingford CT, 2016.
 
 ******************************************
 Gaussian 16:  ES64L-G16RevA.03 25-Dec-2016
                29-Jun-2022 
 ******************************************
 %mem=10GB
 %chk=8_addons_C84_11_Cl22_rank_6.chk
 %nprocshared=24
 Will use up to   24 processors via shared memory.
 ------------------------------------------------
 #P opt b3lyp/6-31G(d, p) empiricaldispersion=GD3
 ------------------------------------------------
 1/18=20,19=15,26=3,38=1/1,3;
 2/9=110,12=2,17=6,18=5,40=1/2;
 3/5=1,6=6,7=101,11=2,25=1,30=1,71=1,74=-5,124=31/1,2,3;
 4//1;
 5/5=2,38=5/2;
 6/7=2,8=2,9=2,10=2,28=1/1;
 7//1,2,3,16;
 1/18=20,19=15,26=3/3(2);
 2/9=110/2;
 99//99;
 2/9=110/2;
 3/5=1,6=6,7=101,11=2,25=1,30=1,71=1,74=-5,124=31/1,2,3;
 4/5=5,16=3,69=1/1;
 5/5=2,38=5/2;
 7//1,2,3,16;
 1/18=20,19=15,26=3/3(-5);
 2/9=110/2;
 6/7=2,8=2,9=2,10=2,19=2,28=1/1;
 99/9=1/99;
 Leave Link    1 at Wed Jun 29 13:37:13 2022, MaxMem=  1342177280 cpu:               0.7 elap:               0.0
 (Enter /home/mkliu/g16/l101.exe)
 -----
 force
 -----
 Symbolic Z-matrix:
 Charge =  0 Multiplicity = 1
 C                     8.51884   18.94656   10.74773 
 C                     12.58826   19.99273   8.84092 
 C                     8.26465   26.8427   10.52819 
 C                     12.28539   25.57378   8.95707 
 C                     8.04252   19.15037   9.43799 
 C                     12.06858   19.49919   10.15669 
 C                     7.96127   26.81273   9.14113 
 C                     11.85365   26.14582   10.2008 
 C                     8.99746   19.25126   8.35088 
 C                     12.29936   20.16129   11.3348 
 C                     12.11781   25.48446   11.3676 
 C                     8.96424   26.64432   8.15589 
 C                     10.3536   19.09866   8.65408 
 C                     10.28745   26.70803   8.62869 
 C                     10.81887   18.86562   9.98289 
 C                     10.59558   26.81702   10.00053 
 C                     9.907     18.81505   11.02902 
 C                     9.59245   26.77787   10.99784 
 C                     10.20161   19.41402   12.28137 
 C                     9.85083   26.05483   12.21423 
 C                     8.92949   19.83615   12.96347 
 C                     8.76545   25.41755   12.83638 
 C                     7.90818   19.52925   11.89676 
 C                     7.42405   25.54232   12.36581 
 C                     6.76596   20.24704   11.75588 
 C                     7.17337   26.24716   11.23639 
 C                     6.19714   20.38329   10.46676 
 C                     6.03936   25.92101   10.3034 
 C                     6.78651   19.82146   9.32151 
 C                     6.6606    26.26213   8.98025 
 C                     6.43538   20.4194   8.09405 
 C                     6.3633    25.60013   7.84012 
 C                     7.35015   20.40366   6.97687 
 C                     7.34222   25.45821   6.81044 
 C                     8.67613   19.96534   7.14158 
 C                     8.67211   25.89727   6.96273 
 C                     9.71828   20.63358   6.39247 
 C                     9.7245    25.1579   6.29488 
 C                     11.07229   20.59369   6.88039 
 C                     12.80621   22.15457   7.73097 
 C                     12.74593   23.58057   7.74047 
 C                     11.05514   25.16077   6.85528 
 C                     11.37036   19.80935   7.95149 
 C                     12.9861   21.44756   8.88192 
 C                     12.92768   24.31276   8.92457 
 C                     11.33243   25.94917   7.97977 
 C                     13.19319   22.15261   10.12767 
 C                     13.17841   23.59028   10.14201 
 C                     12.90809   21.47401   11.33223 
 C                     12.83837   24.23924   11.34972 
 C                     12.4433   22.14318   12.47827 
 C                     12.38678   23.50972   12.47264 
 C                     11.37592   20.08948   12.42214 
 C                     11.11509   25.4338   12.40877 
 C                     11.4804   21.3099   13.2861 
 C                     11.26158   24.20522   13.07112 
 C                     8.93694   21.3331   13.25013 
 C                     8.90755   24.11825   13.40305 
 C                     7.70494   22.04665   13.15212 
 C                     7.69697   23.41333   13.26729 
 C                     6.4394    21.43339   12.61079 
 C                     6.61085   24.34606   12.76387 
 C                     5.81595   22.36435   11.58641 
 C                     5.93093   23.73335   11.56663 
 C                     5.5701    21.66401   10.39306 
 C                     5.70505   24.43752   10.35063 
 C                     5.34796   22.33078   9.17779 
 C                     5.38979   23.75545   9.17701 
 C                     5.63317   21.57154   8.01132 
 C                     5.38165   24.46276   7.82974 
 C                     5.96104   22.24388   6.77588 
 C                     5.9409    23.6082   6.71977 
 C                     7.0127    21.49494   6.14002 
 C                     7.01431   24.28807   6.06773 
 C                     8.02001   22.14943   5.44239 
 C                     8.0218    23.58722   5.42238 
 C                     9.35512   21.69061   5.53409 
 C                     9.36842   24.04165   5.52042 
 C                     12.10038   21.62954   6.49737 
 C                     11.88488   24.02033   6.70206 
 C                     10.20432   22.86897   5.44574 
 C                     11.45079   22.87626   5.98337 
 C                     10.13695   22.0131   13.4203 
 C                     10.13973   23.44219   13.47421 
 Cl                    8.62499   18.96311   14.51079 
 Cl                    12.10785   20.94742   14.94423 
 Cl                    13.26987   20.92937   5.30497 
 Cl                    13.98857   18.99597   8.25882 
 Cl                    5.3043    21.05502   13.95746 
 Cl                    5.39784   24.71416   14.04762 
 Cl                    4.54584   26.86858   10.65845 
 Cl                    3.68932   24.99169   7.46348 
 
 ITRead=  0  0  0  0  0  0  0  0  0  0  0  0  0  0  0  0  0  0  0  0
 ITRead=  0  0  0  0  0  0  0  0  0  0  0  0  0  0  0  0  0  0  0  0
 ITRead=  0  0  0  0  0  0  0  0  0  0  0  0  0  0  0  0  0  0  0  0
 ITRead=  0  0  0  0  0  0  0  0  0  0  0  0  0  0  0  0  0  0  0  0
 ITRead=  0  0  0  0  0  0  0  0  0  0  0  0
 MicOpt= -1 -1 -1 -1 -1 -1 -1 -1 -1 -1 -1 -1 -1 -1 -1 -1 -1 -1 -1 -1
 MicOpt= -1 -1 -1 -1 -1 -1 -1 -1 -1 -1 -1 -1 -1 -1 -1 -1 -1 -1 -1 -1
 MicOpt= -1 -1 -1 -1 -1 -1 -1 -1 -1 -1 -1 -1 -1 -1 -1 -1 -1 -1 -1 -1
 MicOpt= -1 -1 -1 -1 -1 -1 -1 -1 -1 -1 -1 -1 -1 -1 -1 -1 -1 -1 -1 -1
 MicOpt= -1 -1 -1 -1 -1 -1 -1 -1 -1 -1 -1 -1
 NAtoms=     92 NQM=       92 NQMF=       0 NMMI=      0 NMMIF=      0
                NMic=       0 NMicF=      0.
                    Isotopes and Nuclear Properties:
 (Nuclear quadrupole moments (NQMom) in fm**2, nuclear magnetic moments (NMagM)
  in nuclear magnetons)

  Atom         1           2           3           4           5           6           7           8           9          10
 IAtWgt=          12          12          12          12          12          12          12          12          12          12
 AtmWgt=  12.0000000  12.0000000  12.0000000  12.0000000  12.0000000  12.0000000  12.0000000  12.0000000  12.0000000  12.0000000
 NucSpn=           0           0           0           0           0           0           0           0           0           0
 AtZEff=  -0.0000000  -0.0000000  -0.0000000  -0.0000000  -0.0000000  -0.0000000  -0.0000000  -0.0000000  -0.0000000  -0.0000000
 NQMom=    0.0000000   0.0000000   0.0000000   0.0000000   0.0000000   0.0000000   0.0000000   0.0000000   0.0000000   0.0000000
 NMagM=    0.0000000   0.0000000   0.0000000   0.0000000   0.0000000   0.0000000   0.0000000   0.0000000   0.0000000   0.0000000
 AtZNuc=   6.0000000   6.0000000   6.0000000   6.0000000   6.0000000   6.0000000   6.0000000   6.0000000   6.0000000   6.0000000

  Atom        11          12          13          14          15          16          17          18          19          20
 IAtWgt=          12          12          12          12          12          12          12          12          12          12
 AtmWgt=  12.0000000  12.0000000  12.0000000  12.0000000  12.0000000  12.0000000  12.0000000  12.0000000  12.0000000  12.0000000
 NucSpn=           0           0           0           0           0           0           0           0           0           0
 AtZEff=  -0.0000000  -0.0000000  -0.0000000  -0.0000000  -0.0000000  -0.0000000  -0.0000000  -0.0000000  -0.0000000  -0.0000000
 NQMom=    0.0000000   0.0000000   0.0000000   0.0000000   0.0000000   0.0000000   0.0000000   0.0000000   0.0000000   0.0000000
 NMagM=    0.0000000   0.0000000   0.0000000   0.0000000   0.0000000   0.0000000   0.0000000   0.0000000   0.0000000   0.0000000
 AtZNuc=   6.0000000   6.0000000   6.0000000   6.0000000   6.0000000   6.0000000   6.0000000   6.0000000   6.0000000   6.0000000

  Atom        21          22          23          24          25          26          27          28          29          30
 IAtWgt=          12          12          12          12          12          12          12          12          12          12
 AtmWgt=  12.0000000  12.0000000  12.0000000  12.0000000  12.0000000  12.0000000  12.0000000  12.0000000  12.0000000  12.0000000
 NucSpn=           0           0           0           0           0           0           0           0           0           0
 AtZEff=  -0.0000000  -0.0000000  -0.0000000  -0.0000000  -0.0000000  -0.0000000  -0.0000000  -0.0000000  -0.0000000  -0.0000000
 NQMom=    0.0000000   0.0000000   0.0000000   0.0000000   0.0000000   0.0000000   0.0000000   0.0000000   0.0000000   0.0000000
 NMagM=    0.0000000   0.0000000   0.0000000   0.0000000   0.0000000   0.0000000   0.0000000   0.0000000   0.0000000   0.0000000
 AtZNuc=   6.0000000   6.0000000   6.0000000   6.0000000   6.0000000   6.0000000   6.0000000   6.0000000   6.0000000   6.0000000

  Atom        31          32          33          34          35          36          37          38          39          40
 IAtWgt=          12          12          12          12          12          12          12          12          12          12
 AtmWgt=  12.0000000  12.0000000  12.0000000  12.0000000  12.0000000  12.0000000  12.0000000  12.0000000  12.0000000  12.0000000
 NucSpn=           0           0           0           0           0           0           0           0           0           0
 AtZEff=  -0.0000000  -0.0000000  -0.0000000  -0.0000000  -0.0000000  -0.0000000  -0.0000000  -0.0000000  -0.0000000  -0.0000000
 NQMom=    0.0000000   0.0000000   0.0000000   0.0000000   0.0000000   0.0000000   0.0000000   0.0000000   0.0000000   0.0000000
 NMagM=    0.0000000   0.0000000   0.0000000   0.0000000   0.0000000   0.0000000   0.0000000   0.0000000   0.0000000   0.0000000
 AtZNuc=   6.0000000   6.0000000   6.0000000   6.0000000   6.0000000   6.0000000   6.0000000   6.0000000   6.0000000   6.0000000

  Atom        41          42          43          44          45          46          47          48          49          50
 IAtWgt=          12          12          12          12          12          12          12          12          12          12
 AtmWgt=  12.0000000  12.0000000  12.0000000  12.0000000  12.0000000  12.0000000  12.0000000  12.0000000  12.0000000  12.0000000
 NucSpn=           0           0           0           0           0           0           0           0           0           0
 AtZEff=  -0.0000000  -0.0000000  -0.0000000  -0.0000000  -0.0000000  -0.0000000  -0.0000000  -0.0000000  -0.0000000  -0.0000000
 NQMom=    0.0000000   0.0000000   0.0000000   0.0000000   0.0000000   0.0000000   0.0000000   0.0000000   0.0000000   0.0000000
 NMagM=    0.0000000   0.0000000   0.0000000   0.0000000   0.0000000   0.0000000   0.0000000   0.0000000   0.0000000   0.0000000
 AtZNuc=   6.0000000   6.0000000   6.0000000   6.0000000   6.0000000   6.0000000   6.0000000   6.0000000   6.0000000   6.0000000

  Atom        51          52          53          54          55          56          57          58          59          60
 IAtWgt=          12          12          12          12          12          12          12          12          12          12
 AtmWgt=  12.0000000  12.0000000  12.0000000  12.0000000  12.0000000  12.0000000  12.0000000  12.0000000  12.0000000  12.0000000
 NucSpn=           0           0           0           0           0           0           0           0           0           0
 AtZEff=  -0.0000000  -0.0000000  -0.0000000  -0.0000000  -0.0000000  -0.0000000  -0.0000000  -0.0000000  -0.0000000  -0.0000000
 NQMom=    0.0000000   0.0000000   0.0000000   0.0000000   0.0000000   0.0000000   0.0000000   0.0000000   0.0000000   0.0000000
 NMagM=    0.0000000   0.0000000   0.0000000   0.0000000   0.0000000   0.0000000   0.0000000   0.0000000   0.0000000   0.0000000
 AtZNuc=   6.0000000   6.0000000   6.0000000   6.0000000   6.0000000   6.0000000   6.0000000   6.0000000   6.0000000   6.0000000

  Atom        61          62          63          64          65          66          67          68          69          70
 IAtWgt=          12          12          12          12          12          12          12          12          12          12
 AtmWgt=  12.0000000  12.0000000  12.0000000  12.0000000  12.0000000  12.0000000  12.0000000  12.0000000  12.0000000  12.0000000
 NucSpn=           0           0           0           0           0           0           0           0           0           0
 AtZEff=  -0.0000000  -0.0000000  -0.0000000  -0.0000000  -0.0000000  -0.0000000  -0.0000000  -0.0000000  -0.0000000  -0.0000000
 NQMom=    0.0000000   0.0000000   0.0000000   0.0000000   0.0000000   0.0000000   0.0000000   0.0000000   0.0000000   0.0000000
 NMagM=    0.0000000   0.0000000   0.0000000   0.0000000   0.0000000   0.0000000   0.0000000   0.0000000   0.0000000   0.0000000
 AtZNuc=   6.0000000   6.0000000   6.0000000   6.0000000   6.0000000   6.0000000   6.0000000   6.0000000   6.0000000   6.0000000

  Atom        71          72          73          74          75          76          77          78          79          80
 IAtWgt=          12          12          12          12          12          12          12          12          12          12
 AtmWgt=  12.0000000  12.0000000  12.0000000  12.0000000  12.0000000  12.0000000  12.0000000  12.0000000  12.0000000  12.0000000
 NucSpn=           0           0           0           0           0           0           0           0           0           0
 AtZEff=  -0.0000000  -0.0000000  -0.0000000  -0.0000000  -0.0000000  -0.0000000  -0.0000000  -0.0000000  -0.0000000  -0.0000000
 NQMom=    0.0000000   0.0000000   0.0000000   0.0000000   0.0000000   0.0000000   0.0000000   0.0000000   0.0000000   0.0000000
 NMagM=    0.0000000   0.0000000   0.0000000   0.0000000   0.0000000   0.0000000   0.0000000   0.0000000   0.0000000   0.0000000
 AtZNuc=   6.0000000   6.0000000   6.0000000   6.0000000   6.0000000   6.0000000   6.0000000   6.0000000   6.0000000   6.0000000

  Atom        81          82          83          84          85          86          87          88          89          90
 IAtWgt=          12          12          12          12          35          35          35          35          35          35
 AtmWgt=  12.0000000  12.0000000  12.0000000  12.0000000  34.9688527  34.9688527  34.9688527  34.9688527  34.9688527  34.9688527
 NucSpn=           0           0           0           0           3           3           3           3           3           3
 AtZEff=  -0.0000000  -0.0000000  -0.0000000  -0.0000000  -0.0000000  -0.0000000  -0.0000000  -0.0000000  -0.0000000  -0.0000000
 NQMom=    0.0000000   0.0000000   0.0000000   0.0000000  -8.1650000  -8.1650000  -8.1650000  -8.1650000  -8.1650000  -8.1650000
 NMagM=    0.0000000   0.0000000   0.0000000   0.0000000   0.8218740   0.8218740   0.8218740   0.8218740   0.8218740   0.8218740
 AtZNuc=   6.0000000   6.0000000   6.0000000   6.0000000  17.0000000  17.0000000  17.0000000  17.0000000  17.0000000  17.0000000

  Atom        91          92
 IAtWgt=          35          35
 AtmWgt=  34.9688527  34.9688527
 NucSpn=           3           3
 AtZEff=  -0.0000000  -0.0000000
 NQMom=   -8.1650000  -8.1650000
 NMagM=    0.8218740   0.8218740
 AtZNuc=  17.0000000  17.0000000
 Leave Link  101 at Wed Jun 29 13:37:14 2022, MaxMem=  1342177280 cpu:               6.5 elap:               0.3
 (Enter /home/mkliu/g16/l103.exe)

 GradGradGradGradGradGradGradGradGradGradGradGradGradGradGradGradGradGrad
 Berny optimization.
 Initialization pass.
                           ----------------------------
                           !    Initial Parameters    !
                           ! (Angstroms and Degrees)  !
 --------------------------                            --------------------------
 ! Name  Definition              Value          Derivative Info.                !
 --------------------------------------------------------------------------------
 ! R1    R(1,5)                  1.4085         estimate D2E/DX2                !
 ! R2    R(1,17)                 1.4225         estimate D2E/DX2                !
 ! R3    R(1,23)                 1.4257         estimate D2E/DX2                !
 ! R4    R(2,6)                  1.4983         estimate D2E/DX2                !
 ! R5    R(2,43)                 1.5192         estimate D2E/DX2                !
 ! R6    R(2,44)                 1.5088         estimate D2E/DX2                !
 ! R7    R(2,88)                 1.8147         estimate D2E/DX2                !
 ! R8    R(3,7)                  1.4202         estimate D2E/DX2                !
 ! R9    R(3,18)                 1.4099         estimate D2E/DX2                !
 ! R10   R(3,26)                 1.4308         estimate D2E/DX2                !
 ! R11   R(4,8)                  1.4354         estimate D2E/DX2                !
 ! R12   R(4,45)                 1.4155         estimate D2E/DX2                !
 ! R13   R(4,46)                 1.4157         estimate D2E/DX2                !
 ! R14   R(5,9)                  1.4505         estimate D2E/DX2                !
 ! R15   R(5,29)                 1.4288         estimate D2E/DX2                !
 ! R16   R(6,10)                 1.371          estimate D2E/DX2                !
 ! R17   R(6,15)                 1.4119         estimate D2E/DX2                !
 ! R18   R(7,12)                 1.416          estimate D2E/DX2                !
 ! R19   R(7,30)                 1.4215         estimate D2E/DX2                !
 ! R20   R(8,11)                 1.367          estimate D2E/DX2                !
 ! R21   R(8,16)                 1.4399         estimate D2E/DX2                !
 ! R22   R(9,13)                 1.398          estimate D2E/DX2                !
 ! R23   R(9,35)                 1.4407         estimate D2E/DX2                !
 ! R24   R(10,49)                1.447          estimate D2E/DX2                !
 ! R25   R(10,53)                1.4283         estimate D2E/DX2                !
 ! R26   R(11,50)                1.4388         estimate D2E/DX2                !
 ! R27   R(11,54)                1.4464         estimate D2E/DX2                !
 ! R28   R(12,14)                1.4066         estimate D2E/DX2                !
 ! R29   R(12,36)                1.4377         estimate D2E/DX2                !
 ! R30   R(13,15)                1.4271         estimate D2E/DX2                !
 ! R31   R(13,43)                1.4257         estimate D2E/DX2                !
 ! R32   R(14,16)                1.4102         estimate D2E/DX2                !
 ! R33   R(14,46)                1.4453         estimate D2E/DX2                !
 ! R34   R(15,17)                1.3887         estimate D2E/DX2                !
 ! R35   R(16,18)                1.4151         estimate D2E/DX2                !
 ! R36   R(17,19)                1.4191         estimate D2E/DX2                !
 ! R37   R(18,20)                1.4385         estimate D2E/DX2                !
 ! R38   R(19,21)                1.5039         estimate D2E/DX2                !
 ! R39   R(19,53)                1.362          estimate D2E/DX2                !
 ! R40   R(20,22)                1.404          estimate D2E/DX2                !
 ! R41   R(20,54)                1.4219         estimate D2E/DX2                !
 ! R42   R(21,23)                1.5084         estimate D2E/DX2                !
 ! R43   R(21,57)                1.5242         estimate D2E/DX2                !
 ! R44   R(21,85)                1.8025         estimate D2E/DX2                !
 ! R45   R(22,24)                1.427          estimate D2E/DX2                !
 ! R46   R(22,58)                1.4246         estimate D2E/DX2                !
 ! R47   R(23,25)                1.3564         estimate D2E/DX2                !
 ! R48   R(24,26)                1.3547         estimate D2E/DX2                !
 ! R49   R(24,62)                1.5003         estimate D2E/DX2                !
 ! R50   R(25,27)                1.4156         estimate D2E/DX2                !
 ! R51   R(25,61)                1.4983         estimate D2E/DX2                !
 ! R52   R(26,28)                1.5043         estimate D2E/DX2                !
 ! R53   R(27,29)                1.4052         estimate D2E/DX2                !
 ! R54   R(27,65)                1.4279         estimate D2E/DX2                !
 ! R55   R(28,30)                1.501          estimate D2E/DX2                !
 ! R56   R(28,66)                1.5214         estimate D2E/DX2                !
 ! R57   R(28,91)                1.804          estimate D2E/DX2                !
 ! R58   R(29,31)                1.4098         estimate D2E/DX2                !
 ! R59   R(30,32)                1.3515         estimate D2E/DX2                !
 ! R60   R(31,33)                1.444          estimate D2E/DX2                !
 ! R61   R(31,69)                1.4063         estimate D2E/DX2                !
 ! R62   R(32,34)                1.4278         estimate D2E/DX2                !
 ! R63   R(32,70)                1.5024         estimate D2E/DX2                !
 ! R64   R(33,35)                1.4062         estimate D2E/DX2                !
 ! R65   R(33,73)                1.416          estimate D2E/DX2                !
 ! R66   R(34,36)                1.4087         estimate D2E/DX2                !
 ! R67   R(34,74)                1.4242         estimate D2E/DX2                !
 ! R68   R(35,37)                1.447          estimate D2E/DX2                !
 ! R69   R(36,38)                1.4492         estimate D2E/DX2                !
 ! R70   R(37,39)                1.4398         estimate D2E/DX2                !
 ! R71   R(37,77)                1.4093         estimate D2E/DX2                !
 ! R72   R(38,42)                1.4438         estimate D2E/DX2                !
 ! R73   R(38,78)                1.4045         estimate D2E/DX2                !
 ! R74   R(39,43)                1.3606         estimate D2E/DX2                !
 ! R75   R(39,79)                1.5089         estimate D2E/DX2                !
 ! R76   R(40,41)                1.4273         estimate D2E/DX2                !
 ! R77   R(40,44)                1.3627         estimate D2E/DX2                !
 ! R78   R(40,79)                1.5151         estimate D2E/DX2                !
 ! R79   R(41,45)                1.404          estimate D2E/DX2                !
 ! R80   R(41,80)                1.4188         estimate D2E/DX2                !
 ! R81   R(42,46)                1.4011         estimate D2E/DX2                !
 ! R82   R(42,80)                1.4186         estimate D2E/DX2                !
 ! R83   R(44,47)                1.4463         estimate D2E/DX2                !
 ! R84   R(45,48)                1.4377         estimate D2E/DX2                !
 ! R85   R(47,48)                1.4378         estimate D2E/DX2                !
 ! R86   R(47,49)                1.4116         estimate D2E/DX2                !
 ! R87   R(48,50)                1.4126         estimate D2E/DX2                !
 ! R88   R(49,51)                1.4061         estimate D2E/DX2                !
 ! R89   R(50,52)                1.4132         estimate D2E/DX2                !
 ! R90   R(51,52)                1.3677         estimate D2E/DX2                !
 ! R91   R(51,55)                1.508          estimate D2E/DX2                !
 ! R92   R(52,56)                1.4519         estimate D2E/DX2                !
 ! R93   R(53,55)                1.4989         estimate D2E/DX2                !
 ! R94   R(54,56)                1.4034         estimate D2E/DX2                !
 ! R95   R(55,83)                1.5223         estimate D2E/DX2                !
 ! R96   R(55,86)                1.8096         estimate D2E/DX2                !
 ! R97   R(56,84)                1.4154         estimate D2E/DX2                !
 ! R98   R(57,59)                1.4271         estimate D2E/DX2                !
 ! R99   R(57,83)                1.3897         estimate D2E/DX2                !
 ! R100  R(58,60)                1.4074         estimate D2E/DX2                !
 ! R101  R(58,84)                1.4073         estimate D2E/DX2                !
 ! R102  R(59,60)                1.3715         estimate D2E/DX2                !
 ! R103  R(59,61)                1.5069         estimate D2E/DX2                !
 ! R104  R(60,62)                1.5176         estimate D2E/DX2                !
 ! R105  R(61,63)                1.5181         estimate D2E/DX2                !
 ! R106  R(61,89)                1.8014         estimate D2E/DX2                !
 ! R107  R(62,64)                1.507          estimate D2E/DX2                !
 ! R108  R(62,90)                1.8041         estimate D2E/DX2                !
 ! R109  R(63,64)                1.374          estimate D2E/DX2                !
 ! R110  R(63,65)                1.4054         estimate D2E/DX2                !
 ! R111  R(64,66)                1.4232         estimate D2E/DX2                !
 ! R112  R(65,67)                1.4039         estimate D2E/DX2                !
 ! R113  R(66,68)                1.3936         estimate D2E/DX2                !
 ! R114  R(67,68)                1.4253         estimate D2E/DX2                !
 ! R115  R(67,69)                1.4207         estimate D2E/DX2                !
 ! R116  R(68,70)                1.5217         estimate D2E/DX2                !
 ! R117  R(69,71)                1.4442         estimate D2E/DX2                !
 ! R118  R(70,72)                1.5083         estimate D2E/DX2                !
 ! R119  R(70,92)                1.8105         estimate D2E/DX2                !
 ! R120  R(71,72)                1.3656         estimate D2E/DX2                !
 ! R121  R(71,73)                1.4392         estimate D2E/DX2                !
 ! R122  R(72,74)                1.4281         estimate D2E/DX2                !
 ! R123  R(73,75)                1.3891         estimate D2E/DX2                !
 ! R124  R(74,76)                1.3866         estimate D2E/DX2                !
 ! R125  R(75,76)                1.4379         estimate D2E/DX2                !
 ! R126  R(75,77)                1.4147         estimate D2E/DX2                !
 ! R127  R(76,78)                1.4246         estimate D2E/DX2                !
 ! R128  R(77,81)                1.4552         estimate D2E/DX2                !
 ! R129  R(78,81)                1.442          estimate D2E/DX2                !
 ! R130  R(79,82)                1.4968         estimate D2E/DX2                !
 ! R131  R(79,87)                1.811          estimate D2E/DX2                !
 ! R132  R(80,82)                1.4191         estimate D2E/DX2                !
 ! R133  R(81,82)                1.3575         estimate D2E/DX2                !
 ! R134  R(83,84)                1.4301         estimate D2E/DX2                !
 ! A1    A(5,1,17)             121.8222         estimate D2E/DX2                !
 ! A2    A(5,1,23)             123.0544         estimate D2E/DX2                !
 ! A3    A(17,1,23)            107.2415         estimate D2E/DX2                !
 ! A4    A(6,2,43)             101.3218         estimate D2E/DX2                !
 ! A5    A(6,2,44)             112.6568         estimate D2E/DX2                !
 ! A6    A(6,2,88)             111.6173         estimate D2E/DX2                !
 ! A7    A(43,2,44)            110.1012         estimate D2E/DX2                !
 ! A8    A(43,2,88)            111.3768         estimate D2E/DX2                !
 ! A9    A(44,2,88)            109.5641         estimate D2E/DX2                !
 ! A10   A(7,3,18)             121.7058         estimate D2E/DX2                !
 ! A11   A(7,3,26)             108.1622         estimate D2E/DX2                !
 ! A12   A(18,3,26)            122.2959         estimate D2E/DX2                !
 ! A13   A(8,4,45)             120.7552         estimate D2E/DX2                !
 ! A14   A(8,4,46)             106.858          estimate D2E/DX2                !
 ! A15   A(45,4,46)            121.7226         estimate D2E/DX2                !
 ! A16   A(1,5,9)              118.9704         estimate D2E/DX2                !
 ! A17   A(1,5,29)             116.1712         estimate D2E/DX2                !
 ! A18   A(9,5,29)             119.0106         estimate D2E/DX2                !
 ! A19   A(2,6,10)             122.4914         estimate D2E/DX2                !
 ! A20   A(2,6,15)             110.287          estimate D2E/DX2                !
 ! A21   A(10,6,15)            118.1309         estimate D2E/DX2                !
 ! A22   A(3,7,12)             122.0573         estimate D2E/DX2                !
 ! A23   A(3,7,30)             108.3109         estimate D2E/DX2                !
 ! A24   A(12,7,30)            121.5527         estimate D2E/DX2                !
 ! A25   A(4,8,11)             119.2515         estimate D2E/DX2                !
 ! A26   A(4,8,16)             109.1496         estimate D2E/DX2                !
 ! A27   A(11,8,16)            120.8693         estimate D2E/DX2                !
 ! A28   A(5,9,13)             117.938          estimate D2E/DX2                !
 ! A29   A(5,9,35)             121.1142         estimate D2E/DX2                !
 ! A30   A(13,9,35)            116.9058         estimate D2E/DX2                !
 ! A31   A(6,10,49)            120.4915         estimate D2E/DX2                !
 ! A32   A(6,10,53)            121.403          estimate D2E/DX2                !
 ! A33   A(49,10,53)           108.599          estimate D2E/DX2                !
 ! A34   A(8,11,50)            120.3243         estimate D2E/DX2                !
 ! A35   A(8,11,54)            119.8291         estimate D2E/DX2                !
 ! A36   A(50,11,54)           109.0154         estimate D2E/DX2                !
 ! A37   A(7,12,14)            115.2819         estimate D2E/DX2                !
 ! A38   A(7,12,36)            119.6907         estimate D2E/DX2                !
 ! A39   A(14,12,36)           119.5795         estimate D2E/DX2                !
 ! A40   A(9,13,15)            122.4152         estimate D2E/DX2                !
 ! A41   A(9,13,43)            122.0417         estimate D2E/DX2                !
 ! A42   A(15,13,43)           107.9251         estimate D2E/DX2                !
 ! A43   A(12,14,16)           122.4131         estimate D2E/DX2                !
 ! A44   A(12,14,46)           120.3616         estimate D2E/DX2                !
 ! A45   A(16,14,46)           108.6243         estimate D2E/DX2                !
 ! A46   A(6,15,13)            109.2643         estimate D2E/DX2                !
 ! A47   A(6,15,17)            120.3201         estimate D2E/DX2                !
 ! A48   A(13,15,17)           119.5591         estimate D2E/DX2                !
 ! A49   A(8,16,14)            106.8684         estimate D2E/DX2                !
 ! A50   A(8,16,18)            120.5602         estimate D2E/DX2                !
 ! A51   A(14,16,18)           121.9086         estimate D2E/DX2                !
 ! A52   A(1,17,15)            119.2399         estimate D2E/DX2                !
 ! A53   A(1,17,19)            109.7601         estimate D2E/DX2                !
 ! A54   A(15,17,19)           120.8706         estimate D2E/DX2                !
 ! A55   A(3,18,16)            115.5672         estimate D2E/DX2                !
 ! A56   A(3,18,20)            118.2915         estimate D2E/DX2                !
 ! A57   A(16,18,20)           118.8521         estimate D2E/DX2                !
 ! A58   A(17,19,21)           110.0666         estimate D2E/DX2                !
 ! A59   A(17,19,53)           118.6535         estimate D2E/DX2                !
 ! A60   A(21,19,53)           122.9036         estimate D2E/DX2                !
 ! A61   A(18,20,22)           117.6463         estimate D2E/DX2                !
 ! A62   A(18,20,54)           119.6652         estimate D2E/DX2                !
 ! A63   A(22,20,54)           115.3706         estimate D2E/DX2                !
 ! A64   A(19,21,23)           101.2375         estimate D2E/DX2                !
 ! A65   A(19,21,57)           110.9068         estimate D2E/DX2                !
 ! A66   A(19,21,85)           113.3455         estimate D2E/DX2                !
 ! A67   A(23,21,57)           109.6428         estimate D2E/DX2                !
 ! A68   A(23,21,85)           113.2125         estimate D2E/DX2                !
 ! A69   A(57,21,85)           108.3651         estimate D2E/DX2                !
 ! A70   A(20,22,24)           122.7427         estimate D2E/DX2                !
 ! A71   A(20,22,58)           120.8729         estimate D2E/DX2                !
 ! A72   A(24,22,58)           107.7386         estimate D2E/DX2                !
 ! A73   A(1,23,21)            111.2905         estimate D2E/DX2                !
 ! A74   A(1,23,25)            119.5554         estimate D2E/DX2                !
 ! A75   A(21,23,25)           122.41           estimate D2E/DX2                !
 ! A76   A(22,24,26)           119.6273         estimate D2E/DX2                !
 ! A77   A(22,24,62)           110.6285         estimate D2E/DX2                !
 ! A78   A(26,24,62)           122.396          estimate D2E/DX2                !
 ! A79   A(23,25,27)           118.9403         estimate D2E/DX2                !
 ! A80   A(23,25,61)           122.908          estimate D2E/DX2                !
 ! A81   A(27,25,61)           110.8434         estimate D2E/DX2                !
 ! A82   A(3,26,24)            119.2148         estimate D2E/DX2                !
 ! A83   A(3,26,28)            110.9923         estimate D2E/DX2                !
 ! A84   A(24,26,28)           122.9408         estimate D2E/DX2                !
 ! A85   A(25,27,29)           122.3553         estimate D2E/DX2                !
 ! A86   A(25,27,65)           108.0465         estimate D2E/DX2                !
 ! A87   A(29,27,65)           120.0481         estimate D2E/DX2                !
 ! A88   A(26,28,30)           100.6876         estimate D2E/DX2                !
 ! A89   A(26,28,66)           110.966          estimate D2E/DX2                !
 ! A90   A(26,28,91)           112.8396         estimate D2E/DX2                !
 ! A91   A(30,28,66)           109.8708         estimate D2E/DX2                !
 ! A92   A(30,28,91)           113.3758         estimate D2E/DX2                !
 ! A93   A(66,28,91)           108.9128         estimate D2E/DX2                !
 ! A94   A(5,29,27)            119.3432         estimate D2E/DX2                !
 ! A95   A(5,29,31)            119.284          estimate D2E/DX2                !
 ! A96   A(27,29,31)           115.8209         estimate D2E/DX2                !
 ! A97   A(7,30,28)            111.5275         estimate D2E/DX2                !
 ! A98   A(7,30,32)            119.109          estimate D2E/DX2                !
 ! A99   A(28,30,32)           122.7712         estimate D2E/DX2                !
 ! A100  A(29,31,33)           120.7442         estimate D2E/DX2                !
 ! A101  A(29,31,69)           122.7357         estimate D2E/DX2                !
 ! A102  A(33,31,69)           108.9521         estimate D2E/DX2                !
 ! A103  A(30,32,34)           120.4135         estimate D2E/DX2                !
 ! A104  A(30,32,70)           121.3565         estimate D2E/DX2                !
 ! A105  A(34,32,70)           111.5755         estimate D2E/DX2                !
 ! A106  A(31,33,35)           120.6718         estimate D2E/DX2                !
 ! A107  A(31,33,73)           107.3291         estimate D2E/DX2                !
 ! A108  A(35,33,73)           122.2867         estimate D2E/DX2                !
 ! A109  A(32,34,36)           122.5678         estimate D2E/DX2                !
 ! A110  A(32,34,74)           107.4503         estimate D2E/DX2                !
 ! A111  A(36,34,74)           121.9916         estimate D2E/DX2                !
 ! A112  A(9,35,33)            117.589          estimate D2E/DX2                !
 ! A113  A(9,35,37)            120.1865         estimate D2E/DX2                !
 ! A114  A(33,35,37)           118.3288         estimate D2E/DX2                !
 ! A115  A(12,36,34)           116.3251         estimate D2E/DX2                !
 ! A116  A(12,36,38)           119.9993         estimate D2E/DX2                !
 ! A117  A(34,36,38)           118.4706         estimate D2E/DX2                !
 ! A118  A(35,37,39)           119.2797         estimate D2E/DX2                !
 ! A119  A(35,37,77)           118.4323         estimate D2E/DX2                !
 ! A120  A(39,37,77)           118.0042         estimate D2E/DX2                !
 ! A121  A(36,38,42)           119.2995         estimate D2E/DX2                !
 ! A122  A(36,38,78)           118.3912         estimate D2E/DX2                !
 ! A123  A(42,38,78)           116.6957         estimate D2E/DX2                !
 ! A124  A(37,39,43)           119.2591         estimate D2E/DX2                !
 ! A125  A(37,39,79)           122.3935         estimate D2E/DX2                !
 ! A126  A(43,39,79)           116.5071         estimate D2E/DX2                !
 ! A127  A(41,40,44)           121.2195         estimate D2E/DX2                !
 ! A128  A(41,40,79)           109.3873         estimate D2E/DX2                !
 ! A129  A(44,40,79)           124.7071         estimate D2E/DX2                !
 ! A130  A(40,41,45)           121.4107         estimate D2E/DX2                !
 ! A131  A(40,41,80)           109.2942         estimate D2E/DX2                !
 ! A132  A(45,41,80)           122.2881         estimate D2E/DX2                !
 ! A133  A(38,42,46)           119.6715         estimate D2E/DX2                !
 ! A134  A(38,42,80)           119.7036         estimate D2E/DX2                !
 ! A135  A(46,42,80)           115.0429         estimate D2E/DX2                !
 ! A136  A(2,43,13)            110.0829         estimate D2E/DX2                !
 ! A137  A(2,43,39)            124.5355         estimate D2E/DX2                !
 ! A138  A(13,43,39)           121.2707         estimate D2E/DX2                !
 ! A139  A(2,44,40)            116.2649         estimate D2E/DX2                !
 ! A140  A(2,44,47)            122.0862         estimate D2E/DX2                !
 ! A141  A(40,44,47)           119.5686         estimate D2E/DX2                !
 ! A142  A(4,45,41)            115.1628         estimate D2E/DX2                !
 ! A143  A(4,45,48)            120.4877         estimate D2E/DX2                !
 ! A144  A(41,45,48)           118.3382         estimate D2E/DX2                !
 ! A145  A(4,46,14)            108.4195         estimate D2E/DX2                !
 ! A146  A(4,46,42)            122.5528         estimate D2E/DX2                !
 ! A147  A(14,46,42)           120.845          estimate D2E/DX2                !
 ! A148  A(44,47,48)           119.6399         estimate D2E/DX2                !
 ! A149  A(44,47,49)           118.1457         estimate D2E/DX2                !
 ! A150  A(48,47,49)           118.0387         estimate D2E/DX2                !
 ! A151  A(45,48,47)           119.7233         estimate D2E/DX2                !
 ! A152  A(45,48,50)           116.8171         estimate D2E/DX2                !
 ! A153  A(47,48,50)           118.0588         estimate D2E/DX2                !
 ! A154  A(10,49,47)           121.5055         estimate D2E/DX2                !
 ! A155  A(10,49,51)           106.9312         estimate D2E/DX2                !
 ! A156  A(47,49,51)           122.2395         estimate D2E/DX2                !
 ! A157  A(11,50,48)           121.9241         estimate D2E/DX2                !
 ! A158  A(11,50,52)           106.073          estimate D2E/DX2                !
 ! A159  A(48,50,52)           121.2742         estimate D2E/DX2                !
 ! A160  A(49,51,52)           119.064          estimate D2E/DX2                !
 ! A161  A(49,51,55)           112.6253         estimate D2E/DX2                !
 ! A162  A(52,51,55)           121.8641         estimate D2E/DX2                !
 ! A163  A(50,52,51)           120.3872         estimate D2E/DX2                !
 ! A164  A(50,52,56)           109.1416         estimate D2E/DX2                !
 ! A165  A(51,52,56)           120.5938         estimate D2E/DX2                !
 ! A166  A(10,53,19)           120.243          estimate D2E/DX2                !
 ! A167  A(10,53,55)           110.6573         estimate D2E/DX2                !
 ! A168  A(19,53,55)           121.5638         estimate D2E/DX2                !
 ! A169  A(11,54,20)           120.1724         estimate D2E/DX2                !
 ! A170  A(11,54,56)           107.3396         estimate D2E/DX2                !
 ! A171  A(20,54,56)           122.6643         estimate D2E/DX2                !
 ! A172  A(51,55,53)           100.6983         estimate D2E/DX2                !
 ! A173  A(51,55,83)           110.8229         estimate D2E/DX2                !
 ! A174  A(51,55,86)           112.3424         estimate D2E/DX2                !
 ! A175  A(53,55,83)           111.4332         estimate D2E/DX2                !
 ! A176  A(53,55,86)           112.9065         estimate D2E/DX2                !
 ! A177  A(83,55,86)           108.5276         estimate D2E/DX2                !
 ! A178  A(52,56,54)           107.8007         estimate D2E/DX2                !
 ! A179  A(52,56,84)           118.2566         estimate D2E/DX2                !
 ! A180  A(54,56,84)           121.576          estimate D2E/DX2                !
 ! A181  A(21,57,59)           118.2901         estimate D2E/DX2                !
 ! A182  A(21,57,83)           120.5182         estimate D2E/DX2                !
 ! A183  A(59,57,83)           120.6102         estimate D2E/DX2                !
 ! A184  A(22,58,60)           109.4292         estimate D2E/DX2                !
 ! A185  A(22,58,84)           123.0657         estimate D2E/DX2                !
 ! A186  A(60,58,84)           121.1574         estimate D2E/DX2                !
 ! A187  A(57,59,60)           119.8332         estimate D2E/DX2                !
 ! A188  A(57,59,61)           123.1078         estimate D2E/DX2                !
 ! A189  A(60,59,61)           115.5191         estimate D2E/DX2                !
 ! A190  A(58,60,59)           120.1444         estimate D2E/DX2                !
 ! A191  A(58,60,62)           109.8619         estimate D2E/DX2                !
 ! A192  A(59,60,62)           126.0675         estimate D2E/DX2                !
 ! A193  A(25,61,59)           110.1307         estimate D2E/DX2                !
 ! A194  A(25,61,63)           100.9553         estimate D2E/DX2                !
 ! A195  A(25,61,89)           113.4261         estimate D2E/DX2                !
 ! A196  A(59,61,63)           109.7385         estimate D2E/DX2                !
 ! A197  A(59,61,89)           110.2507         estimate D2E/DX2                !
 ! A198  A(63,61,89)           111.9909         estimate D2E/DX2                !
 ! A199  A(24,62,60)           100.962          estimate D2E/DX2                !
 ! A200  A(24,62,64)           110.9743         estimate D2E/DX2                !
 ! A201  A(24,62,90)           112.9891         estimate D2E/DX2                !
 ! A202  A(60,62,64)           109.6665         estimate D2E/DX2                !
 ! A203  A(60,62,90)           111.7499         estimate D2E/DX2                !
 ! A204  A(64,62,90)           110.1756         estimate D2E/DX2                !
 ! A205  A(61,63,64)           125.8993         estimate D2E/DX2                !
 ! A206  A(61,63,65)           109.8295         estimate D2E/DX2                !
 ! A207  A(64,63,65)           119.9306         estimate D2E/DX2                !
 ! A208  A(62,64,63)           115.5576         estimate D2E/DX2                !
 ! A209  A(62,64,66)           123.3138         estimate D2E/DX2                !
 ! A210  A(63,64,66)           119.4728         estimate D2E/DX2                !
 ! A211  A(27,65,63)           109.0459         estimate D2E/DX2                !
 ! A212  A(27,65,67)           122.6958         estimate D2E/DX2                !
 ! A213  A(63,65,67)           121.7403         estimate D2E/DX2                !
 ! A214  A(28,66,64)           118.2996         estimate D2E/DX2                !
 ! A215  A(28,66,68)           120.0534         estimate D2E/DX2                !
 ! A216  A(64,66,68)           120.8842         estimate D2E/DX2                !
 ! A217  A(65,67,68)           118.0722         estimate D2E/DX2                !
 ! A218  A(65,67,69)           115.1609         estimate D2E/DX2                !
 ! A219  A(68,67,69)           121.859          estimate D2E/DX2                !
 ! A220  A(66,68,67)           119.6967         estimate D2E/DX2                !
 ! A221  A(66,68,70)           121.2893         estimate D2E/DX2                !
 ! A222  A(67,68,70)           117.7073         estimate D2E/DX2                !
 ! A223  A(31,69,67)           120.2665         estimate D2E/DX2                !
 ! A224  A(31,69,71)           107.5905         estimate D2E/DX2                !
 ! A225  A(67,69,71)           119.9424         estimate D2E/DX2                !
 ! A226  A(32,70,68)           110.015          estimate D2E/DX2                !
 ! A227  A(32,70,72)           101.0535         estimate D2E/DX2                !
 ! A228  A(32,70,92)           113.0144         estimate D2E/DX2                !
 ! A229  A(68,70,72)           112.7194         estimate D2E/DX2                !
 ! A230  A(68,70,92)           108.6573         estimate D2E/DX2                !
 ! A231  A(72,70,92)           111.298          estimate D2E/DX2                !
 ! A232  A(69,71,72)           119.7946         estimate D2E/DX2                !
 ! A233  A(69,71,73)           107.5522         estimate D2E/DX2                !
 ! A234  A(72,71,73)           120.8317         estimate D2E/DX2                !
 ! A235  A(70,72,71)           122.7684         estimate D2E/DX2                !
 ! A236  A(70,72,74)           110.1789         estimate D2E/DX2                !
 ! A237  A(71,72,74)           118.8993         estimate D2E/DX2                !
 ! A238  A(33,73,71)           108.3056         estimate D2E/DX2                !
 ! A239  A(33,73,75)           119.1495         estimate D2E/DX2                !
 ! A240  A(71,73,75)           120.4365         estimate D2E/DX2                !
 ! A241  A(34,74,72)           109.0315         estimate D2E/DX2                !
 ! A242  A(34,74,76)           119.3855         estimate D2E/DX2                !
 ! A243  A(72,74,76)           121.1976         estimate D2E/DX2                !
 ! A244  A(73,75,76)           118.6198         estimate D2E/DX2                !
 ! A245  A(73,75,77)           119.9316         estimate D2E/DX2                !
 ! A246  A(76,75,77)           108.9058         estimate D2E/DX2                !
 ! A247  A(74,76,75)           119.868          estimate D2E/DX2                !
 ! A248  A(74,76,78)           119.5746         estimate D2E/DX2                !
 ! A249  A(75,76,78)           108.613          estimate D2E/DX2                !
 ! A250  A(37,77,75)           121.7313         estimate D2E/DX2                !
 ! A251  A(37,77,81)           119.6029         estimate D2E/DX2                !
 ! A252  A(75,77,81)           106.5093         estimate D2E/DX2                !
 ! A253  A(38,78,76)           122.0808         estimate D2E/DX2                !
 ! A254  A(38,78,81)           121.8645         estimate D2E/DX2                !
 ! A255  A(76,78,81)           106.5569         estimate D2E/DX2                !
 ! A256  A(39,79,40)           110.4041         estimate D2E/DX2                !
 ! A257  A(39,79,82)           111.3013         estimate D2E/DX2                !
 ! A258  A(39,79,87)           109.9822         estimate D2E/DX2                !
 ! A259  A(40,79,82)           101.1357         estimate D2E/DX2                !
 ! A260  A(40,79,87)           111.6669         estimate D2E/DX2                !
 ! A261  A(82,79,87)           112.0964         estimate D2E/DX2                !
 ! A262  A(41,80,42)           121.6723         estimate D2E/DX2                !
 ! A263  A(41,80,82)           107.8434         estimate D2E/DX2                !
 ! A264  A(42,80,82)           121.5931         estimate D2E/DX2                !
 ! A265  A(77,81,78)           108.4877         estimate D2E/DX2                !
 ! A266  A(77,81,82)           121.0743         estimate D2E/DX2                !
 ! A267  A(78,81,82)           120.4894         estimate D2E/DX2                !
 ! A268  A(79,82,80)           111.397          estimate D2E/DX2                !
 ! A269  A(79,82,81)           122.0064         estimate D2E/DX2                !
 ! A270  A(80,82,81)           119.0633         estimate D2E/DX2                !
 ! A271  A(55,83,57)           121.6825         estimate D2E/DX2                !
 ! A272  A(55,83,84)           117.5948         estimate D2E/DX2                !
 ! A273  A(57,83,84)           119.6862         estimate D2E/DX2                !
 ! A274  A(56,84,58)           114.8734         estimate D2E/DX2                !
 ! A275  A(56,84,83)           121.9739         estimate D2E/DX2                !
 ! A276  A(58,84,83)           118.4539         estimate D2E/DX2                !
 ! D1    D(17,1,5,9)            -1.0656         estimate D2E/DX2                !
 ! D2    D(17,1,5,29)         -153.9051         estimate D2E/DX2                !
 ! D3    D(23,1,5,9)           144.0222         estimate D2E/DX2                !
 ! D4    D(23,1,5,29)           -8.8174         estimate D2E/DX2                !
 ! D5    D(5,1,17,15)           -1.1248         estimate D2E/DX2                !
 ! D6    D(5,1,17,19)          144.5568         estimate D2E/DX2                !
 ! D7    D(23,1,17,15)        -150.975          estimate D2E/DX2                !
 ! D8    D(23,1,17,19)          -5.2933         estimate D2E/DX2                !
 ! D9    D(5,1,23,21)         -147.5637         estimate D2E/DX2                !
 ! D10   D(5,1,23,25)            4.3519         estimate D2E/DX2                !
 ! D11   D(17,1,23,21)           1.8274         estimate D2E/DX2                !
 ! D12   D(17,1,23,25)         153.743          estimate D2E/DX2                !
 ! D13   D(43,2,6,10)         -135.5967         estimate D2E/DX2                !
 ! D14   D(43,2,6,15)           10.6432         estimate D2E/DX2                !
 ! D15   D(44,2,6,10)          -17.991          estimate D2E/DX2                !
 ! D16   D(44,2,6,15)          128.2489         estimate D2E/DX2                !
 ! D17   D(88,2,6,10)          105.7703         estimate D2E/DX2                !
 ! D18   D(88,2,6,15)         -107.9899         estimate D2E/DX2                !
 ! D19   D(6,2,43,13)           -8.0857         estimate D2E/DX2                !
 ! D20   D(6,2,43,39)          149.2133         estimate D2E/DX2                !
 ! D21   D(44,2,43,13)        -127.5322         estimate D2E/DX2                !
 ! D22   D(44,2,43,39)          29.7668         estimate D2E/DX2                !
 ! D23   D(88,2,43,13)         110.7202         estimate D2E/DX2                !
 ! D24   D(88,2,43,39)         -91.9808         estimate D2E/DX2                !
 ! D25   D(6,2,44,40)         -147.2977         estimate D2E/DX2                !
 ! D26   D(6,2,44,47)           16.2127         estimate D2E/DX2                !
 ! D27   D(43,2,44,40)         -35.0073         estimate D2E/DX2                !
 ! D28   D(43,2,44,47)         128.5031         estimate D2E/DX2                !
 ! D29   D(88,2,44,40)          87.8114         estimate D2E/DX2                !
 ! D30   D(88,2,44,47)        -108.6782         estimate D2E/DX2                !
 ! D31   D(18,3,7,12)            3.4568         estimate D2E/DX2                !
 ! D32   D(18,3,7,30)          152.506          estimate D2E/DX2                !
 ! D33   D(26,3,7,12)         -146.2667         estimate D2E/DX2                !
 ! D34   D(26,3,7,30)            2.7825         estimate D2E/DX2                !
 ! D35   D(7,3,18,16)            6.076          estimate D2E/DX2                !
 ! D36   D(7,3,18,20)         -143.8075         estimate D2E/DX2                !
 ! D37   D(26,3,18,16)         151.5537         estimate D2E/DX2                !
 ! D38   D(26,3,18,20)           1.6702         estimate D2E/DX2                !
 ! D39   D(7,3,26,24)          146.3902         estimate D2E/DX2                !
 ! D40   D(7,3,26,28)           -5.481          estimate D2E/DX2                !
 ! D41   D(18,3,26,24)          -3.1172         estimate D2E/DX2                !
 ! D42   D(18,3,26,28)        -154.9883         estimate D2E/DX2                !
 ! D43   D(45,4,8,11)            2.6664         estimate D2E/DX2                !
 ! D44   D(45,4,8,16)         -142.119          estimate D2E/DX2                !
 ! D45   D(46,4,8,11)          147.7162         estimate D2E/DX2                !
 ! D46   D(46,4,8,16)            2.9308         estimate D2E/DX2                !
 ! D47   D(8,4,45,41)          151.2908         estimate D2E/DX2                !
 ! D48   D(8,4,45,48)           -0.9817         estimate D2E/DX2                !
 ! D49   D(46,4,45,41)          11.4218         estimate D2E/DX2                !
 ! D50   D(46,4,45,48)        -140.8507         estimate D2E/DX2                !
 ! D51   D(8,4,46,14)           -2.1712         estimate D2E/DX2                !
 ! D52   D(8,4,46,42)         -150.7902         estimate D2E/DX2                !
 ! D53   D(45,4,46,14)         142.4653         estimate D2E/DX2                !
 ! D54   D(45,4,46,42)          -6.1537         estimate D2E/DX2                !
 ! D55   D(1,5,9,13)             1.9479         estimate D2E/DX2                !
 ! D56   D(1,5,9,35)          -154.7426         estimate D2E/DX2                !
 ! D57   D(29,5,9,13)          154.0133         estimate D2E/DX2                !
 ! D58   D(29,5,9,35)           -2.6772         estimate D2E/DX2                !
 ! D59   D(1,5,29,27)            8.2152         estimate D2E/DX2                !
 ! D60   D(1,5,29,31)          160.856          estimate D2E/DX2                !
 ! D61   D(9,5,29,27)         -144.6129         estimate D2E/DX2                !
 ! D62   D(9,5,29,31)            8.0278         estimate D2E/DX2                !
 ! D63   D(2,6,10,49)            8.4818         estimate D2E/DX2                !
 ! D64   D(2,6,10,53)          150.9604         estimate D2E/DX2                !
 ! D65   D(15,6,10,49)        -135.2855         estimate D2E/DX2                !
 ! D66   D(15,6,10,53)           7.193          estimate D2E/DX2                !
 ! D67   D(2,6,15,13)           -9.6902         estimate D2E/DX2                !
 ! D68   D(2,6,15,17)         -153.7648         estimate D2E/DX2                !
 ! D69   D(10,6,15,13)         138.2016         estimate D2E/DX2                !
 ! D70   D(10,6,15,17)          -5.873          estimate D2E/DX2                !
 ! D71   D(3,7,12,14)           -9.0062         estimate D2E/DX2                !
 ! D72   D(3,7,12,36)          144.8545         estimate D2E/DX2                !
 ! D73   D(30,7,12,14)        -154.0487         estimate D2E/DX2                !
 ! D74   D(30,7,12,36)          -0.188          estimate D2E/DX2                !
 ! D75   D(3,7,30,28)            0.9019         estimate D2E/DX2                !
 ! D76   D(3,7,30,32)         -151.4275         estimate D2E/DX2                !
 ! D77   D(12,7,30,28)         150.1381         estimate D2E/DX2                !
 ! D78   D(12,7,30,32)          -2.1913         estimate D2E/DX2                !
 ! D79   D(4,8,11,50)            0.9392         estimate D2E/DX2                !
 ! D80   D(4,8,11,54)         -139.4594         estimate D2E/DX2                !
 ! D81   D(16,8,11,50)         141.5463         estimate D2E/DX2                !
 ! D82   D(16,8,11,54)           1.1477         estimate D2E/DX2                !
 ! D83   D(4,8,16,14)           -2.5505         estimate D2E/DX2                !
 ! D84   D(4,8,16,18)          142.5812         estimate D2E/DX2                !
 ! D85   D(11,8,16,14)        -146.6667         estimate D2E/DX2                !
 ! D86   D(11,8,16,18)          -1.5351         estimate D2E/DX2                !
 ! D87   D(5,9,13,15)           -0.7271         estimate D2E/DX2                !
 ! D88   D(5,9,13,43)         -146.5731         estimate D2E/DX2                !
 ! D89   D(35,9,13,15)         156.9457         estimate D2E/DX2                !
 ! D90   D(35,9,13,43)          11.0997         estimate D2E/DX2                !
 ! D91   D(5,9,35,33)           -8.4049         estimate D2E/DX2                !
 ! D92   D(5,9,35,37)          149.019          estimate D2E/DX2                !
 ! D93   D(13,9,35,33)        -165.3249         estimate D2E/DX2                !
 ! D94   D(13,9,35,37)          -7.901          estimate D2E/DX2                !
 ! D95   D(6,10,49,47)           4.6344         estimate D2E/DX2                !
 ! D96   D(6,10,49,51)         151.8413         estimate D2E/DX2                !
 ! D97   D(53,10,49,47)       -142.1021         estimate D2E/DX2                !
 ! D98   D(53,10,49,51)          5.1048         estimate D2E/DX2                !
 ! D99   D(6,10,53,19)          -3.6202         estimate D2E/DX2                !
 ! D100  D(6,10,53,55)        -153.7729         estimate D2E/DX2                !
 ! D101  D(49,10,53,19)        142.7553         estimate D2E/DX2                !
 ! D102  D(49,10,53,55)         -7.3974         estimate D2E/DX2                !
 ! D103  D(8,11,50,48)          -6.4566         estimate D2E/DX2                !
 ! D104  D(8,11,50,52)        -151.1468         estimate D2E/DX2                !
 ! D105  D(54,11,50,48)        137.7469         estimate D2E/DX2                !
 ! D106  D(54,11,50,52)         -6.9433         estimate D2E/DX2                !
 ! D107  D(8,11,54,20)           0.8166         estimate D2E/DX2                !
 ! D108  D(8,11,54,56)         147.4883         estimate D2E/DX2                !
 ! D109  D(50,11,54,20)       -143.5929         estimate D2E/DX2                !
 ! D110  D(50,11,54,56)          3.0788         estimate D2E/DX2                !
 ! D111  D(7,12,14,16)           5.2023         estimate D2E/DX2                !
 ! D112  D(7,12,14,46)         149.3346         estimate D2E/DX2                !
 ! D113  D(36,12,14,16)       -148.6895         estimate D2E/DX2                !
 ! D114  D(36,12,14,46)         -4.5572         estimate D2E/DX2                !
 ! D115  D(7,12,36,34)           4.6592         estimate D2E/DX2                !
 ! D116  D(7,12,36,38)        -149.4718         estimate D2E/DX2                !
 ! D117  D(14,12,36,34)        157.3976         estimate D2E/DX2                !
 ! D118  D(14,12,36,38)          3.2666         estimate D2E/DX2                !
 ! D119  D(9,13,15,6)         -145.8506         estimate D2E/DX2                !
 ! D120  D(9,13,15,17)          -1.4603         estimate D2E/DX2                !
 ! D121  D(43,13,15,6)           4.138          estimate D2E/DX2                !
 ! D122  D(43,13,15,17)        148.5283         estimate D2E/DX2                !
 ! D123  D(9,13,43,2)          152.9923         estimate D2E/DX2                !
 ! D124  D(9,13,43,39)          -5.1719         estimate D2E/DX2                !
 ! D125  D(15,13,43,2)           2.8681         estimate D2E/DX2                !
 ! D126  D(15,13,43,39)       -155.2961         estimate D2E/DX2                !
 ! D127  D(12,14,16,8)         148.9355         estimate D2E/DX2                !
 ! D128  D(12,14,16,18)          4.3798         estimate D2E/DX2                !
 ! D129  D(46,14,16,8)           1.1775         estimate D2E/DX2                !
 ! D130  D(46,14,16,18)       -143.3781         estimate D2E/DX2                !
 ! D131  D(12,14,46,4)        -147.9098         estimate D2E/DX2                !
 ! D132  D(12,14,46,42)          1.3445         estimate D2E/DX2                !
 ! D133  D(16,14,46,4)           0.6259         estimate D2E/DX2                !
 ! D134  D(16,14,46,42)        149.8802         estimate D2E/DX2                !
 ! D135  D(6,15,17,1)          142.8113         estimate D2E/DX2                !
 ! D136  D(6,15,17,19)           0.9939         estimate D2E/DX2                !
 ! D137  D(13,15,17,1)           2.3615         estimate D2E/DX2                !
 ! D138  D(13,15,17,19)       -139.4559         estimate D2E/DX2                !
 ! D139  D(8,16,18,3)         -149.7739         estimate D2E/DX2                !
 ! D140  D(8,16,18,20)          -0.0682         estimate D2E/DX2                !
 ! D141  D(14,16,18,3)          -9.9007         estimate D2E/DX2                !
 ! D142  D(14,16,18,20)        139.805          estimate D2E/DX2                !
 ! D143  D(1,17,19,21)           6.8164         estimate D2E/DX2                !
 ! D144  D(1,17,19,53)        -142.3488         estimate D2E/DX2                !
 ! D145  D(15,17,19,21)        151.846          estimate D2E/DX2                !
 ! D146  D(15,17,19,53)          2.6808         estimate D2E/DX2                !
 ! D147  D(3,18,20,22)           2.1186         estimate D2E/DX2                !
 ! D148  D(3,18,20,54)         150.8798         estimate D2E/DX2                !
 ! D149  D(16,18,20,22)       -146.7652         estimate D2E/DX2                !
 ! D150  D(16,18,20,54)          1.9961         estimate D2E/DX2                !
 ! D151  D(17,19,21,23)         -5.2653         estimate D2E/DX2                !
 ! D152  D(17,19,21,57)       -121.5465         estimate D2E/DX2                !
 ! D153  D(17,19,21,85)        116.2976         estimate D2E/DX2                !
 ! D154  D(53,19,21,23)        142.341          estimate D2E/DX2                !
 ! D155  D(53,19,21,57)         26.0598         estimate D2E/DX2                !
 ! D156  D(53,19,21,85)        -96.0961         estimate D2E/DX2                !
 ! D157  D(17,19,53,10)         -1.4298         estimate D2E/DX2                !
 ! D158  D(17,19,53,55)        145.4396         estimate D2E/DX2                !
 ! D159  D(21,19,53,10)       -146.4395         estimate D2E/DX2                !
 ! D160  D(21,19,53,55)          0.4298         estimate D2E/DX2                !
 ! D161  D(18,20,22,24)         -4.6593         estimate D2E/DX2                !
 ! D162  D(18,20,22,58)        139.0929         estimate D2E/DX2                !
 ! D163  D(54,20,22,24)       -154.743          estimate D2E/DX2                !
 ! D164  D(54,20,22,58)        -10.9909         estimate D2E/DX2                !
 ! D165  D(18,20,54,11)         -2.3958         estimate D2E/DX2                !
 ! D166  D(18,20,54,56)       -143.8607         estimate D2E/DX2                !
 ! D167  D(22,20,54,11)        147.0448         estimate D2E/DX2                !
 ! D168  D(22,20,54,56)          5.5799         estimate D2E/DX2                !
 ! D169  D(19,21,23,1)           2.0454         estimate D2E/DX2                !
 ! D170  D(19,21,23,25)       -148.9375         estimate D2E/DX2                !
 ! D171  D(57,21,23,1)         119.2533         estimate D2E/DX2                !
 ! D172  D(57,21,23,25)        -31.7296         estimate D2E/DX2                !
 ! D173  D(85,21,23,1)        -119.6105         estimate D2E/DX2                !
 ! D174  D(85,21,23,25)         89.4067         estimate D2E/DX2                !
 ! D175  D(19,21,57,59)        144.576          estimate D2E/DX2                !
 ! D176  D(19,21,57,83)        -26.7339         estimate D2E/DX2                !
 ! D177  D(23,21,57,59)         33.6081         estimate D2E/DX2                !
 ! D178  D(23,21,57,83)       -137.7019         estimate D2E/DX2                !
 ! D179  D(85,21,57,59)        -90.4095         estimate D2E/DX2                !
 ! D180  D(85,21,57,83)         98.2806         estimate D2E/DX2                !
 ! D181  D(20,22,24,26)          3.3076         estimate D2E/DX2                !
 ! D182  D(20,22,24,62)        154.0769         estimate D2E/DX2                !
 ! D183  D(58,22,24,26)       -144.4954         estimate D2E/DX2                !
 ! D184  D(58,22,24,62)          6.274          estimate D2E/DX2                !
 ! D185  D(20,22,58,60)       -146.9995         estimate D2E/DX2                !
 ! D186  D(20,22,58,84)          5.1659         estimate D2E/DX2                !
 ! D187  D(24,22,58,60)          1.5236         estimate D2E/DX2                !
 ! D188  D(24,22,58,84)        153.689          estimate D2E/DX2                !
 ! D189  D(1,23,25,27)           0.8898         estimate D2E/DX2                !
 ! D190  D(1,23,25,61)        -146.4751         estimate D2E/DX2                !
 ! D191  D(21,23,25,27)        149.5862         estimate D2E/DX2                !
 ! D192  D(21,23,25,61)          2.2213         estimate D2E/DX2                !
 ! D193  D(22,24,26,3)           0.6445         estimate D2E/DX2                !
 ! D194  D(22,24,26,28)        149.011          estimate D2E/DX2                !
 ! D195  D(62,24,26,3)        -146.5863         estimate D2E/DX2                !
 ! D196  D(62,24,26,28)          1.7802         estimate D2E/DX2                !
 ! D197  D(22,24,62,60)        -10.6861         estimate D2E/DX2                !
 ! D198  D(22,24,62,64)       -126.8779         estimate D2E/DX2                !
 ! D199  D(22,24,62,90)        108.7979         estimate D2E/DX2                !
 ! D200  D(26,24,62,60)        139.1335         estimate D2E/DX2                !
 ! D201  D(26,24,62,64)         22.9417         estimate D2E/DX2                !
 ! D202  D(26,24,62,90)       -101.3825         estimate D2E/DX2                !
 ! D203  D(23,25,27,29)         -1.1823         estimate D2E/DX2                !
 ! D204  D(23,25,27,65)       -147.2644         estimate D2E/DX2                !
 ! D205  D(61,25,27,29)        149.8406         estimate D2E/DX2                !
 ! D206  D(61,25,27,65)          3.7585         estimate D2E/DX2                !
 ! D207  D(23,25,61,59)         24.695          estimate D2E/DX2                !
 ! D208  D(23,25,61,63)        140.6289         estimate D2E/DX2                !
 ! D209  D(23,25,61,89)        -99.4014         estimate D2E/DX2                !
 ! D210  D(27,25,61,59)       -124.9742         estimate D2E/DX2                !
 ! D211  D(27,25,61,63)         -9.0403         estimate D2E/DX2                !
 ! D212  D(27,25,61,89)        110.9294         estimate D2E/DX2                !
 ! D213  D(3,26,28,30)           5.616          estimate D2E/DX2                !
 ! D214  D(3,26,28,66)         121.8951         estimate D2E/DX2                !
 ! D215  D(3,26,28,91)        -115.5554         estimate D2E/DX2                !
 ! D216  D(24,26,28,30)       -145.023          estimate D2E/DX2                !
 ! D217  D(24,26,28,66)        -28.7439         estimate D2E/DX2                !
 ! D218  D(24,26,28,91)         93.8055         estimate D2E/DX2                !
 ! D219  D(25,27,29,5)          -3.5822         estimate D2E/DX2                !
 ! D220  D(25,27,29,31)       -157.1399         estimate D2E/DX2                !
 ! D221  D(65,27,29,5)         138.6163         estimate D2E/DX2                !
 ! D222  D(65,27,29,31)        -14.9414         estimate D2E/DX2                !
 ! D223  D(25,27,65,63)          3.8802         estimate D2E/DX2                !
 ! D224  D(25,27,65,67)        155.8764         estimate D2E/DX2                !
 ! D225  D(29,27,65,63)       -143.1253         estimate D2E/DX2                !
 ! D226  D(29,27,65,67)          8.8709         estimate D2E/DX2                !
 ! D227  D(26,28,30,7)          -3.9021         estimate D2E/DX2                !
 ! D228  D(26,28,30,32)        147.2469         estimate D2E/DX2                !
 ! D229  D(66,28,30,7)        -120.9923         estimate D2E/DX2                !
 ! D230  D(66,28,30,32)         30.1566         estimate D2E/DX2                !
 ! D231  D(91,28,30,7)         116.8884         estimate D2E/DX2                !
 ! D232  D(91,28,30,32)        -91.9627         estimate D2E/DX2                !
 ! D233  D(26,28,66,64)         30.0146         estimate D2E/DX2                !
 ! D234  D(26,28,66,68)       -140.0722         estimate D2E/DX2                !
 ! D235  D(30,28,66,64)        140.4815         estimate D2E/DX2                !
 ! D236  D(30,28,66,68)        -29.6053         estimate D2E/DX2                !
 ! D237  D(91,28,66,64)        -94.7832         estimate D2E/DX2                !
 ! D238  D(91,28,66,68)         95.13           estimate D2E/DX2                !
 ! D239  D(5,29,31,33)          -2.3764         estimate D2E/DX2                !
 ! D240  D(5,29,31,69)        -148.6413         estimate D2E/DX2                !
 ! D241  D(27,29,31,33)        151.1979         estimate D2E/DX2                !
 ! D242  D(27,29,31,69)          4.9329         estimate D2E/DX2                !
 ! D243  D(7,30,32,34)          -0.1137         estimate D2E/DX2                !
 ! D244  D(7,30,32,70)         148.8715         estimate D2E/DX2                !
 ! D245  D(28,30,32,34)       -149.1988         estimate D2E/DX2                !
 ! D246  D(28,30,32,70)         -0.2136         estimate D2E/DX2                !
 ! D247  D(29,31,33,35)         -9.1485         estimate D2E/DX2                !
 ! D248  D(29,31,33,73)       -155.8295         estimate D2E/DX2                !
 ! D249  D(69,31,33,35)        141.2526         estimate D2E/DX2                !
 ! D250  D(69,31,33,73)         -5.4284         estimate D2E/DX2                !
 ! D251  D(29,31,69,67)         11.9559         estimate D2E/DX2                !
 ! D252  D(29,31,69,71)        154.2595         estimate D2E/DX2                !
 ! D253  D(33,31,69,67)       -137.7354         estimate D2E/DX2                !
 ! D254  D(33,31,69,71)          4.5682         estimate D2E/DX2                !
 ! D255  D(30,32,34,36)          4.9942         estimate D2E/DX2                !
 ! D256  D(30,32,34,74)        154.2835         estimate D2E/DX2                !
 ! D257  D(70,32,34,36)       -146.7664         estimate D2E/DX2                !
 ! D258  D(70,32,34,74)          2.5229         estimate D2E/DX2                !
 ! D259  D(30,32,70,68)        -29.4756         estimate D2E/DX2                !
 ! D260  D(30,32,70,72)       -148.8145         estimate D2E/DX2                !
 ! D261  D(30,32,70,92)         92.1686         estimate D2E/DX2                !
 ! D262  D(34,32,70,68)        121.9801         estimate D2E/DX2                !
 ! D263  D(34,32,70,72)          2.6412         estimate D2E/DX2                !
 ! D264  D(34,32,70,92)       -116.3757         estimate D2E/DX2                !
 ! D265  D(31,33,35,9)          14.2135         estimate D2E/DX2                !
 ! D266  D(31,33,35,37)       -143.6385         estimate D2E/DX2                !
 ! D267  D(73,33,35,9)         155.8777         estimate D2E/DX2                !
 ! D268  D(73,33,35,37)         -1.9743         estimate D2E/DX2                !
 ! D269  D(31,33,73,71)          4.1083         estimate D2E/DX2                !
 ! D270  D(31,33,73,75)        146.8083         estimate D2E/DX2                !
 ! D271  D(35,33,73,71)       -141.9145         estimate D2E/DX2                !
 ! D272  D(35,33,73,75)          0.7855         estimate D2E/DX2                !
 ! D273  D(32,34,36,12)         -7.1149         estimate D2E/DX2                !
 ! D274  D(32,34,36,38)        147.4273         estimate D2E/DX2                !
 ! D275  D(74,34,36,12)       -152.0543         estimate D2E/DX2                !
 ! D276  D(74,34,36,38)          2.4878         estimate D2E/DX2                !
 ! D277  D(32,34,74,72)         -7.0383         estimate D2E/DX2                !
 ! D278  D(32,34,74,76)       -152.4349         estimate D2E/DX2                !
 ! D279  D(36,34,74,72)        142.4663         estimate D2E/DX2                !
 ! D280  D(36,34,74,76)         -2.9302         estimate D2E/DX2                !
 ! D281  D(9,35,37,39)          -0.9647         estimate D2E/DX2                !
 ! D282  D(9,35,37,77)        -157.2743         estimate D2E/DX2                !
 ! D283  D(33,35,37,39)        156.2952         estimate D2E/DX2                !
 ! D284  D(33,35,37,77)         -0.0144         estimate D2E/DX2                !
 ! D285  D(12,36,38,42)          1.1963         estimate D2E/DX2                !
 ! D286  D(12,36,38,78)        153.931          estimate D2E/DX2                !
 ! D287  D(34,36,38,42)       -152.3889         estimate D2E/DX2                !
 ! D288  D(34,36,38,78)          0.3459         estimate D2E/DX2                !
 ! D289  D(35,37,39,43)          7.1641         estimate D2E/DX2                !
 ! D290  D(35,37,39,79)       -156.8445         estimate D2E/DX2                !
 ! D291  D(77,37,39,43)        163.5742         estimate D2E/DX2                !
 ! D292  D(77,37,39,79)         -0.4343         estimate D2E/DX2                !
 ! D293  D(35,37,77,75)          3.2049         estimate D2E/DX2                !
 ! D294  D(35,37,77,81)        140.5625         estimate D2E/DX2                !
 ! D295  D(39,37,77,75)       -153.4081         estimate D2E/DX2                !
 ! D296  D(39,37,77,81)        -16.0506         estimate D2E/DX2                !
 ! D297  D(36,38,42,46)         -4.3948         estimate D2E/DX2                !
 ! D298  D(36,38,42,80)        147.9668         estimate D2E/DX2                !
 ! D299  D(78,38,42,46)       -157.581          estimate D2E/DX2                !
 ! D300  D(78,38,42,80)         -5.2193         estimate D2E/DX2                !
 ! D301  D(36,38,78,76)         -2.7761         estimate D2E/DX2                !
 ! D302  D(36,38,78,81)       -144.5551         estimate D2E/DX2                !
 ! D303  D(42,38,78,76)        150.6616         estimate D2E/DX2                !
 ! D304  D(42,38,78,81)          8.8825         estimate D2E/DX2                !
 ! D305  D(37,39,43,2)        -159.2084         estimate D2E/DX2                !
 ! D306  D(37,39,43,13)         -4.2998         estimate D2E/DX2                !
 ! D307  D(79,39,43,2)           5.7245         estimate D2E/DX2                !
 ! D308  D(79,39,43,13)        160.6331         estimate D2E/DX2                !
 ! D309  D(37,39,79,40)        130.8492         estimate D2E/DX2                !
 ! D310  D(37,39,79,82)         19.3671         estimate D2E/DX2                !
 ! D311  D(37,39,79,87)       -105.4801         estimate D2E/DX2                !
 ! D312  D(43,39,79,40)        -33.571          estimate D2E/DX2                !
[...]
 Alpha virt. eigenvalues --    1.30309   1.30722   1.30854   1.31209   1.31830
 Alpha virt. eigenvalues --    1.31930   1.32349   1.32887   1.33089   1.33390
 Alpha virt. eigenvalues --    1.33850   1.34072   1.34406   1.34681   1.35238
 Alpha virt. eigenvalues --    1.35647   1.36236   1.36596   1.36929   1.37305
 Alpha virt. eigenvalues --    1.37791   1.37869   1.38486   1.38903   1.39319
 Alpha virt. eigenvalues --    1.40024   1.40523   1.41046   1.41366   1.42177
 Alpha virt. eigenvalues --    1.42773   1.43025   1.43454   1.44395   1.44531
 Alpha virt. eigenvalues --    1.44966   1.45457   1.45905   1.46844   1.47260
 Alpha virt. eigenvalues --    1.47800   1.48153   1.48338   1.49066   1.49463
 Alpha virt. eigenvalues --    1.49904   1.50299   1.51585   1.51743   1.52004
 Alpha virt. eigenvalues --    1.52798   1.53351   1.53766   1.54423   1.54909
 Alpha virt. eigenvalues --    1.55316   1.55705   1.56046   1.56797   1.56918
 Alpha virt. eigenvalues --    1.57842   1.58126   1.58863   1.59004   1.59358
 Alpha virt. eigenvalues --    1.60126   1.60314   1.60839   1.61787   1.62327
 Alpha virt. eigenvalues --    1.62508   1.62744   1.63321   1.63722   1.63844
 Alpha virt. eigenvalues --    1.63977   1.64623   1.64747   1.64880   1.65075
 Alpha virt. eigenvalues --    1.65481   1.65638   1.66081   1.66192   1.66627
 Alpha virt. eigenvalues --    1.66768   1.67352   1.67398   1.67617   1.67767
 Alpha virt. eigenvalues --    1.68003   1.68153   1.68467   1.68723   1.68959
 Alpha virt. eigenvalues --    1.69080   1.69371   1.69695   1.69974   1.70177
 Alpha virt. eigenvalues --    1.70459   1.70513   1.70980   1.71039   1.71234
 Alpha virt. eigenvalues --    1.71563   1.71672   1.71935   1.72072   1.72211
 Alpha virt. eigenvalues --    1.72623   1.72835   1.73273   1.73442   1.73690
 Alpha virt. eigenvalues --    1.74079   1.74329   1.74384   1.74487   1.74710
 Alpha virt. eigenvalues --    1.75214   1.75407   1.75719   1.75801   1.75985
 Alpha virt. eigenvalues --    1.76302   1.76367   1.76663   1.77039   1.77254
 Alpha virt. eigenvalues --    1.77466   1.77669   1.77812   1.77981   1.78193
 Alpha virt. eigenvalues --    1.78353   1.78570   1.78819   1.79037   1.79580
 Alpha virt. eigenvalues --    1.79907   1.80263   1.80328   1.80522   1.80843
 Alpha virt. eigenvalues --    1.81065   1.81297   1.81404   1.81789   1.82052
 Alpha virt. eigenvalues --    1.82535   1.83103   1.83658   1.83745   1.84794
 Alpha virt. eigenvalues --    1.85116   1.85463   1.86290   1.86557   1.86573
 Alpha virt. eigenvalues --    1.87198   1.87484   1.87627   1.88202   1.88243
 Alpha virt. eigenvalues --    1.88603   1.88973   1.89040   1.89723   1.89727
 Alpha virt. eigenvalues --    1.90321   1.90607   1.91588   1.92105   1.92453
 Alpha virt. eigenvalues --    1.93003   1.93020   1.93486   1.93865   1.94066
 Alpha virt. eigenvalues --    1.94276   1.94581   1.95017   1.95319   1.95433
 Alpha virt. eigenvalues --    1.95776   1.96456   1.96539   1.96921   1.97045
 Alpha virt. eigenvalues --    1.97629   1.97846   1.98039   1.98389   1.98602
 Alpha virt. eigenvalues --    1.98795   1.99305   1.99668   1.99793   2.00080
 Alpha virt. eigenvalues --    2.00192   2.00666   2.00779   2.01252   2.01463
 Alpha virt. eigenvalues --    2.01488   2.01829   2.02469   2.02639   2.03098
 Alpha virt. eigenvalues --    2.03355   2.03521   2.03869   2.04256   2.04375
 Alpha virt. eigenvalues --    2.04714   2.05127   2.05709   2.05787   2.06686
 Alpha virt. eigenvalues --    2.06889   2.06967   2.07206   2.07525   2.07798
 Alpha virt. eigenvalues --    2.08264   2.08539   2.08881   2.09263   2.09588
 Alpha virt. eigenvalues --    2.10322   2.10426   2.10572   2.11326   2.11604
 Alpha virt. eigenvalues --    2.11882   2.12549   2.12772   2.12915   2.13903
 Alpha virt. eigenvalues --    2.14467   2.14593   2.14945   2.15152   2.15464
 Alpha virt. eigenvalues --    2.15618   2.16033   2.16739   2.17377   2.17696
 Alpha virt. eigenvalues --    2.18440   2.18586   2.18832   2.19769   2.19971
 Alpha virt. eigenvalues --    2.20368   2.20885   2.20944   2.21261   2.21982
 Alpha virt. eigenvalues --    2.22027   2.22345   2.22999   2.23364   2.23948
 Alpha virt. eigenvalues --    2.24036   2.24765   2.25141   2.25647   2.25914
 Alpha virt. eigenvalues --    2.26301   2.26834   2.27108   2.27381   2.27715
 Alpha virt. eigenvalues --    2.28171   2.28510   2.28792   2.29266   2.29821
 Alpha virt. eigenvalues --    2.30223   2.30332   2.30700   2.31364   2.31655
 Alpha virt. eigenvalues --    2.32145   2.32629   2.33280   2.33471   2.33932
 Alpha virt. eigenvalues --    2.34465   2.34710   2.35958   2.36197   2.36939
 Alpha virt. eigenvalues --    2.37141   2.37532   2.38051   2.39537   2.39677
 Alpha virt. eigenvalues --    2.40194   2.40775   2.41381   2.41977   2.42572
 Alpha virt. eigenvalues --    2.42784   2.43405   2.43899   2.44407   2.44665
 Alpha virt. eigenvalues --    2.45158   2.45801   2.46425   2.46883   2.47218
 Alpha virt. eigenvalues --    2.48135   2.48430   2.49055   2.49414   2.49770
 Alpha virt. eigenvalues --    2.50461   2.50690   2.51441   2.51623   2.51892
 Alpha virt. eigenvalues --    2.52615   2.53058   2.53305   2.53544   2.54076
 Alpha virt. eigenvalues --    2.54393   2.54768   2.55318   2.55747   2.55887
 Alpha virt. eigenvalues --    2.56298   2.56666   2.56913   2.57081   2.57381
 Alpha virt. eigenvalues --    2.57840   2.58050   2.58267   2.58815   2.59248
 Alpha virt. eigenvalues --    2.59465   2.59795   2.60165   2.60520   2.60959
 Alpha virt. eigenvalues --    2.61236   2.61533   2.61860   2.61922   2.62639
 Alpha virt. eigenvalues --    2.62911   2.63726   2.63950   2.64209   2.64354
 Alpha virt. eigenvalues --    2.64658   2.64890   2.64934   2.65604   2.65840
 Alpha virt. eigenvalues --    2.66242   2.66532   2.67013   2.67171   2.67461
 Alpha virt. eigenvalues --    2.67689   2.68306   2.68854   2.69087   2.69180
 Alpha virt. eigenvalues --    2.69914   2.70098   2.70609   2.70715   2.71592
 Alpha virt. eigenvalues --    2.71760   2.72125   2.72263   2.72743   2.72891
 Alpha virt. eigenvalues --    2.73855   2.74304   2.74462   2.74667   2.75386
 Alpha virt. eigenvalues --    2.75604   2.76005   2.76665   2.77450   2.77687
 Alpha virt. eigenvalues --    2.78081   2.78387   2.79057   2.79389   2.79617
 Alpha virt. eigenvalues --    2.80309   2.80387   2.80814   2.81020   2.82093
 Alpha virt. eigenvalues --    2.82123   2.82445   2.82864   2.83061   2.83675
 Alpha virt. eigenvalues --    2.84667   2.84832   2.85226   2.85899   2.86961
 Alpha virt. eigenvalues --    2.87075   2.87376   2.88170   2.88452   2.88764
 Alpha virt. eigenvalues --    2.89540   2.89811   2.90101   2.90410   2.90832
 Alpha virt. eigenvalues --    2.91106   2.91779   2.92158   2.92691   2.92969
 Alpha virt. eigenvalues --    2.93563   2.93903   2.94498   2.94991   2.95796
 Alpha virt. eigenvalues --    2.96945   2.97636   2.98744   2.99417   3.00070
 Alpha virt. eigenvalues --    3.00807   3.01907   3.02205   3.03872   3.05710
 Alpha virt. eigenvalues --    3.06602   3.08517   3.09024   3.09777   3.10864
 Alpha virt. eigenvalues --    3.11723   3.12833   3.14908   3.15774   3.16451
 Alpha virt. eigenvalues --    3.17178   3.18335   3.20720   3.21915   3.25072
 Alpha virt. eigenvalues --    3.25845   3.27545   3.29198   3.30429   3.31893
 Alpha virt. eigenvalues --    3.33070   3.33554   3.34746   3.37262   3.39404
 Alpha virt. eigenvalues --    3.42459   3.43126   3.44121   3.46738   3.49777
 Alpha virt. eigenvalues --    3.50079   3.52591   3.55065   3.56039   3.57889
 Alpha virt. eigenvalues --    4.00741   4.00966   4.01857   4.02559   4.03423
 Alpha virt. eigenvalues --    4.03685   4.04011   4.04985   4.05370   4.06205
 Alpha virt. eigenvalues --    4.06465   4.06848   4.07336   4.07941   4.09261
 Alpha virt. eigenvalues --    4.09835   4.10092   4.10400   4.11300   4.11824
 Alpha virt. eigenvalues --    4.12886   4.13518   4.14007   4.15649   4.16896
 Alpha virt. eigenvalues --    4.17892   4.18239   4.18774   4.19520   4.20128
 Alpha virt. eigenvalues --    4.20827   4.21423   4.22053   4.23011   4.23990
 Alpha virt. eigenvalues --    4.25120   4.26154   4.26870   4.27438   4.27804
 Alpha virt. eigenvalues --    4.28154   4.28282   4.29146   4.29933   4.30757
 Alpha virt. eigenvalues --    4.31641   4.32148   4.33559   4.35270   4.36708
 Alpha virt. eigenvalues --    4.37673   4.39250   4.40312   4.41098   4.41375
 Alpha virt. eigenvalues --    4.42123   4.43982   4.44384   4.46848   4.47733
 Alpha virt. eigenvalues --    4.48321   4.49082   4.50796   4.53642   4.55785
 Alpha virt. eigenvalues --    4.56562   4.57255   4.58642   4.58806   4.60054
 Alpha virt. eigenvalues --    4.62501   4.65357   4.65977   4.66918   4.68347
 Alpha virt. eigenvalues --    4.71530   4.77216   4.80369   4.81128   4.81589
 Alpha virt. eigenvalues --    4.83884   4.86900   4.89705   4.92928   4.93803
 Alpha virt. eigenvalues --    5.01777   5.04157   5.07573   5.09213   5.15065
 Alpha virt. eigenvalues --    5.18756   5.22279
          Condensed to atoms (all electrons):
 Mulliken charges:
               1
     1  C    0.002817
     2  C   -0.360418
     3  C    0.004801
     4  C   -0.018278
     5  C    0.043552
     6  C    0.065006
     7  C    0.007943
     8  C   -0.014078
     9  C    0.037964
    10  C    0.041248
    11  C    0.001869
    12  C    0.049995
    13  C   -0.000542
    14  C   -0.028938
    15  C    0.017722
    16  C   -0.022188
    17  C    0.013648
    18  C    0.049535
    19  C    0.094979
    20  C    0.049134
    21  C   -0.374705
    22  C    0.008478
    23  C    0.088449
    24  C    0.087857
    25  C    0.090807
    26  C    0.087635
    27  C    0.009321
    28  C   -0.374038
    29  C    0.042984
    30  C    0.088693
    31  C   -0.022309
    32  C    0.090756
    33  C   -0.023749
    34  C   -0.000099
    35  C    0.037262
    36  C    0.036753
    37  C    0.069627
    38  C    0.048174
    39  C    0.122386
    40  C    0.079651
    41  C    0.002212
    42  C    0.048201
    43  C    0.078303
    44  C    0.120449
    45  C    0.045504
    46  C   -0.025986
    47  C    0.061337
    48  C    0.040945
    49  C   -0.016451
    50  C   -0.019811
    51  C    0.074408
    52  C    0.003877
    53  C    0.087682
    54  C   -0.013134
    55  C   -0.355057
    56  C   -0.033145
    57  C    0.120199
    58  C    0.007265
    59  C    0.148248
    60  C    0.079234
    61  C   -0.381938
    62  C   -0.380012
    63  C    0.079344
    64  C    0.143995
    65  C    0.002190
    66  C    0.126530
    67  C    0.078952
    68  C    0.101298
    69  C   -0.037676
    70  C   -0.357135
    71  C    0.006375
    72  C    0.081983
    73  C   -0.011682
    74  C    0.026226
    75  C    0.004358
    76  C   -0.011555
    77  C   -0.045672
    78  C   -0.019471
    79  C   -0.363781
    80  C    0.013648
    81  C    0.005674
    82  C    0.073612
    83  C    0.098179
    84  C    0.084162
    85  Cl   0.009612
    86  Cl  -0.009169
    87  Cl  -0.007843
    88  Cl  -0.012841
    89  Cl   0.012289
    90  Cl   0.006862
    91  Cl   0.005369
    92  Cl  -0.005867
 Sum of Mulliken charges =  -0.00000
 Mulliken charges with hydrogens summed into heavy atoms:
               1
     1  C    0.002817
     2  C   -0.360418
     3  C    0.004801
     4  C   -0.018278
     5  C    0.043552
     6  C    0.065006
     7  C    0.007943
     8  C   -0.014078
     9  C    0.037964
    10  C    0.041248
    11  C    0.001869
    12  C    0.049995
    13  C   -0.000542
    14  C   -0.028938
    15  C    0.017722
    16  C   -0.022188
    17  C    0.013648
    18  C    0.049535
    19  C    0.094979
    20  C    0.049134
    21  C   -0.374705
    22  C    0.008478
    23  C    0.088449
    24  C    0.087857
    25  C    0.090807
    26  C    0.087635
    27  C    0.009321
    28  C   -0.374038
    29  C    0.042984
    30  C    0.088693
    31  C   -0.022309
    32  C    0.090756
    33  C   -0.023749
    34  C   -0.000099
    35  C    0.037262
    36  C    0.036753
    37  C    0.069627
    38  C    0.048174
    39  C    0.122386
    40  C    0.079651
    41  C    0.002212
    42  C    0.048201
    43  C    0.078303
    44  C    0.120449
    45  C    0.045504
    46  C   -0.025986
    47  C    0.061337
    48  C    0.040945
    49  C   -0.016451
    50  C   -0.019811
    51  C    0.074408
    52  C    0.003877
    53  C    0.087682
    54  C   -0.013134
    55  C   -0.355057
    56  C   -0.033145
    57  C    0.120199
    58  C    0.007265
    59  C    0.148248
    60  C    0.079234
    61  C   -0.381938
    62  C   -0.380012
    63  C    0.079344
    64  C    0.143995
    65  C    0.002190
    66  C    0.126530
    67  C    0.078952
    68  C    0.101298
    69  C   -0.037676
    70  C   -0.357135
    71  C    0.006375
    72  C    0.081983
    73  C   -0.011682
    74  C    0.026226
    75  C    0.004358
    76  C   -0.011555
    77  C   -0.045672
    78  C   -0.019471
    79  C   -0.363781
    80  C    0.013648
    81  C    0.005674
    82  C    0.073612
    83  C    0.098179
    84  C    0.084162
    85  Cl   0.009612
    86  Cl  -0.009169
    87  Cl  -0.007843
    88  Cl  -0.012841
    89  Cl   0.012289
    90  Cl   0.006862
    91  Cl   0.005369
    92  Cl  -0.005867
 Electronic spatial extent (au):  <R**2>=          52360.1261
 Charge=             -0.0000 electrons
 Dipole moment (field-independent basis, Debye):
    X=             -1.3746    Y=             -3.3907    Z=              1.3574  Tot=              3.9025
 Quadrupole moment (field-independent basis, Debye-Ang):
   XX=           -606.1234   YY=           -580.1994   ZZ=           -547.2560
   XY=             -4.2952   XZ=              1.0956   YZ=             -1.0226
 Traceless Quadrupole moment (field-independent basis, Debye-Ang):
   XX=            -28.2638   YY=             -2.3398   ZZ=             30.6036
   XY=             -4.2952   XZ=              1.0956   YZ=             -1.0226
 Octapole moment (field-independent basis, Debye-Ang**2):
  XXX=             26.2255  YYY=            -62.6957  ZZZ=            -18.4880  XYY=             14.7208
  XXY=             61.7249  XXZ=             13.4125  XZZ=              0.2275  YZZ=             12.4464
  YYZ=             15.0890  XYZ=              9.4590
 Hexadecapole moment (field-independent basis, Debye-Ang**3):
 XXXX=         -31975.4171 YYYY=         -26965.8050 ZZZZ=         -17237.9007 XXXY=            -28.6804
 XXXZ=           -131.2776 YYYX=            112.1142 YYYZ=            -12.7417 ZZZX=             29.8540
 ZZZY=            -11.5296 XXYY=          -9831.2070 XXZZ=          -7974.6791 YYZZ=          -7352.2239
 XXYZ=            -84.1938 YYXZ=             78.6763 ZZXY=             34.0739
 N-N= 2.044072942629D+04 E-N=-5.703006985220D+04  KE= 6.841402373014D+03
 No NMR shielding tensors so no spin-rotation constants.
 Leave Link  601 at Wed Jun 29 14:44:08 2022, MaxMem=  1342177280 cpu:              24.3 elap:               1.2
 (Enter /home/mkliu/g16/l9999.exe)
 1\1\GINC-NODE04\FOpt\RB3LYP\6-31G(d,p)\C84Cl8\MKLIU\29-Jun-2022\0\\#P 
 opt b3lyp/6-31G(d, p) empiricaldispersion=GD3\\force\\0,1\C,8.51591647
 69,18.9214430214,10.756602131\C,12.6068370788,19.9742853713,8.83608772
 55\C,8.2544665987,26.8719286441,10.5329519631\C,12.3112580358,25.59830
 31928,8.9517793393\C,8.0314565582,19.1261542839,9.4408890847\C,12.0787
 27643,19.4822541387,10.1607641772\C,7.9482609355,26.8404438769,9.13791
 04955\C,11.8705979982,26.1663343525,10.2039953483\C,8.9973979969,19.21
 7577492,8.3385646717\C,12.3182040277,20.1440388125,11.3405144099\C,12.
 1326246063,25.502740092,11.3721082004\C,8.9647107529,26.674560827,8.15
 1201855\C,10.3605960448,19.0644661442,8.6428511078\C,10.2979456775,26.
 7428842462,8.6247408158\C,10.8256831312,18.8430303769,9.9835743637\C,1
 0.6062581511,26.8509674753,10.0013816746\C,9.9115352638,18.7892630325,
 11.0344054932\C,9.5899634065,26.8034451499,11.0003942222\C,10.21406342
 36,19.3932133059,12.2917499314\C,9.8483718475,26.0717744078,12.2311534
 928\C,8.9315442881,19.8231331089,12.9801703653\C,8.7564783369,25.43434
 19011,12.8538666648\C,7.8962865735,19.5084175483,11.9093415256\C,7.409
 5159594,25.5614559979,12.3774742888\C,6.755270066,20.2306474373,11.766
 3001865\C,7.1599684453,26.2679234922,11.2472373321\C,6.1789812243,20.3
 718940793,10.4762851508\C,6.0192812429,25.9368647251,10.3032413491\C,6
 .7653470778,19.8060415474,9.3224662006\C,6.6411307315,26.2886044115,8.
 967761949\C,6.4081462045,20.4014926052,8.0850902674\C,6.3427567067,25.
 626003948,7.8265627568\C,7.333481926,20.38552853,6.9551051876\C,7.3285
 480705,25.4759684738,6.7916407074\C,8.6671256046,19.9395760681,7.11867
 30078\C,8.6672530111,25.9198920131,6.9472145265\C,9.7223078346,20.6117
 367694,6.3601794671\C,9.7317877938,25.1719772993,6.2725440938\C,11.088
 444612,20.5639238499,6.8534690614\C,12.8430228992,22.1500690868,7.7165
 221183\C,12.7803520194,23.5850106426,7.7263065644\C,11.0746709769,25.1
 767951813,6.8439333851\C,11.3820431921,19.7776043364,7.9288757858\C,13
 .0258314112,21.4363220087,8.867907764\C,12.9578173141,24.3264602469,8.
 9139111171\C,11.3530742915,25.9748973125,7.970607234\C,13.2303400118,2
 2.1492645586,10.1276496348\C,13.2109543996,23.6003845719,10.1446577257
 \C,12.9297328629,21.4688037406,11.3384012622\C,12.8655305862,24.253515
 4745,11.3621714407\C,12.4690547778,22.1472393926,12.4851531983\C,12.41
 00932371,23.5181851563,12.48427829\C,11.3908475538,20.0700565019,12.43
 50353351\C,11.1265167706,25.4528339036,12.4290192259\C,11.4954723287,2
 1.3053076348,13.2994112353\C,11.2764684618,24.2191729522,13.0898564358
 \C,8.9336307964,21.3302017808,13.2883877799\C,8.9006576719,24.13201919
 56,13.4400068303\C,7.6880110203,22.0491874928,13.1957390495\C,7.685731
 47,23.420946413,13.3086875199\C,6.4246701146,21.4236396297,12.63048518
 55\C,6.5901529812,24.3584366078,12.7811337154\C,5.7730594155,22.360132
 8728,11.6020389865\C,5.8848145629,23.7349452393,11.589353912\C,5.52872
 09589,21.653820511,10.4051451414\C,5.6614967957,24.4451446985,10.36055
 20735\C,5.3092843072,22.3185105992,9.1812025756\C,5.3491365912,23.7554
 040055,9.1779836004\C,5.6066926927,21.5596199604,8.001220157\C,5.36205
 87573,24.4700531131,7.8196701113\C,5.9459368552,22.2368506724,6.761783
 4416\C,5.93522523,23.6032776838,6.7057632317\C,7.003781001,21.48132570
 48,6.1162636297\C,7.0111836442,24.2944266074,6.0483512199\C,8.01826255
 39,22.141073919,5.4200371404\C,8.021073311,23.5926573924,5.3992394794\
 C,9.3581093588,21.6829395416,5.5036324964\C,9.3735074591,24.0505148686
 ,5.4900314284\C,12.1150022844,21.6223985443,6.476973375\C,11.903396678
 2,24.023736913,6.6884287296\C,10.2178545337,22.8703279188,5.416577119\
 C,11.4599211991,22.8798228777,5.9647596835\C,10.142484983,22.016576094
 4,13.4525346682\C,10.1426412694,23.4585255979,13.5060265785\Cl,8.63072
 81135,18.8853978043,14.5389416986\Cl,12.1765822838,20.9267708192,14.98
 19578129\Cl,13.3072641303,20.9593272556,5.217309368\Cl,14.0303142488,1
 8.9067666667,8.2869884285\Cl,5.2483072834,20.9833916653,13.9809225973\
 Cl,5.379094124,24.7827513425,14.1115260366\Cl,4.5196662817,26.95038553
 79,10.6705841279\Cl,3.6412612087,25.0075295505,7.3827929001\\Version=E
 S64L-G16RevA.03\State=1-A\HF=-6882.6267124\RMSD=5.153e-09\RMSF=7.341e-
 05\Dipole=0.6802551,0.6516914,-1.2123643\Quadrupole=-8.9712968,11.4186
 286,-2.4473318,17.0068507,9.5288377,2.0308321\PG=C01 [X(C84Cl8)]\\@


 THE MOST SERIOUS THREAT TO THE SURVIVAL OF MANKIND IS NOT NOW
 IGNORANCE IN THE TRADITIONAL SENSE,
 BUT A MORALLY NEUTRAL, AN INSENSITIVE OR INHIBITED HUMAN INTELLIGENCE.

                     -- MARGO JEFFERSON IN NEWSWEEK, SEPTEMBER 2, 1974
 Job cpu time:       1 days  2 hours 36 minutes 55.3 seconds.
 Elapsed time:       0 days  1 hours  6 minutes 38.2 seconds.
 File lengths (MBytes):  RWF=   1225 Int=      0 D2E=      0 Chk=    154 Scr=      1
 Normal termination of Gaussian 16 at Wed Jun 29 14:44:10 2022.
