 Entering Gaussian System, Link 0=g16
 Input=8_addons_C84_11_Cl22_rank_4.gjf
 Output=8_addons_C84_11_Cl22_rank_4.log
 Initial command:
 /home/mkliu/g16/l1.exe "/data/scratch/Gau-55927.inp" -scrdir="/data/scratch/"
 Entering Link 1 = /home/mkliu/g16/l1.exe PID=     55928.
  
 Copyright (c) 1988,1990,1992,1993,1995,1998,2003,2009,2016,
            Gaussian, Inc.  All Rights Reserved.
  
 This is part of the Gaussian(R) 16 program.  It is based on
 the Gaussian(R) 09 system (copyright 2009, Gaussian, Inc.),
 the Gaussian(R) 03 system (copyright 2003, Gaussian, Inc.),
 the Gaussian(R) 98 system (copyright 1998, Gaussian, Inc.),
 the Gaussian(R) 94 system (copyright 1995, Gaussian, Inc.),
 the Gaussian 92(TM) system (copyright 1992, Gaussian, Inc.),
 the Gaussian 90(TM) system (copyright 1990, Gaussian, Inc.),
 the Gaussian 88(TM) system (copyright 1988, Gaussian, Inc.),
 the Gaussian 86(TM) system (copyright 1986, Carnegie Mellon
 University), and the Gaussian 82(TM) system (copyright 1983,
 Carnegie Mellon University). Gaussian is a federally registered
 trademark of Gaussian, Inc.
  
 This software contains proprietary and confidential information,
 including trade secrets, belonging to Gaussian, Inc.
  
 This software is provided under written license and may be
 used, copied, transmitted, or stored only in accord with that
 written license.
  
 The following legend is applicable only to US Government
 contracts under FAR:
  
                    RESTRICTED RIGHTS LEGEND
  
 Use, reproduction and disclosure by the US Government is
 subject to restrictions as set forth in subparagraphs (a)
 and (c) of the Commercial Computer Software - Restricted
 Rights clause in FAR 52.227-19.
  
 Gaussian, Inc.
 340 Quinnipiac St., Bldg. 40, Wallingford CT 06492
  
  
 ---------------------------------------------------------------
 Warning -- This program may not be used in any manner that
 competes with the business of Gaussian, Inc. or will provide
 assistance to any competitor of Gaussian, Inc.  The licensee
 of this program is prohibited from giving any competitor of
 Gaussian, Inc. access to this program.  By using this program,
 the user acknowledges that Gaussian, Inc. is engaged in the
 business of creating and licensing software in the field of
 computational chemistry and represents and warrants to the
 licensee that it is not a competitor of Gaussian, Inc. and that
 it will not use this program in any manner prohibited above.
 ---------------------------------------------------------------
  

 Cite this work as:
 Gaussian 16, Revision A.03,
 M. J. Frisch, G. W. Trucks, H. B. Schlegel, G. E. Scuseria, 
 M. A. Robb, J. R. Cheeseman, G. Scalmani, V. Barone, 
 G. A. Petersson, H. Nakatsuji, X. Li, M. Caricato, A. V. Marenich, 
 J. Bloino, B. G. Janesko, R. Gomperts, B. Mennucci, H. P. Hratchian, 
 J. V. Ortiz, A. F. Izmaylov, J. L. Sonnenberg, D. Williams-Young, 
 F. Ding, F. Lipparini, F. Egidi, J. Goings, B. Peng, A. Petrone, 
 T. Henderson, D. Ranasinghe, V. G. Zakrzewski, J. Gao, N. Rega, 
 G. Zheng, W. Liang, M. Hada, M. Ehara, K. Toyota, R. Fukuda, 
 J. Hasegawa, M. Ishida, T. Nakajima, Y. Honda, O. Kitao, H. Nakai, 
 T. Vreven, K. Throssell, J. A. Montgomery, Jr., J. E. Peralta, 
 F. Ogliaro, M. J. Bearpark, J. J. Heyd, E. N. Brothers, K. N. Kudin, 
 V. N. Staroverov, T. A. Keith, R. Kobayashi, J. Normand, 
 K. Raghavachari, A. P. Rendell, J. C. Burant, S. S. Iyengar, 
 J. Tomasi, M. Cossi, J. M. Millam, M. Klene, C. Adamo, R. Cammi, 
 J. W. Ochterski, R. L. Martin, K. Morokuma, O. Farkas, 
 J. B. Foresman, and D. J. Fox, Gaussian, Inc., Wallingford CT, 2016.
 
 ******************************************
 Gaussian 16:  ES64L-G16RevA.03 25-Dec-2016
                28-Jun-2022 
 ******************************************
 %mem=10GB
 %chk=8_addons_C84_11_Cl22_rank_4.chk
 %nprocshared=24
 Will use up to   24 processors via shared memory.
 ------------------------------------------------
 #P opt b3lyp/6-31G(d, p) empiricaldispersion=GD3
 ------------------------------------------------
 1/18=20,19=15,26=3,38=1/1,3;
 2/9=110,12=2,17=6,18=5,40=1/2;
 3/5=1,6=6,7=101,11=2,25=1,30=1,71=1,74=-5,124=31/1,2,3;
 4//1;
 5/5=2,38=5/2;
 6/7=2,8=2,9=2,10=2,28=1/1;
 7//1,2,3,16;
 1/18=20,19=15,26=3/3(2);
 2/9=110/2;
 99//99;
 2/9=110/2;
 3/5=1,6=6,7=101,11=2,25=1,30=1,71=1,74=-5,124=31/1,2,3;
 4/5=5,16=3,69=1/1;
 5/5=2,38=5/2;
 7//1,2,3,16;
 1/18=20,19=15,26=3/3(-5);
 2/9=110/2;
 6/7=2,8=2,9=2,10=2,19=2,28=1/1;
 99/9=1/99;
 Leave Link    1 at Tue Jun 28 23:30:16 2022, MaxMem=  1342177280 cpu:               0.6 elap:               0.1
 (Enter /home/mkliu/g16/l101.exe)
 -----
 force
 -----
 Symbolic Z-matrix:
 Charge =  0 Multiplicity = 1
 C                     8.49318   18.87927   10.75435 
 C                     12.36093   20.1528   8.95183 
 C                     8.25862   26.81297   10.51868 
 C                     12.489    25.74092   8.90666 
 C                     8.02817   19.10101   9.44153 
 C                     12.04236   19.51027   10.19928 
 C                     7.95172   26.79006   9.13398 
 C                     11.87584   26.15486   10.21134 
 C                     8.99303   19.1953   8.36082 
 C                     12.33217   20.1323   11.38414 
 C                     12.13299   25.50358   11.37388 
 C                     8.95639   26.60137   8.15519 
 C                     10.3446   19.034    8.68287 
 C                     10.28383   26.64341   8.61972 
 C                     10.79707   18.81362   10.01866 
 C                     10.60053   26.7487   9.99626 
 C                     9.87942   18.74934   11.04816 
 C                     9.58786   26.72891   10.98205 
 C                     10.15531   19.43475   12.28177 
 C                     9.8459    26.01381   12.19239 
 C                     8.94671   19.99056   12.77366 
 C                     8.75461   25.38853   12.83721 
 C                     7.894     19.52689   11.89212 
 C                     7.41951   25.52192   12.36283 
 C                     6.73893   20.23571   11.75086 
 C                     7.16952   26.22834   11.23134 
 C                     6.17752   20.36307   10.46406 
 C                     6.0319    25.90855   10.2993 
 C                     6.7781    19.79382   9.32214 
 C                     6.64877   26.25093   8.9736 
 C                     6.44087   20.39851   8.09725 
 C                     6.34926   25.5884   7.83192 
 C                     7.3582    20.37813   6.9846 
 C                     7.32478   25.44187   6.80383 
 C                     8.67171   19.92364   7.14154 
 C                     8.66431   25.86326   6.96633 
 C                     9.7123    20.60117   6.38928 
 C                     9.71916   25.13092   6.30604 
 C                     11.05256   20.60291   6.89979 
 C                     12.71662   22.19205   7.77572 
 C                     12.74813   23.59795   7.77014 
 C                     11.05176   25.16829   6.85737 
 C                     11.3647   19.80498   8.01587 
 C                     12.92218   21.45769   8.95215 
 C                     12.89481   24.28889   8.94685 
 C                     11.32065   25.93645   7.9542 
 C                     13.16104   22.17583   10.16042 
 C                     13.11653   23.56855   10.15524 
 C                     13.16706   21.38723   11.46143 
 C                     13.07741   24.33553   11.46806 
 C                     12.43525   22.15427   12.52678 
 C                     12.39745   23.50728   12.52014 
 C                     11.35388   20.12962   12.41851 
 C                     11.1071   25.40579   12.3607 
 C                     11.34316   21.40301   13.04931 
 C                     11.24998   24.1655   13.03404 
 C                     8.8942    21.29361   13.31038 
 C                     8.89189   24.1121   13.43565 
 C                     7.66299   22.03718   13.19883 
 C                     7.67069   23.39909   13.30153 
 C                     6.4189    21.42513   12.60684 
 C                     6.59822   24.33309   12.76494 
 C                     5.80387   22.35405   11.58019 
 C                     5.92441   23.72107   11.56238 
 C                     5.5615    21.65072   10.38681 
 C                     5.70053   24.42484   10.34466 
 C                     5.34715   22.31735   9.17224 
 C                     5.38658   23.74253   9.17096 
 C                     5.64015   21.55633   8.00917 
 C                     5.36982   24.44843   7.82336 
 C                     5.96233   22.22674   6.77741 
 C                     5.93084   23.59408   6.71285 
 C                     7.02072   21.48399   6.14746 
 C                     6.99728   24.27561   6.06077 
 C                     8.01552   22.14246   5.45256 
 C                     8.01528   23.57991   5.41442 
 C                     9.35981   21.6894   5.56442 
 C                     9.35546   24.03742   5.49316 
 C                     11.87397   21.73431   6.71558 
 C                     12.08036   24.1207   6.51475 
 C                     10.19465   22.8567   5.4487 
 C                     11.44302   22.86646   5.99461 
 C                     10.13734   22.01137   13.46669 
 C                     10.12666   23.44049   13.49829 
 Cl                    13.90003   26.76525   8.43953 
 Cl                    13.2941   24.80384   5.35931 
 Cl                    14.75453   24.82537   11.91323 
 Cl                    14.88265   21.01964   11.90538 
 Cl                    4.54134   26.85546   10.66325 
 Cl                    5.37108   24.72479   14.02948 
 Cl                    5.24216   21.02695   13.92276 
 Cl                    3.67472   24.97373   7.46822 
 
 ITRead=  0  0  0  0  0  0  0  0  0  0  0  0  0  0  0  0  0  0  0  0
 ITRead=  0  0  0  0  0  0  0  0  0  0  0  0  0  0  0  0  0  0  0  0
 ITRead=  0  0  0  0  0  0  0  0  0  0  0  0  0  0  0  0  0  0  0  0
 ITRead=  0  0  0  0  0  0  0  0  0  0  0  0  0  0  0  0  0  0  0  0
 ITRead=  0  0  0  0  0  0  0  0  0  0  0  0
 MicOpt= -1 -1 -1 -1 -1 -1 -1 -1 -1 -1 -1 -1 -1 -1 -1 -1 -1 -1 -1 -1
 MicOpt= -1 -1 -1 -1 -1 -1 -1 -1 -1 -1 -1 -1 -1 -1 -1 -1 -1 -1 -1 -1
 MicOpt= -1 -1 -1 -1 -1 -1 -1 -1 -1 -1 -1 -1 -1 -1 -1 -1 -1 -1 -1 -1
 MicOpt= -1 -1 -1 -1 -1 -1 -1 -1 -1 -1 -1 -1 -1 -1 -1 -1 -1 -1 -1 -1
 MicOpt= -1 -1 -1 -1 -1 -1 -1 -1 -1 -1 -1 -1
 NAtoms=     92 NQM=       92 NQMF=       0 NMMI=      0 NMMIF=      0
                NMic=       0 NMicF=      0.
                    Isotopes and Nuclear Properties:
 (Nuclear quadrupole moments (NQMom) in fm**2, nuclear magnetic moments (NMagM)
  in nuclear magnetons)

  Atom         1           2           3           4           5           6           7           8           9          10
 IAtWgt=          12          12          12          12          12          12          12          12          12          12
 AtmWgt=  12.0000000  12.0000000  12.0000000  12.0000000  12.0000000  12.0000000  12.0000000  12.0000000  12.0000000  12.0000000
 NucSpn=           0           0           0           0           0           0           0           0           0           0
 AtZEff=  -0.0000000  -0.0000000  -0.0000000  -0.0000000  -0.0000000  -0.0000000  -0.0000000  -0.0000000  -0.0000000  -0.0000000
 NQMom=    0.0000000   0.0000000   0.0000000   0.0000000   0.0000000   0.0000000   0.0000000   0.0000000   0.0000000   0.0000000
 NMagM=    0.0000000   0.0000000   0.0000000   0.0000000   0.0000000   0.0000000   0.0000000   0.0000000   0.0000000   0.0000000
 AtZNuc=   6.0000000   6.0000000   6.0000000   6.0000000   6.0000000   6.0000000   6.0000000   6.0000000   6.0000000   6.0000000

  Atom        11          12          13          14          15          16          17          18          19          20
 IAtWgt=          12          12          12          12          12          12          12          12          12          12
 AtmWgt=  12.0000000  12.0000000  12.0000000  12.0000000  12.0000000  12.0000000  12.0000000  12.0000000  12.0000000  12.0000000
 NucSpn=           0           0           0           0           0           0           0           0           0           0
 AtZEff=  -0.0000000  -0.0000000  -0.0000000  -0.0000000  -0.0000000  -0.0000000  -0.0000000  -0.0000000  -0.0000000  -0.0000000
 NQMom=    0.0000000   0.0000000   0.0000000   0.0000000   0.0000000   0.0000000   0.0000000   0.0000000   0.0000000   0.0000000
 NMagM=    0.0000000   0.0000000   0.0000000   0.0000000   0.0000000   0.0000000   0.0000000   0.0000000   0.0000000   0.0000000
 AtZNuc=   6.0000000   6.0000000   6.0000000   6.0000000   6.0000000   6.0000000   6.0000000   6.0000000   6.0000000   6.0000000

  Atom        21          22          23          24          25          26          27          28          29          30
 IAtWgt=          12          12          12          12          12          12          12          12          12          12
 AtmWgt=  12.0000000  12.0000000  12.0000000  12.0000000  12.0000000  12.0000000  12.0000000  12.0000000  12.0000000  12.0000000
 NucSpn=           0           0           0           0           0           0           0           0           0           0
 AtZEff=  -0.0000000  -0.0000000  -0.0000000  -0.0000000  -0.0000000  -0.0000000  -0.0000000  -0.0000000  -0.0000000  -0.0000000
 NQMom=    0.0000000   0.0000000   0.0000000   0.0000000   0.0000000   0.0000000   0.0000000   0.0000000   0.0000000   0.0000000
 NMagM=    0.0000000   0.0000000   0.0000000   0.0000000   0.0000000   0.0000000   0.0000000   0.0000000   0.0000000   0.0000000
 AtZNuc=   6.0000000   6.0000000   6.0000000   6.0000000   6.0000000   6.0000000   6.0000000   6.0000000   6.0000000   6.0000000

  Atom        31          32          33          34          35          36          37          38          39          40
 IAtWgt=          12          12          12          12          12          12          12          12          12          12
 AtmWgt=  12.0000000  12.0000000  12.0000000  12.0000000  12.0000000  12.0000000  12.0000000  12.0000000  12.0000000  12.0000000
 NucSpn=           0           0           0           0           0           0           0           0           0           0
 AtZEff=  -0.0000000  -0.0000000  -0.0000000  -0.0000000  -0.0000000  -0.0000000  -0.0000000  -0.0000000  -0.0000000  -0.0000000
 NQMom=    0.0000000   0.0000000   0.0000000   0.0000000   0.0000000   0.0000000   0.0000000   0.0000000   0.0000000   0.0000000
 NMagM=    0.0000000   0.0000000   0.0000000   0.0000000   0.0000000   0.0000000   0.0000000   0.0000000   0.0000000   0.0000000
 AtZNuc=   6.0000000   6.0000000   6.0000000   6.0000000   6.0000000   6.0000000   6.0000000   6.0000000   6.0000000   6.0000000

  Atom        41          42          43          44          45          46          47          48          49          50
 IAtWgt=          12          12          12          12          12          12          12          12          12          12
 AtmWgt=  12.0000000  12.0000000  12.0000000  12.0000000  12.0000000  12.0000000  12.0000000  12.0000000  12.0000000  12.0000000
 NucSpn=           0           0           0           0           0           0           0           0           0           0
 AtZEff=  -0.0000000  -0.0000000  -0.0000000  -0.0000000  -0.0000000  -0.0000000  -0.0000000  -0.0000000  -0.0000000  -0.0000000
 NQMom=    0.0000000   0.0000000   0.0000000   0.0000000   0.0000000   0.0000000   0.0000000   0.0000000   0.0000000   0.0000000
 NMagM=    0.0000000   0.0000000   0.0000000   0.0000000   0.0000000   0.0000000   0.0000000   0.0000000   0.0000000   0.0000000
 AtZNuc=   6.0000000   6.0000000   6.0000000   6.0000000   6.0000000   6.0000000   6.0000000   6.0000000   6.0000000   6.0000000

  Atom        51          52          53          54          55          56          57          58          59          60
 IAtWgt=          12          12          12          12          12          12          12          12          12          12
 AtmWgt=  12.0000000  12.0000000  12.0000000  12.0000000  12.0000000  12.0000000  12.0000000  12.0000000  12.0000000  12.0000000
 NucSpn=           0           0           0           0           0           0           0           0           0           0
 AtZEff=  -0.0000000  -0.0000000  -0.0000000  -0.0000000  -0.0000000  -0.0000000  -0.0000000  -0.0000000  -0.0000000  -0.0000000
 NQMom=    0.0000000   0.0000000   0.0000000   0.0000000   0.0000000   0.0000000   0.0000000   0.0000000   0.0000000   0.0000000
 NMagM=    0.0000000   0.0000000   0.0000000   0.0000000   0.0000000   0.0000000   0.0000000   0.0000000   0.0000000   0.0000000
 AtZNuc=   6.0000000   6.0000000   6.0000000   6.0000000   6.0000000   6.0000000   6.0000000   6.0000000   6.0000000   6.0000000

  Atom        61          62          63          64          65          66          67          68          69          70
 IAtWgt=          12          12          12          12          12          12          12          12          12          12
 AtmWgt=  12.0000000  12.0000000  12.0000000  12.0000000  12.0000000  12.0000000  12.0000000  12.0000000  12.0000000  12.0000000
 NucSpn=           0           0           0           0           0           0           0           0           0           0
 AtZEff=  -0.0000000  -0.0000000  -0.0000000  -0.0000000  -0.0000000  -0.0000000  -0.0000000  -0.0000000  -0.0000000  -0.0000000
 NQMom=    0.0000000   0.0000000   0.0000000   0.0000000   0.0000000   0.0000000   0.0000000   0.0000000   0.0000000   0.0000000
 NMagM=    0.0000000   0.0000000   0.0000000   0.0000000   0.0000000   0.0000000   0.0000000   0.0000000   0.0000000   0.0000000
 AtZNuc=   6.0000000   6.0000000   6.0000000   6.0000000   6.0000000   6.0000000   6.0000000   6.0000000   6.0000000   6.0000000

  Atom        71          72          73          74          75          76          77          78          79          80
 IAtWgt=          12          12          12          12          12          12          12          12          12          12
 AtmWgt=  12.0000000  12.0000000  12.0000000  12.0000000  12.0000000  12.0000000  12.0000000  12.0000000  12.0000000  12.0000000
 NucSpn=           0           0           0           0           0           0           0           0           0           0
 AtZEff=  -0.0000000  -0.0000000  -0.0000000  -0.0000000  -0.0000000  -0.0000000  -0.0000000  -0.0000000  -0.0000000  -0.0000000
 NQMom=    0.0000000   0.0000000   0.0000000   0.0000000   0.0000000   0.0000000   0.0000000   0.0000000   0.0000000   0.0000000
 NMagM=    0.0000000   0.0000000   0.0000000   0.0000000   0.0000000   0.0000000   0.0000000   0.0000000   0.0000000   0.0000000
 AtZNuc=   6.0000000   6.0000000   6.0000000   6.0000000   6.0000000   6.0000000   6.0000000   6.0000000   6.0000000   6.0000000

  Atom        81          82          83          84          85          86          87          88          89          90
 IAtWgt=          12          12          12          12          35          35          35          35          35          35
 AtmWgt=  12.0000000  12.0000000  12.0000000  12.0000000  34.9688527  34.9688527  34.9688527  34.9688527  34.9688527  34.9688527
 NucSpn=           0           0           0           0           3           3           3           3           3           3
 AtZEff=  -0.0000000  -0.0000000  -0.0000000  -0.0000000  -0.0000000  -0.0000000  -0.0000000  -0.0000000  -0.0000000  -0.0000000
 NQMom=    0.0000000   0.0000000   0.0000000   0.0000000  -8.1650000  -8.1650000  -8.1650000  -8.1650000  -8.1650000  -8.1650000
 NMagM=    0.0000000   0.0000000   0.0000000   0.0000000   0.8218740   0.8218740   0.8218740   0.8218740   0.8218740   0.8218740
 AtZNuc=   6.0000000   6.0000000   6.0000000   6.0000000  17.0000000  17.0000000  17.0000000  17.0000000  17.0000000  17.0000000

  Atom        91          92
 IAtWgt=          35          35
 AtmWgt=  34.9688527  34.9688527
 NucSpn=           3           3
 AtZEff=  -0.0000000  -0.0000000
 NQMom=   -8.1650000  -8.1650000
 NMagM=    0.8218740   0.8218740
 AtZNuc=  17.0000000  17.0000000
 Leave Link  101 at Tue Jun 28 23:30:17 2022, MaxMem=  1342177280 cpu:               6.5 elap:               0.3
 (Enter /home/mkliu/g16/l103.exe)

 GradGradGradGradGradGradGradGradGradGradGradGradGradGradGradGradGradGrad
 Berny optimization.
 Initialization pass.
                           ----------------------------
                           !    Initial Parameters    !
                           ! (Angstroms and Degrees)  !
 --------------------------                            --------------------------
 ! Name  Definition              Value          Derivative Info.                !
 --------------------------------------------------------------------------------
 ! R1    R(1,5)                  1.4103         estimate D2E/DX2                !
 ! R2    R(1,17)                 1.423          estimate D2E/DX2                !
 ! R3    R(1,23)                 1.4398         estimate D2E/DX2                !
 ! R4    R(2,6)                  1.4389         estimate D2E/DX2                !
 ! R5    R(2,43)                 1.4105         estimate D2E/DX2                !
 ! R6    R(2,44)                 1.4205         estimate D2E/DX2                !
 ! R7    R(3,7)                  1.4185         estimate D2E/DX2                !
 ! R8    R(3,18)                 1.4102         estimate D2E/DX2                !
 ! R9    R(3,26)                 1.4268         estimate D2E/DX2                !
 ! R10   R(4,8)                  1.4998         estimate D2E/DX2                !
 ! R11   R(4,45)                 1.5082         estimate D2E/DX2                !
 ! R12   R(4,46)                 1.52           estimate D2E/DX2                !
 ! R13   R(4,85)                 1.8051         estimate D2E/DX2                !
 ! R14   R(5,9)                  1.4518         estimate D2E/DX2                !
 ! R15   R(5,29)                 1.4342         estimate D2E/DX2                !
 ! R16   R(6,10)                 1.3692         estimate D2E/DX2                !
 ! R17   R(6,15)                 1.4383         estimate D2E/DX2                !
 ! R18   R(7,12)                 1.4153         estimate D2E/DX2                !
 ! R19   R(7,30)                 1.4192         estimate D2E/DX2                !
 ! R20   R(8,11)                 1.3571         estimate D2E/DX2                !
 ! R21   R(8,16)                 1.4231         estimate D2E/DX2                !
 ! R22   R(9,13)                 1.3987         estimate D2E/DX2                !
 ! R23   R(9,35)                 1.4561         estimate D2E/DX2                !
 ! R24   R(10,49)                1.5093         estimate D2E/DX2                !
 ! R25   R(10,53)                1.4237         estimate D2E/DX2                !
 ! R26   R(11,50)                1.505          estimate D2E/DX2                !
 ! R27   R(11,54)                1.4268         estimate D2E/DX2                !
 ! R28   R(12,14)                1.407          estimate D2E/DX2                !
 ! R29   R(12,36)                1.4295         estimate D2E/DX2                !
 ! R30   R(13,15)                1.4275         estimate D2E/DX2                !
 ! R31   R(13,43)                1.4422         estimate D2E/DX2                !
 ! R32   R(14,16)                1.4164         estimate D2E/DX2                !
 ! R33   R(14,46)                1.4205         estimate D2E/DX2                !
 ! R34   R(15,17)                1.3806         estimate D2E/DX2                !
 ! R35   R(16,18)                1.4134         estimate D2E/DX2                !
 ! R36   R(17,19)                1.438          estimate D2E/DX2                !
 ! R37   R(18,20)                1.4293         estimate D2E/DX2                !
 ! R38   R(19,21)                1.4183         estimate D2E/DX2                !
 ! R39   R(19,53)                1.3922         estimate D2E/DX2                !
 ! R40   R(20,22)                1.4134         estimate D2E/DX2                !
 ! R41   R(20,54)                1.4102         estimate D2E/DX2                !
 ! R42   R(21,23)                1.4492         estimate D2E/DX2                !
 ! R43   R(21,57)                1.4102         estimate D2E/DX2                !
 ! R44   R(22,24)                1.4231         estimate D2E/DX2                !
 ! R45   R(22,58)                1.4164         estimate D2E/DX2                !
 ! R46   R(23,25)                1.3626         estimate D2E/DX2                !
 ! R47   R(24,26)                1.3571         estimate D2E/DX2                !
 ! R48   R(24,62)                1.4998         estimate D2E/DX2                !
 ! R49   R(25,27)                1.4097         estimate D2E/DX2                !
 ! R50   R(25,61)                1.5            estimate D2E/DX2                !
 ! R51   R(26,28)                1.505          estimate D2E/DX2                !
 ! R52   R(27,29)                1.4102         estimate D2E/DX2                !
 ! R53   R(27,65)                1.4295         estimate D2E/DX2                !
 ! R54   R(28,30)                1.5017         estimate D2E/DX2                !
 ! R55   R(28,66)                1.5209         estimate D2E/DX2                !
 ! R56   R(28,89)                1.803          estimate D2E/DX2                !
 ! R57   R(29,31)                1.407          estimate D2E/DX2                !
 ! R58   R(30,32)                1.3536         estimate D2E/DX2                !
 ! R59   R(31,33)                1.4422         estimate D2E/DX2                !
 ! R60   R(31,69)                1.4105         estimate D2E/DX2                !
 ! R61   R(32,34)                1.4248         estimate D2E/DX2                !
 ! R62   R(32,70)                1.503          estimate D2E/DX2                !
 ! R63   R(33,35)                1.3987         estimate D2E/DX2                !
 ! R64   R(33,73)                1.4275         estimate D2E/DX2                !
 ! R65   R(34,36)                1.4136         estimate D2E/DX2                !
 ! R66   R(34,74)                1.4211         estimate D2E/DX2                !
 ! R67   R(35,37)                1.4518         estimate D2E/DX2                !
 ! R68   R(36,38)                1.444          estimate D2E/DX2                !
 ! R69   R(37,39)                1.4342         estimate D2E/DX2                !
 ! R70   R(37,77)                1.4103         estimate D2E/DX2                !
 ! R71   R(38,42)                1.4426         estimate D2E/DX2                !
 ! R72   R(38,78)                1.4102         estimate D2E/DX2                !
 ! R73   R(39,43)                1.407          estimate D2E/DX2                !
 ! R74   R(39,79)                1.4102         estimate D2E/DX2                !
 ! R75   R(40,41)                1.4063         estimate D2E/DX2                !
 ! R76   R(40,44)                1.402          estimate D2E/DX2                !
 ! R77   R(40,79)                1.4295         estimate D2E/DX2                !
 ! R78   R(41,45)                1.3724         estimate D2E/DX2                !
 ! R79   R(41,80)                1.515          estimate D2E/DX2                !
 ! R80   R(42,46)                1.3658         estimate D2E/DX2                !
 ! R81   R(42,80)                1.5076         estimate D2E/DX2                !
 ! R82   R(44,47)                1.4257         estimate D2E/DX2                !
 ! R83   R(45,48)                1.4242         estimate D2E/DX2                !
 ! R84   R(47,48)                1.3934         estimate D2E/DX2                !
 ! R85   R(47,49)                1.5214         estimate D2E/DX2                !
 ! R86   R(48,50)                1.5209         estimate D2E/DX2                !
 ! R87   R(49,51)                1.503          estimate D2E/DX2                !
 ! R88   R(49,88)                1.8098         estimate D2E/DX2                !
 ! R89   R(50,52)                1.5017         estimate D2E/DX2                !
 ! R90   R(50,87)                1.803          estimate D2E/DX2                !
 ! R91   R(51,52)                1.3536         estimate D2E/DX2                !
 ! R92   R(51,55)                1.4248         estimate D2E/DX2                !
 ! R93   R(52,56)                1.4192         estimate D2E/DX2                !
 ! R94   R(53,55)                1.4211         estimate D2E/DX2                !
 ! R95   R(54,56)                1.4185         estimate D2E/DX2                !
 ! R96   R(55,83)                1.4136         estimate D2E/DX2                !
 ! R97   R(56,84)                1.4153         estimate D2E/DX2                !
 ! R98   R(57,59)                1.4426         estimate D2E/DX2                !
 ! R99   R(57,83)                1.444          estimate D2E/DX2                !
 ! R100  R(58,60)                1.4205         estimate D2E/DX2                !
 ! R101  R(58,84)                1.407          estimate D2E/DX2                !
 ! R102  R(59,60)                1.3658         estimate D2E/DX2                !
 ! R103  R(59,61)                1.5076         estimate D2E/DX2                !
 ! R104  R(60,62)                1.52           estimate D2E/DX2                !
 ! R105  R(61,63)                1.515          estimate D2E/DX2                !
 ! R106  R(61,91)                1.8097         estimate D2E/DX2                !
 ! R107  R(62,64)                1.5082         estimate D2E/DX2                !
 ! R108  R(62,90)                1.8051         estimate D2E/DX2                !
 ! R109  R(63,64)                1.3724         estimate D2E/DX2                !
 ! R110  R(63,65)                1.4063         estimate D2E/DX2                !
 ! R111  R(64,66)                1.4242         estimate D2E/DX2                !
 ! R112  R(65,67)                1.402          estimate D2E/DX2                !
 ! R113  R(66,68)                1.3934         estimate D2E/DX2                !
 ! R114  R(67,68)                1.4257         estimate D2E/DX2                !
 ! R115  R(67,69)                1.4205         estimate D2E/DX2                !
 ! R116  R(68,70)                1.5214         estimate D2E/DX2                !
 ! R117  R(69,71)                1.4389         estimate D2E/DX2                !
 ! R118  R(70,72)                1.5093         estimate D2E/DX2                !
 ! R119  R(70,92)                1.8098         estimate D2E/DX2                !
 ! R120  R(71,72)                1.3692         estimate D2E/DX2                !
 ! R121  R(71,73)                1.4383         estimate D2E/DX2                !
 ! R122  R(72,74)                1.4237         estimate D2E/DX2                !
 ! R123  R(73,75)                1.3806         estimate D2E/DX2                !
 ! R124  R(74,76)                1.3922         estimate D2E/DX2                !
 ! R125  R(75,76)                1.438          estimate D2E/DX2                !
 ! R126  R(75,77)                1.423          estimate D2E/DX2                !
 ! R127  R(76,78)                1.4183         estimate D2E/DX2                !
 ! R128  R(77,81)                1.4398         estimate D2E/DX2                !
 ! R129  R(78,81)                1.4492         estimate D2E/DX2                !
 ! R130  R(79,82)                1.4097         estimate D2E/DX2                !
 ! R131  R(80,82)                1.5            estimate D2E/DX2                !
 ! R132  R(80,86)                1.8097         estimate D2E/DX2                !
 ! R133  R(81,82)                1.3626         estimate D2E/DX2                !
 ! R134  R(83,84)                1.4295         estimate D2E/DX2                !
 ! A1    A(5,1,17)             121.8558         estimate D2E/DX2                !
 ! A2    A(5,1,23)             121.8493         estimate D2E/DX2                !
 ! A3    A(17,1,23)            106.4586         estimate D2E/DX2                !
 ! A4    A(6,2,43)             107.9869         estimate D2E/DX2                !
 ! A5    A(6,2,44)             119.8335         estimate D2E/DX2                !
 ! A6    A(43,2,44)            120.381          estimate D2E/DX2                !
 ! A7    A(7,3,18)             121.5833         estimate D2E/DX2                !
 ! A8    A(7,3,26)             108.4093         estimate D2E/DX2                !
 ! A9    A(18,3,26)            122.0692         estimate D2E/DX2                !
 ! A10   A(8,4,45)             110.642          estimate D2E/DX2                !
 ! A11   A(8,4,46)             101.2646         estimate D2E/DX2                !
 ! A12   A(8,4,85)             112.8343         estimate D2E/DX2                !
 ! A13   A(45,4,46)            110.3253         estimate D2E/DX2                !
 ! A14   A(45,4,85)            110.0533         estimate D2E/DX2                !
 ! A15   A(46,4,85)            111.4499         estimate D2E/DX2                !
 ! A16   A(1,5,9)              118.9481         estimate D2E/DX2                !
 ! A17   A(1,5,29)             116.1574         estimate D2E/DX2                !
 ! A18   A(9,5,29)             119.0732         estimate D2E/DX2                !
 ! A19   A(2,6,10)             120.0321         estimate D2E/DX2                !
 ! A20   A(2,6,15)             107.4033         estimate D2E/DX2                !
 ! A21   A(10,6,15)            120.795          estimate D2E/DX2                !
 ! A22   A(3,7,12)             121.5793         estimate D2E/DX2                !
 ! A23   A(3,7,30)             108.3668         estimate D2E/DX2                !
 ! A24   A(12,7,30)            121.5293         estimate D2E/DX2                !
 ! A25   A(4,8,11)             122.3604         estimate D2E/DX2                !
 ! A26   A(4,8,16)             110.4902         estimate D2E/DX2                !
 ! A27   A(11,8,16)            119.9679         estimate D2E/DX2                !
 ! A28   A(5,9,13)             117.6001         estimate D2E/DX2                !
 ! A29   A(5,9,35)             120.6059         estimate D2E/DX2                !
 ! A30   A(13,9,35)            117.6254         estimate D2E/DX2                !
 ! A31   A(6,10,49)            122.6253         estimate D2E/DX2                !
 ! A32   A(6,10,53)            118.8425         estimate D2E/DX2                !
 ! A33   A(49,10,53)           110.149          estimate D2E/DX2                !
 ! A34   A(8,11,50)            123.0214         estimate D2E/DX2                !
 ! A35   A(8,11,54)            119.2817         estimate D2E/DX2                !
 ! A36   A(50,11,54)           110.7758         estimate D2E/DX2                !
 ! A37   A(7,12,14)            115.9394         estimate D2E/DX2                !
 ! A38   A(7,12,36)            119.9312         estimate D2E/DX2                !
 ! A39   A(14,12,36)           118.8667         estimate D2E/DX2                !
 ! A40   A(9,13,15)            122.6526         estimate D2E/DX2                !
 ! A41   A(9,13,43)            121.0203         estimate D2E/DX2                !
 ! A42   A(15,13,43)           106.9252         estimate D2E/DX2                !
 ! A43   A(12,14,16)           122.2779         estimate D2E/DX2                !
 ! A44   A(12,14,46)           121.271          estimate D2E/DX2                !
 ! A45   A(16,14,46)           109.2157         estimate D2E/DX2                !
 ! A46   A(6,15,13)            108.4924         estimate D2E/DX2                !
 ! A47   A(6,15,17)            120.2905         estimate D2E/DX2                !
 ! A48   A(13,15,17)           119.6241         estimate D2E/DX2                !
 ! A49   A(8,16,14)            108.435          estimate D2E/DX2                !
 ! A50   A(8,16,18)            122.0597         estimate D2E/DX2                !
 ! A51   A(14,16,18)           121.1038         estimate D2E/DX2                !
 ! A52   A(1,17,15)            119.2937         estimate D2E/DX2                !
 ! A53   A(1,17,19)            108.6946         estimate D2E/DX2                !
 ! A54   A(15,17,19)           119.3405         estimate D2E/DX2                !
 ! A55   A(3,18,16)            116.445          estimate D2E/DX2                !
 ! A56   A(3,18,20)            118.5712         estimate D2E/DX2                !
 ! A57   A(16,18,20)           117.9222         estimate D2E/DX2                !
 ! A58   A(17,19,21)           108.7129         estimate D2E/DX2                !
 ! A59   A(17,19,53)           119.1672         estimate D2E/DX2                !
 ! A60   A(21,19,53)           120.2641         estimate D2E/DX2                !
 ! A61   A(18,20,22)           117.9223         estimate D2E/DX2                !
 ! A62   A(18,20,54)           118.5713         estimate D2E/DX2                !
 ! A63   A(22,20,54)           116.4449         estimate D2E/DX2                !
 ! A64   A(19,21,23)           106.4184         estimate D2E/DX2                !
 ! A65   A(19,21,57)           121.723          estimate D2E/DX2                !
 ! A66   A(23,21,57)           120.005          estimate D2E/DX2                !
 ! A67   A(20,22,24)           122.0597         estimate D2E/DX2                !
 ! A68   A(20,22,58)           121.1037         estimate D2E/DX2                !
 ! A69   A(24,22,58)           108.4351         estimate D2E/DX2                !
 ! A70   A(1,23,21)            108.8023         estimate D2E/DX2                !
 ! A71   A(1,23,25)            120.322          estimate D2E/DX2                !
 ! A72   A(21,23,25)           120.8236         estimate D2E/DX2                !
 ! A73   A(22,24,26)           119.968          estimate D2E/DX2                !
 ! A74   A(22,24,62)           110.4903         estimate D2E/DX2                !
 ! A75   A(26,24,62)           122.3603         estimate D2E/DX2                !
 ! A76   A(23,25,27)           118.6356         estimate D2E/DX2                !
 ! A77   A(23,25,61)           122.2913         estimate D2E/DX2                !
 ! A78   A(27,25,61)           111.365          estimate D2E/DX2                !
 ! A79   A(3,26,24)            119.2817         estimate D2E/DX2                !
 ! A80   A(3,26,28)            110.7759         estimate D2E/DX2                !
 ! A81   A(24,26,28)           123.0214         estimate D2E/DX2                !
 ! A82   A(25,27,29)           122.2132         estimate D2E/DX2                !
 ! A83   A(25,27,65)           107.5972         estimate D2E/DX2                !
 ! A84   A(29,27,65)           120.2235         estimate D2E/DX2                !
 ! A85   A(26,28,30)           100.8215         estimate D2E/DX2                !
 ! A86   A(26,28,66)           110.7012         estimate D2E/DX2                !
 ! A87   A(26,28,89)           112.8479         estimate D2E/DX2                !
 ! A88   A(30,28,66)           109.7697         estimate D2E/DX2                !
 ! A89   A(30,28,89)           113.4557         estimate D2E/DX2                !
 ! A90   A(66,28,89)           109.0374         estimate D2E/DX2                !
 ! A91   A(5,29,27)            119.9203         estimate D2E/DX2                !
 ! A92   A(5,29,31)            119.2733         estimate D2E/DX2                !
 ! A93   A(27,29,31)           115.4277         estimate D2E/DX2                !
 ! A94   A(7,30,28)            111.3446         estimate D2E/DX2                !
 ! A95   A(7,30,32)            118.975          estimate D2E/DX2                !
 ! A96   A(28,30,32)           122.8267         estimate D2E/DX2                !
 ! A97   A(29,31,33)           120.8709         estimate D2E/DX2                !
 ! A98   A(29,31,69)           122.9021         estimate D2E/DX2                !
 ! A99   A(33,31,69)           108.9361         estimate D2E/DX2                !
 ! A100  A(30,32,34)           120.4942         estimate D2E/DX2                !
 ! A101  A(30,32,70)           121.3501         estimate D2E/DX2                !
 ! A102  A(34,32,70)           111.3503         estimate D2E/DX2                !
 ! A103  A(31,33,35)           121.0201         estimate D2E/DX2                !
 ! A104  A(31,33,73)           106.9251         estimate D2E/DX2                !
 ! A105  A(35,33,73)           122.6526         estimate D2E/DX2                !
 ! A106  A(32,34,36)           122.3561         estimate D2E/DX2                !
 ! A107  A(32,34,74)           107.6917         estimate D2E/DX2                !
 ! A108  A(36,34,74)           121.5415         estimate D2E/DX2                !
 ! A109  A(9,35,33)            117.6255         estimate D2E/DX2                !
 ! A110  A(9,35,37)            120.6059         estimate D2E/DX2                !
 ! A111  A(33,35,37)           117.6001         estimate D2E/DX2                !
 ! A112  A(12,36,34)           116.3041         estimate D2E/DX2                !
 ! A113  A(12,36,38)           119.5318         estimate D2E/DX2                !
 ! A114  A(34,36,38)           119.2413         estimate D2E/DX2                !
 ! A115  A(35,37,39)           119.0734         estimate D2E/DX2                !
 ! A116  A(35,37,77)           118.9482         estimate D2E/DX2                !
 ! A117  A(39,37,77)           116.1573         estimate D2E/DX2                !
 ! A118  A(36,38,42)           119.1381         estimate D2E/DX2                !
 ! A119  A(36,38,78)           117.9333         estimate D2E/DX2                !
 ! A120  A(42,38,78)           118.5938         estimate D2E/DX2                !
 ! A121  A(37,39,43)           119.2732         estimate D2E/DX2                !
 ! A122  A(37,39,79)           119.9202         estimate D2E/DX2                !
 ! A123  A(43,39,79)           115.4278         estimate D2E/DX2                !
 ! A124  A(41,40,44)           121.5818         estimate D2E/DX2                !
 ! A125  A(41,40,79)           109.2923         estimate D2E/DX2                !
 ! A126  A(44,40,79)           122.7524         estimate D2E/DX2                !
 ! A127  A(40,41,45)           120.1524         estimate D2E/DX2                !
 ! A128  A(40,41,80)           109.7783         estimate D2E/DX2                !
 ! A129  A(45,41,80)           125.723          estimate D2E/DX2                !
 ! A130  A(38,42,46)           120.2207         estimate D2E/DX2                !
 ! A131  A(38,42,80)           121.6944         estimate D2E/DX2                !
 ! A132  A(46,42,80)           116.04           estimate D2E/DX2                !
 ! A133  A(2,43,13)            108.9361         estimate D2E/DX2                !
 ! A134  A(2,43,39)            122.902          estimate D2E/DX2                !
 ! A135  A(13,43,39)           120.8709         estimate D2E/DX2                !
 ! A136  A(2,44,40)            115.0279         estimate D2E/DX2                !
 ! A137  A(2,44,47)            121.9452         estimate D2E/DX2                !
 ! A138  A(40,44,47)           118.1553         estimate D2E/DX2                !
 ! A139  A(4,45,41)            115.6636         estimate D2E/DX2                !
 ! A140  A(4,45,48)            123.467          estimate D2E/DX2                !
 ! A141  A(41,45,48)           119.307          estimate D2E/DX2                !
 ! A142  A(4,46,14)            109.3589         estimate D2E/DX2                !
 ! A143  A(4,46,42)            125.605          estimate D2E/DX2                !
 ! A144  A(14,46,42)           120.8287         estimate D2E/DX2                !
 ! A145  A(44,47,48)           119.6658         estimate D2E/DX2                !
 ! A146  A(44,47,49)           117.6647         estimate D2E/DX2                !
 ! A147  A(48,47,49)           121.4251         estimate D2E/DX2                !
 ! A148  A(45,48,47)           120.9078         estimate D2E/DX2                !
 ! A149  A(45,48,50)           118.2498         estimate D2E/DX2                !
 ! A150  A(47,48,50)           120.1078         estimate D2E/DX2                !
 ! A151  A(10,49,47)           112.6446         estimate D2E/DX2                !
 ! A152  A(10,49,51)           101.0291         estimate D2E/DX2                !
 ! A153  A(10,49,88)           111.5961         estimate D2E/DX2                !
 ! A154  A(47,49,51)           109.8588         estimate D2E/DX2                !
 ! A155  A(47,49,88)           108.5902         estimate D2E/DX2                !
 ! A156  A(51,49,88)           113.0379         estimate D2E/DX2                !
 ! A157  A(11,50,48)           110.701          estimate D2E/DX2                !
 ! A158  A(11,50,52)           100.8215         estimate D2E/DX2                !
 ! A159  A(11,50,87)           112.8483         estimate D2E/DX2                !
 ! A160  A(48,50,52)           109.7692         estimate D2E/DX2                !
 ! A161  A(48,50,87)           109.0379         estimate D2E/DX2                !
 ! A162  A(52,50,87)           113.4553         estimate D2E/DX2                !
 ! A163  A(49,51,52)           121.3505         estimate D2E/DX2                !
 ! A164  A(49,51,55)           111.3503         estimate D2E/DX2                !
 ! A165  A(52,51,55)           120.4942         estimate D2E/DX2                !
 ! A166  A(50,52,51)           122.8266         estimate D2E/DX2                !
 ! A167  A(50,52,56)           111.3449         estimate D2E/DX2                !
 ! A168  A(51,52,56)           118.9751         estimate D2E/DX2                !
 ! A169  A(10,53,19)           121.4105         estimate D2E/DX2                !
 ! A170  A(10,53,55)           109.0257         estimate D2E/DX2                !
 ! A171  A(19,53,55)           118.97           estimate D2E/DX2                !
 ! A172  A(11,54,20)           122.0692         estimate D2E/DX2                !
 ! A173  A(11,54,56)           108.4093         estimate D2E/DX2                !
 ! A174  A(20,54,56)           121.5833         estimate D2E/DX2                !
 ! A175  A(51,55,53)           107.6915         estimate D2E/DX2                !
 ! A176  A(51,55,83)           122.3559         estimate D2E/DX2                !
 ! A177  A(53,55,83)           121.5414         estimate D2E/DX2                !
 ! A178  A(52,56,54)           108.3667         estimate D2E/DX2                !
 ! A179  A(52,56,84)           121.5293         estimate D2E/DX2                !
 ! A180  A(54,56,84)           121.5793         estimate D2E/DX2                !
 ! A181  A(21,57,59)           118.594          estimate D2E/DX2                !
 ! A182  A(21,57,83)           117.9333         estimate D2E/DX2                !
 ! A183  A(59,57,83)           119.1381         estimate D2E/DX2                !
 ! A184  A(22,58,60)           109.2158         estimate D2E/DX2                !
 ! A185  A(22,58,84)           122.2779         estimate D2E/DX2                !
 ! A186  A(60,58,84)           121.2709         estimate D2E/DX2                !
 ! A187  A(57,59,60)           120.2207         estimate D2E/DX2                !
 ! A188  A(57,59,61)           121.6944         estimate D2E/DX2                !
 ! A189  A(60,59,61)           116.04           estimate D2E/DX2                !
 ! A190  A(58,60,59)           120.8287         estimate D2E/DX2                !
 ! A191  A(58,60,62)           109.3589         estimate D2E/DX2                !
 ! A192  A(59,60,62)           125.605          estimate D2E/DX2                !
 ! A193  A(25,61,59)           111.7124         estimate D2E/DX2                !
 ! A194  A(25,61,63)           100.7256         estimate D2E/DX2                !
 ! A195  A(25,61,91)           112.2859         estimate D2E/DX2                !
 ! A196  A(59,61,63)           110.6212         estimate D2E/DX2                !
 ! A197  A(59,61,91)           109.9008         estimate D2E/DX2                !
 ! A198  A(63,61,91)           111.3278         estimate D2E/DX2                !
 ! A199  A(24,62,60)           101.2642         estimate D2E/DX2                !
 ! A200  A(24,62,64)           110.6414         estimate D2E/DX2                !
 ! A201  A(24,62,90)           112.8348         estimate D2E/DX2                !
 ! A202  A(60,62,64)           110.3248         estimate D2E/DX2                !
 ! A203  A(60,62,90)           111.45           estimate D2E/DX2                !
 ! A204  A(64,62,90)           110.0541         estimate D2E/DX2                !
 ! A205  A(61,63,64)           125.7231         estimate D2E/DX2                !
 ! A206  A(61,63,65)           109.7784         estimate D2E/DX2                !
 ! A207  A(64,63,65)           120.152          estimate D2E/DX2                !
 ! A208  A(62,64,63)           115.6634         estimate D2E/DX2                !
 ! A209  A(62,64,66)           123.4671         estimate D2E/DX2                !
 ! A210  A(63,64,66)           119.3074         estimate D2E/DX2                !
 ! A211  A(27,65,63)           109.2922         estimate D2E/DX2                !
 ! A212  A(27,65,67)           122.7523         estimate D2E/DX2                !
 ! A213  A(63,65,67)           121.5819         estimate D2E/DX2                !
 ! A214  A(28,66,64)           118.2499         estimate D2E/DX2                !
 ! A215  A(28,66,68)           120.1078         estimate D2E/DX2                !
 ! A216  A(64,66,68)           120.9077         estimate D2E/DX2                !
 ! A217  A(65,67,68)           118.1554         estimate D2E/DX2                !
 ! A218  A(65,67,69)           115.028          estimate D2E/DX2                !
 ! A219  A(68,67,69)           121.945          estimate D2E/DX2                !
 ! A220  A(66,68,67)           119.6657         estimate D2E/DX2                !
 ! A221  A(66,68,70)           121.4249         estimate D2E/DX2                !
 ! A222  A(67,68,70)           117.6651         estimate D2E/DX2                !
 ! A223  A(31,69,67)           120.3809         estimate D2E/DX2                !
 ! A224  A(31,69,71)           107.987          estimate D2E/DX2                !
 ! A225  A(67,69,71)           119.8335         estimate D2E/DX2                !
 ! A226  A(32,70,68)           109.8588         estimate D2E/DX2                !
 ! A227  A(32,70,72)           101.0289         estimate D2E/DX2                !
 ! A228  A(32,70,92)           113.0376         estimate D2E/DX2                !
 ! A229  A(68,70,72)           112.644          estimate D2E/DX2                !
 ! A230  A(68,70,92)           108.5907         estimate D2E/DX2                !
 ! A231  A(72,70,92)           111.5966         estimate D2E/DX2                !
 ! A232  A(69,71,72)           120.0322         estimate D2E/DX2                !
 ! A233  A(69,71,73)           107.403          estimate D2E/DX2                !
 ! A234  A(72,71,73)           120.7952         estimate D2E/DX2                !
 ! A235  A(70,72,71)           122.6253         estimate D2E/DX2                !
 ! A236  A(70,72,74)           110.1489         estimate D2E/DX2                !
 ! A237  A(71,72,74)           118.8425         estimate D2E/DX2                !
 ! A238  A(33,73,71)           108.4926         estimate D2E/DX2                !
 ! A239  A(33,73,75)           119.624          estimate D2E/DX2                !
 ! A240  A(71,73,75)           120.2903         estimate D2E/DX2                !
 ! A241  A(34,74,72)           109.0258         estimate D2E/DX2                !
 ! A242  A(34,74,76)           118.9701         estimate D2E/DX2                !
 ! A243  A(72,74,76)           121.4104         estimate D2E/DX2                !
 ! A244  A(73,75,76)           119.3405         estimate D2E/DX2                !
 ! A245  A(73,75,77)           119.2938         estimate D2E/DX2                !
 ! A246  A(76,75,77)           108.6945         estimate D2E/DX2                !
 ! A247  A(74,76,75)           119.1673         estimate D2E/DX2                !
 ! A248  A(74,76,78)           120.264          estimate D2E/DX2                !
 ! A249  A(75,76,78)           108.7132         estimate D2E/DX2                !
 ! A250  A(37,77,75)           121.8558         estimate D2E/DX2                !
 ! A251  A(37,77,81)           121.8494         estimate D2E/DX2                !
 ! A252  A(75,77,81)           106.4586         estimate D2E/DX2                !
 ! A253  A(38,78,76)           121.723          estimate D2E/DX2                !
 ! A254  A(38,78,81)           120.005          estimate D2E/DX2                !
 ! A255  A(76,78,81)           106.418          estimate D2E/DX2                !
 ! A256  A(39,79,40)           120.2235         estimate D2E/DX2                !
 ! A257  A(39,79,82)           122.2134         estimate D2E/DX2                !
 ! A258  A(40,79,82)           107.5971         estimate D2E/DX2                !
 ! A259  A(41,80,42)           110.621          estimate D2E/DX2                !
 ! A260  A(41,80,82)           100.7254         estimate D2E/DX2                !
 ! A261  A(41,80,86)           111.3278         estimate D2E/DX2                !
 ! A262  A(42,80,82)           111.7127         estimate D2E/DX2                !
 ! A263  A(42,80,86)           109.9008         estimate D2E/DX2                !
 ! A264  A(82,80,86)           112.2861         estimate D2E/DX2                !
 ! A265  A(77,81,78)           108.8025         estimate D2E/DX2                !
 ! A266  A(77,81,82)           120.3221         estimate D2E/DX2                !
 ! A267  A(78,81,82)           120.8237         estimate D2E/DX2                !
 ! A268  A(79,82,80)           111.3653         estimate D2E/DX2                !
 ! A269  A(79,82,81)           118.6354         estimate D2E/DX2                !
 ! A270  A(80,82,81)           122.2911         estimate D2E/DX2                !
 ! A271  A(55,83,57)           119.2415         estimate D2E/DX2                !
 ! A272  A(55,83,84)           116.3041         estimate D2E/DX2                !
 ! A273  A(57,83,84)           119.5317         estimate D2E/DX2                !
 ! A274  A(56,84,58)           115.9395         estimate D2E/DX2                !
 ! A275  A(56,84,83)           119.9312         estimate D2E/DX2                !
 ! A276  A(58,84,83)           118.867          estimate D2E/DX2                !
 ! D1    D(17,1,5,9)             0.1704         estimate D2E/DX2                !
 ! D2    D(17,1,5,29)         -152.7442         estimate D2E/DX2                !
 ! D3    D(23,1,5,9)           141.3121         estimate D2E/DX2                !
 ! D4    D(23,1,5,29)          -11.6026         estimate D2E/DX2                !
 ! D5    D(5,1,17,15)           -1.3759         estimate D2E/DX2                !
 ! D6    D(5,1,17,19)          140.1582         estimate D2E/DX2                !
 ! D7    D(23,1,17,15)        -147.6165         estimate D2E/DX2                !
 ! D8    D(23,1,17,19)          -6.0824         estimate D2E/DX2                !
 ! D9    D(5,1,23,21)         -136.7174         estimate D2E/DX2                !
 ! D10   D(5,1,23,25)            8.9923         estimate D2E/DX2                !
 ! D11   D(17,1,23,21)           9.5259         estimate D2E/DX2                !
 ! D12   D(17,1,23,25)         155.2356         estimate D2E/DX2                !
 ! D13   D(43,2,6,10)         -145.8179         estimate D2E/DX2                !
 ! D14   D(43,2,6,15)           -2.5987         estimate D2E/DX2                !
 ! D15   D(44,2,6,10)           -2.768          estimate D2E/DX2                !
 ! D16   D(44,2,6,15)          140.4512         estimate D2E/DX2                !
 ! D17   D(6,2,43,13)            4.8163         estimate D2E/DX2                !
 ! D18   D(6,2,43,39)          155.0504         estimate D2E/DX2                !
 ! D19   D(44,2,43,13)        -137.9938         estimate D2E/DX2                !
 ! D20   D(44,2,43,39)          12.2403         estimate D2E/DX2                !
 ! D21   D(6,2,44,40)         -156.0684         estimate D2E/DX2                !
 ! D22   D(6,2,44,47)           -1.2672         estimate D2E/DX2                !
 ! D23   D(43,2,44,40)         -17.5782         estimate D2E/DX2                !
 ! D24   D(43,2,44,47)         137.2229         estimate D2E/DX2                !
 ! D25   D(18,3,7,12)            3.8457         estimate D2E/DX2                !
 ! D26   D(18,3,7,30)          152.1523         estimate D2E/DX2                !
 ! D27   D(26,3,7,12)         -145.6404         estimate D2E/DX2                !
 ! D28   D(26,3,7,30)            2.6662         estimate D2E/DX2                !
 ! D29   D(7,3,18,16)            5.7938         estimate D2E/DX2                !
 ! D30   D(7,3,18,20)         -144.2461         estimate D2E/DX2                !
 ! D31   D(26,3,18,16)         151.1471         estimate D2E/DX2                !
 ! D32   D(26,3,18,20)           1.1071         estimate D2E/DX2                !
 ! D33   D(7,3,26,24)          146.5945         estimate D2E/DX2                !
 ! D34   D(7,3,26,28)           -5.166          estimate D2E/DX2                !
 ! D35   D(18,3,26,24)          -2.7132         estimate D2E/DX2                !
 ! D36   D(18,3,26,28)        -154.4737         estimate D2E/DX2                !
 ! D37   D(45,4,8,11)           23.5696         estimate D2E/DX2                !
 ! D38   D(45,4,8,16)         -126.6669         estimate D2E/DX2                !
 ! D39   D(46,4,8,11)          140.5383         estimate D2E/DX2                !
 ! D40   D(46,4,8,16)           -9.6983         estimate D2E/DX2                !
 ! D41   D(85,4,8,11)         -100.2235         estimate D2E/DX2                !
 ! D42   D(85,4,8,16)          109.54           estimate D2E/DX2                !
 ! D43   D(8,4,45,41)          144.7007         estimate D2E/DX2                !
 ! D44   D(8,4,45,48)          -20.9083         estimate D2E/DX2                !
 ! D45   D(46,4,45,41)          33.469          estimate D2E/DX2                !
 ! D46   D(46,4,45,48)        -132.14           estimate D2E/DX2                !
 ! D47   D(85,4,45,41)         -89.9217         estimate D2E/DX2                !
 ! D48   D(85,4,45,48)         104.4693         estimate D2E/DX2                !
 ! D49   D(8,4,46,14)           11.0672         estimate D2E/DX2                !
 ! D50   D(8,4,46,42)         -145.8107         estimate D2E/DX2                !
 ! D51   D(45,4,46,14)         128.2671         estimate D2E/DX2                !
 ! D52   D(45,4,46,42)         -28.6108         estimate D2E/DX2                !
 ! D53   D(85,4,46,14)        -109.1575         estimate D2E/DX2                !
 ! D54   D(85,4,46,42)          93.9646         estimate D2E/DX2                !
 ! D55   D(1,5,9,13)             1.1811         estimate D2E/DX2                !
 ! D56   D(1,5,9,35)          -155.3347         estimate D2E/DX2                !
 ! D57   D(29,5,9,13)          153.3021         estimate D2E/DX2                !
 ! D58   D(29,5,9,35)           -3.2137         estimate D2E/DX2                !
 ! D59   D(1,5,29,27)            8.3145         estimate D2E/DX2                !
 ! D60   D(1,5,29,31)          161.2538         estimate D2E/DX2                !
 ! D61   D(9,5,29,27)         -144.5646         estimate D2E/DX2                !
 ! D62   D(9,5,29,31)            8.3747         estimate D2E/DX2                !
 ! D63   D(2,6,10,49)           -9.4773         estimate D2E/DX2                !
 ! D64   D(2,6,10,53)          135.5535         estimate D2E/DX2                !
 ! D65   D(15,6,10,49)        -147.7853         estimate D2E/DX2                !
 ! D66   D(15,6,10,53)          -2.7545         estimate D2E/DX2                !
 ! D67   D(2,6,15,13)           -0.6085         estimate D2E/DX2                !
 ! D68   D(2,6,15,17)         -143.6421         estimate D2E/DX2                !
 ! D69   D(10,6,15,13)         142.2738         estimate D2E/DX2                !
 ! D70   D(10,6,15,17)          -0.7598         estimate D2E/DX2                !
 ! D71   D(3,7,12,14)           -9.3241         estimate D2E/DX2                !
 ! D72   D(3,7,12,36)          144.7738         estimate D2E/DX2                !
 ! D73   D(30,7,12,14)        -153.5234         estimate D2E/DX2                !
 ! D74   D(30,7,12,36)           0.5745         estimate D2E/DX2                !
 ! D75   D(3,7,30,28)            0.7964         estimate D2E/DX2                !
 ! D76   D(3,7,30,32)         -151.0503         estimate D2E/DX2                !
 ! D77   D(12,7,30,28)         149.1219         estimate D2E/DX2                !
 ! D78   D(12,7,30,32)          -2.7247         estimate D2E/DX2                !
 ! D79   D(4,8,11,50)            1.5862         estimate D2E/DX2                !
 ! D80   D(4,8,11,54)         -146.5687         estimate D2E/DX2                !
 ! D81   D(16,8,11,50)         149.1217         estimate D2E/DX2                !
 ! D82   D(16,8,11,54)           0.9669         estimate D2E/DX2                !
 ! D83   D(4,8,16,14)            5.0646         estimate D2E/DX2                !
 ! D84   D(4,8,16,18)          153.4174         estimate D2E/DX2                !
 ! D85   D(11,8,16,14)        -145.9859         estimate D2E/DX2                !
 ! D86   D(11,8,16,18)           2.3669         estimate D2E/DX2                !
 ! D87   D(5,9,13,15)           -1.4007         estimate D2E/DX2                !
 ! D88   D(5,9,13,43)         -143.4766         estimate D2E/DX2                !
 ! D89   D(35,9,13,15)         155.8243         estimate D2E/DX2                !
 ! D90   D(35,9,13,43)          13.7483         estimate D2E/DX2                !
 ! D91   D(5,9,35,33)           -7.7847         estimate D2E/DX2                !
 ! D92   D(5,9,35,37)          148.7256         estimate D2E/DX2                !
 ! D93   D(13,9,35,33)        -164.2947         estimate D2E/DX2                !
 ! D94   D(13,9,35,37)          -7.7844         estimate D2E/DX2                !
 ! D95   D(6,10,49,47)          23.4778         estimate D2E/DX2                !
 ! D96   D(6,10,49,51)         140.6274         estimate D2E/DX2                !
 ! D97   D(6,10,49,88)         -98.9776         estimate D2E/DX2                !
 ! D98   D(53,10,49,47)       -124.1942         estimate D2E/DX2                !
 ! D99   D(53,10,49,51)         -7.0446         estimate D2E/DX2                !
 ! D100  D(53,10,49,88)        113.3504         estimate D2E/DX2                !
 ! D101  D(6,10,53,19)           4.4008         estimate D2E/DX2                !
 ! D102  D(6,10,53,55)        -139.7816         estimate D2E/DX2                !
 ! D103  D(49,10,53,19)        153.4587         estimate D2E/DX2                !
 ! D104  D(49,10,53,55)          9.2764         estimate D2E/DX2                !
 ! D105  D(8,11,50,48)         -29.1259         estimate D2E/DX2                !
 ! D106  D(8,11,50,52)        -145.2525         estimate D2E/DX2                !
 ! D107  D(8,11,50,87)          93.3961         estimate D2E/DX2                !
 ! D108  D(54,11,50,48)        121.3879         estimate D2E/DX2                !
 ! D109  D(54,11,50,52)          5.2613         estimate D2E/DX2                !
 ! D110  D(54,11,50,87)       -116.0902         estimate D2E/DX2                !
 ! D111  D(8,11,54,20)          -2.7135         estimate D2E/DX2                !
 ! D112  D(8,11,54,56)         146.594          estimate D2E/DX2                !
 ! D113  D(50,11,54,20)       -154.4737         estimate D2E/DX2                !
 ! D114  D(50,11,54,56)         -5.1661         estimate D2E/DX2                !
 ! D115  D(7,12,14,16)           5.4127         estimate D2E/DX2                !
 ! D116  D(7,12,14,46)         152.4526         estimate D2E/DX2                !
 ! D117  D(36,12,14,16)       -148.9746         estimate D2E/DX2                !
 ! D118  D(36,12,14,46)         -1.9347         estimate D2E/DX2                !
 ! D119  D(7,12,36,34)           4.4644         estimate D2E/DX2                !
 ! D120  D(7,12,36,38)        -150.5362         estimate D2E/DX2                !
 ! D121  D(14,12,36,34)        157.8128         estimate D2E/DX2                !
 ! D122  D(14,12,36,38)          2.8123         estimate D2E/DX2                !
 ! D123  D(9,13,15,6)         -143.1007         estimate D2E/DX2                !
 ! D124  D(9,13,15,17)           0.2205         estimate D2E/DX2                !
 ! D125  D(43,13,15,6)           3.4936         estimate D2E/DX2                !
 ! D126  D(43,13,15,17)        146.8148         estimate D2E/DX2                !
 ! D127  D(9,13,43,2)          142.0951         estimate D2E/DX2                !
 ! D128  D(9,13,43,39)          -8.8512         estimate D2E/DX2                !
 ! D129  D(15,13,43,2)          -5.1593         estimate D2E/DX2                !
 ! D130  D(15,13,43,39)       -156.1056         estimate D2E/DX2                !
 ! D131  D(12,14,16,8)         152.8978         estimate D2E/DX2                !
 ! D132  D(12,14,16,18)          4.1853         estimate D2E/DX2                !
 ! D133  D(46,14,16,8)           2.3996         estimate D2E/DX2                !
 ! D134  D(46,14,16,18)       -146.3128         estimate D2E/DX2                !
 ! D135  D(12,14,46,4)        -159.6661         estimate D2E/DX2                !
 ! D136  D(12,14,46,42)         -1.4937         estimate D2E/DX2                !
 ! D137  D(16,14,46,4)          -8.8176         estimate D2E/DX2                !
 ! D138  D(16,14,46,42)        149.3548         estimate D2E/DX2                !
 ! D139  D(6,15,17,1)          140.1768         estimate D2E/DX2                !
 ! D140  D(6,15,17,19)           2.7037         estimate D2E/DX2                !
 ! D141  D(13,15,17,1)           1.1761         estimate D2E/DX2                !
 ! D142  D(13,15,17,19)       -136.2969         estimate D2E/DX2                !
 ! D143  D(8,16,18,3)         -154.1399         estimate D2E/DX2                !
 ! D144  D(8,16,18,20)          -3.8998         estimate D2E/DX2                !
 ! D145  D(14,16,18,3)          -9.6848         estimate D2E/DX2                !
 ! D146  D(14,16,18,20)        140.5554         estimate D2E/DX2                !
 ! D147  D(1,17,19,21)           0.3678         estimate D2E/DX2                !
 ! D148  D(1,17,19,53)        -142.6136         estimate D2E/DX2                !
 ! D149  D(15,17,19,21)        141.8811         estimate D2E/DX2                !
 ! D150  D(15,17,19,53)         -1.1004         estimate D2E/DX2                !
 ! D151  D(3,18,20,22)           2.1177         estimate D2E/DX2                !
 ! D152  D(3,18,20,54)         151.7167         estimate D2E/DX2                !
 ! D153  D(16,18,20,22)       -147.4811         estimate D2E/DX2                !
 ! D154  D(16,18,20,54)          2.118          estimate D2E/DX2                !
 ! D155  D(17,19,21,23)          5.4629         estimate D2E/DX2                !
 ! D156  D(17,19,21,57)       -137.1973         estimate D2E/DX2                !
 ! D157  D(53,19,21,23)        147.9681         estimate D2E/DX2                !
 ! D158  D(53,19,21,57)          5.3079         estimate D2E/DX2                !
 ! D159  D(17,19,53,10)         -2.4717         estimate D2E/DX2                !
 ! D160  D(17,19,53,55)        138.3035         estimate D2E/DX2                !
 ! D161  D(21,19,53,10)       -141.1544         estimate D2E/DX2                !
 ! D162  D(21,19,53,55)         -0.3792         estimate D2E/DX2                !
 ! D163  D(18,20,22,24)         -3.8997         estimate D2E/DX2                !
 ! D164  D(18,20,22,58)        140.5555         estimate D2E/DX2                !
 ! D165  D(54,20,22,24)       -154.1402         estimate D2E/DX2                !
 ! D166  D(54,20,22,58)         -9.685          estimate D2E/DX2                !
 ! D167  D(18,20,54,11)          1.107          estimate D2E/DX2                !
 ! D168  D(18,20,54,56)       -144.2462         estimate D2E/DX2                !
 ! D169  D(22,20,54,11)        151.1473         estimate D2E/DX2                !
 ! D170  D(22,20,54,56)          5.7942         estimate D2E/DX2                !
 ! D171  D(19,21,23,1)          -9.3132         estimate D2E/DX2                !
 ! D172  D(19,21,23,25)       -154.82           estimate D2E/DX2                !
 ! D173  D(57,21,23,1)         134.1195         estimate D2E/DX2                !
 ! D174  D(57,21,23,25)        -11.3874         estimate D2E/DX2                !
 ! D175  D(19,21,57,59)        150.6154         estimate D2E/DX2                !
 ! D176  D(19,21,57,83)         -5.8319         estimate D2E/DX2                !
 ! D177  D(23,21,57,59)         12.8252         estimate D2E/DX2                !
 ! D178  D(23,21,57,83)       -143.6221         estimate D2E/DX2                !
 ! D179  D(20,22,24,26)          2.3672         estimate D2E/DX2                !
 ! D180  D(20,22,24,62)        153.4179         estimate D2E/DX2                !
 ! D181  D(58,22,24,26)       -145.9855         estimate D2E/DX2                !
 ! D182  D(58,22,24,62)          5.0652         estimate D2E/DX2                !
 ! D183  D(20,22,58,60)       -146.313          estimate D2E/DX2                !
 ! D184  D(20,22,58,84)          4.1852         estimate D2E/DX2                !
 ! D185  D(24,22,58,60)          2.3994         estimate D2E/DX2                !
 ! D186  D(24,22,58,84)        152.8976         estimate D2E/DX2                !
 ! D187  D(1,23,25,27)          -2.4642         estimate D2E/DX2                !
 ! D188  D(1,23,25,61)        -149.1932         estimate D2E/DX2                !
 ! D189  D(21,23,25,27)        139.1432         estimate D2E/DX2                !
 ! D190  D(21,23,25,61)         -7.5857         estimate D2E/DX2                !
 ! D191  D(22,24,26,3)           0.9663         estimate D2E/DX2                !
 ! D192  D(22,24,26,28)        149.1215         estimate D2E/DX2                !
 ! D193  D(62,24,26,3)        -146.5695         estimate D2E/DX2                !
 ! D194  D(62,24,26,28)          1.5857         estimate D2E/DX2                !
 ! D195  D(22,24,62,60)         -9.6989         estimate D2E/DX2                !
 ! D196  D(22,24,62,64)       -126.6664         estimate D2E/DX2                !
 ! D197  D(22,24,62,90)        109.5396         estimate D2E/DX2                !
 ! D198  D(26,24,62,60)        140.538          estimate D2E/DX2                !
 ! D199  D(26,24,62,64)         23.5704         estimate D2E/DX2                !
 ! D200  D(26,24,62,90)       -100.2236         estimate D2E/DX2                !
 ! D201  D(23,25,27,29)         -0.64           estimate D2E/DX2                !
 ! D202  D(23,25,27,65)       -146.1268         estimate D2E/DX2                !
 ! D203  D(61,25,27,29)        149.4938         estimate D2E/DX2                !
 ! D204  D(61,25,27,65)          4.0069         estimate D2E/DX2                !
 ! D205  D(23,25,61,59)         22.2855         estimate D2E/DX2                !
 ! D206  D(23,25,61,63)        139.7532         estimate D2E/DX2                !
 ! D207  D(23,25,61,91)       -101.7125         estimate D2E/DX2                !
 ! D208  D(27,25,61,59)       -126.5812         estimate D2E/DX2                !
 ! D209  D(27,25,61,63)         -9.1135         estimate D2E/DX2                !
 ! D210  D(27,25,61,91)        109.4207         estimate D2E/DX2                !
 ! D211  D(3,26,28,30)           5.2609         estimate D2E/DX2                !
 ! D212  D(3,26,28,66)         121.3882         estimate D2E/DX2                !
 ! D213  D(3,26,28,89)        -116.0907         estimate D2E/DX2                !
 ! D214  D(24,26,28,30)       -145.2531         estimate D2E/DX2                !
 ! D215  D(24,26,28,66)        -29.1258         estimate D2E/DX2                !
 ! D216  D(24,26,28,89)         93.3953         estimate D2E/DX2                !
 ! D217  D(25,27,29,5)          -2.4368         estimate D2E/DX2                !
 ! D218  D(25,27,29,31)       -156.3709         estimate D2E/DX2                !
 ! D219  D(65,27,29,5)         138.8777         estimate D2E/DX2                !
 ! D220  D(65,27,29,31)        -15.0565         estimate D2E/DX2                !
 ! D221  D(25,27,65,63)          3.5342         estimate D2E/DX2                !
 ! D222  D(25,27,65,67)        155.7785         estimate D2E/DX2                !
 ! D223  D(29,27,65,63)       -142.7693         estimate D2E/DX2                !
 ! D224  D(29,27,65,67)          9.475          estimate D2E/DX2                !
 ! D225  D(26,28,30,7)          -3.6281         estimate D2E/DX2                !
 ! D226  D(26,28,30,32)        146.9514         estimate D2E/DX2                !
 ! D227  D(66,28,30,7)        -120.445          estimate D2E/DX2                !
 ! D228  D(66,28,30,32)         30.1346         estimate D2E/DX2                !
 ! D229  D(89,28,30,7)         117.2933         estimate D2E/DX2                !
 ! D230  D(89,28,30,32)        -92.1272         estimate D2E/DX2                !
 ! D231  D(26,28,66,64)         30.4108         estimate D2E/DX2                !
 ! D232  D(26,28,66,68)       -139.861          estimate D2E/DX2                !
 ! D233  D(30,28,66,64)        140.8433         estimate D2E/DX2                !
 ! D234  D(30,28,66,68)        -29.4285         estimate D2E/DX2                !
 ! D235  D(89,28,66,64)        -94.3043         estimate D2E/DX2                !
 ! D236  D(89,28,66,68)         95.4239         estimate D2E/DX2                !
 ! D237  D(5,29,31,33)          -2.6508         estimate D2E/DX2                !
 ! D238  D(5,29,31,69)        -149.4829         estimate D2E/DX2                !
 ! D239  D(27,29,31,33)        151.4624         estimate D2E/DX2                !
 ! D240  D(27,29,31,69)          4.6303         estimate D2E/DX2                !
 ! D241  D(7,30,32,34)          -0.3826         estimate D2E/DX2                !
 ! D242  D(7,30,32,70)         148.2128         estimate D2E/DX2                !
 ! D243  D(28,30,32,34)       -148.8501         estimate D2E/DX2                !
 ! D244  D(28,30,32,70)         -0.2547         estimate D2E/DX2                !
 ! D245  D(29,31,33,35)         -8.8519         estimate D2E/DX2                !
 ! D246  D(29,31,33,73)       -156.1057         estimate D2E/DX2                !
 ! D247  D(69,31,33,35)        142.0949         estimate D2E/DX2                !
 ! D248  D(69,31,33,73)         -5.1589         estimate D2E/DX2                !
 ! D249  D(29,31,69,67)         12.2402         estimate D2E/DX2                !
 ! D250  D(29,31,69,71)        155.0505         estimate D2E/DX2                !
 ! D251  D(33,31,69,67)       -137.9943         estimate D2E/DX2                !
 ! D252  D(33,31,69,71)          4.816          estimate D2E/DX2                !
 ! D253  D(30,32,34,36)          5.8261         estimate D2E/DX2                !
 ! D254  D(30,32,34,74)        154.2663         estimate D2E/DX2                !
 ! D255  D(70,32,34,36)       -145.6325         estimate D2E/DX2                !
 ! D256  D(70,32,34,74)          2.8076         estimate D2E/DX2                !
 ! D257  D(30,32,70,68)        -29.4857         estimate D2E/DX2                !
 ! D258  D(30,32,70,72)       -148.6585         estimate D2E/DX2                !
 ! D259  D(30,32,70,92)         91.9762         estimate D2E/DX2                !
 ! D260  D(34,32,70,68)        121.6925         estimate D2E/DX2                !
 ! D261  D(34,32,70,72)          2.5197         estimate D2E/DX2                !
 ! D262  D(34,32,70,92)       -116.8456         estimate D2E/DX2                !
 ! D263  D(31,33,35,9)          13.749          estimate D2E/DX2                !
 ! D264  D(31,33,35,37)       -143.4762         estimate D2E/DX2                !
 ! D265  D(73,33,35,9)         155.8243         estimate D2E/DX2                !
 ! D266  D(73,33,35,37)         -1.401          estimate D2E/DX2                !
 ! D267  D(31,33,73,71)          3.4933         estimate D2E/DX2                !
 ! D268  D(31,33,73,75)        146.8143         estimate D2E/DX2                !
 ! D269  D(35,33,73,71)       -143.1003         estimate D2E/DX2                !
 ! D270  D(35,33,73,75)          0.2206         estimate D2E/DX2                !
 ! D271  D(32,34,36,12)         -7.6933         estimate D2E/DX2                !
 ! D272  D(32,34,36,38)        147.3834         estimate D2E/DX2                !
 ! D273  D(74,34,36,12)       -151.8852         estimate D2E/DX2                !
 ! D274  D(74,34,36,38)          3.1915         estimate D2E/DX2                !
 ! D275  D(32,34,74,72)         -7.3925         estimate D2E/DX2                !
 ! D276  D(32,34,74,76)       -152.581          estimate D2E/DX2                !
 ! D277  D(36,34,74,72)        141.3578         estimate D2E/DX2                !
 ! D278  D(36,34,74,76)         -3.8307         estimate D2E/DX2                !
 ! D279  D(9,35,37,39)          -3.2135         estimate D2E/DX2                !
 ! D280  D(9,35,37,77)        -155.3347         estimate D2E/DX2                !
 ! D281  D(33,35,37,39)        153.3025         estimate D2E/DX2                !
 ! D282  D(33,35,37,77)          1.1813         estimate D2E/DX2                !
 ! D283  D(12,36,38,42)         -0.4469         estimate D2E/DX2                !
 ! D284  D(12,36,38,78)        155.869          estimate D2E/DX2                !
 ! D285  D(34,36,38,42)       -154.7139         estimate D2E/DX2                !
 ! D286  D(34,36,38,78)          1.6019         estimate D2E/DX2                !
 ! D287  D(35,37,39,43)          8.3745         estimate D2E/DX2                !
 ! D288  D(35,37,39,79)       -144.5645         estimate D2E/DX2                !
 ! D289  D(77,37,39,43)        161.2539         estimate D2E/DX2                !
 ! D290  D(77,37,39,79)          8.3148         estimate D2E/DX2                !
 ! D291  D(35,37,77,75)          0.1703         estimate D2E/DX2                !
 ! D292  D(35,37,77,81)        141.3118         estimate D2E/DX2                !
 ! D293  D(39,37,77,75)       -152.7445         estimate D2E/DX2                !
 ! D294  D(39,37,77,81)        -11.603          estimate D2E/DX2                !
 ! D295  D(36,38,42,46)         -2.9606         estimate D2E/DX2                !
 ! D296  D(36,38,42,80)        160.1313         estimate D2E/DX2                !
 ! D297  D(78,38,42,46)       -159.1201         estimate D2E/DX2                !
 ! D298  D(78,38,42,80)          3.9718         estimate D2E/DX2                !
 ! D299  D(36,38,78,76)         -5.8321         estimate D2E/DX2                !
 ! D300  D(36,38,78,81)       -143.6217         estimate D2E/DX2                !
 ! D301  D(42,38,78,76)        150.615          estimate D2E/DX2                !
 ! D302  D(42,38,78,81)         12.8254         estimate D2E/DX2                !
 ! D303  D(37,39,43,2)        -149.4827         estimate D2E/DX2                !
 ! D304  D(37,39,43,13)         -2.651          estimate D2E/DX2                !
 ! D305  D(79,39,43,2)           4.6302         estimate D2E/DX2                !
 ! D306  D(79,39,43,13)        151.4619         estimate D2E/DX2                !
 ! D307  D(37,39,79,40)        138.8773         estimate D2E/DX2                !
 ! D308  D(37,39,79,82)         -2.4371         estimate D2E/DX2                !
 ! D309  D(43,39,79,40)        -15.0565         estimate D2E/DX2                !
 ! D310  D(43,39,79,82)       -156.3709         estimate D2E/DX2                !
 ! D311  D(44,40,41,45)         -4.3648         estimate D2E/DX2                !
 ! D312  D(44,40,41,80)       -162.2528         estimate D2E/DX2                !
[...]
 Alpha virt. eigenvalues --    1.27139   1.27778   1.27915   1.27951   1.28426
 Alpha virt. eigenvalues --    1.28482   1.28524   1.29741   1.29787   1.30037
 Alpha virt. eigenvalues --    1.30332   1.30884   1.31171   1.31473   1.31870
 Alpha virt. eigenvalues --    1.31896   1.32812   1.32955   1.33325   1.33720
 Alpha virt. eigenvalues --    1.33775   1.34382   1.34566   1.34961   1.35195
 Alpha virt. eigenvalues --    1.36099   1.36220   1.36498   1.36850   1.36950
 Alpha virt. eigenvalues --    1.37716   1.37857   1.38650   1.38814   1.39127
 Alpha virt. eigenvalues --    1.39425   1.40289   1.40794   1.41564   1.42039
 Alpha virt. eigenvalues --    1.42549   1.43138   1.44506   1.44550   1.45389
 Alpha virt. eigenvalues --    1.45499   1.45822   1.45973   1.46241   1.46245
 Alpha virt. eigenvalues --    1.47889   1.48134   1.48683   1.48746   1.49246
 Alpha virt. eigenvalues --    1.50093   1.50409   1.50478   1.51208   1.52265
 Alpha virt. eigenvalues --    1.52560   1.53068   1.53208   1.54274   1.55258
 Alpha virt. eigenvalues --    1.55355   1.55899   1.55980   1.57375   1.57689
 Alpha virt. eigenvalues --    1.57878   1.58250   1.59064   1.59513   1.59582
 Alpha virt. eigenvalues --    1.60239   1.60684   1.61373   1.61556   1.62295
 Alpha virt. eigenvalues --    1.62412   1.62828   1.63302   1.63726   1.64171
 Alpha virt. eigenvalues --    1.64270   1.64350   1.64792   1.64893   1.65330
 Alpha virt. eigenvalues --    1.65454   1.65865   1.65901   1.66166   1.66375
 Alpha virt. eigenvalues --    1.66716   1.66866   1.67361   1.67493   1.67860
 Alpha virt. eigenvalues --    1.68082   1.68342   1.68367   1.68933   1.69690
 Alpha virt. eigenvalues --    1.69704   1.69737   1.69911   1.70096   1.70268
 Alpha virt. eigenvalues --    1.70683   1.70808   1.70818   1.71045   1.71360
 Alpha virt. eigenvalues --    1.71374   1.71718   1.71739   1.72017   1.72201
 Alpha virt. eigenvalues --    1.72586   1.72839   1.73337   1.73393   1.73693
 Alpha virt. eigenvalues --    1.74191   1.74203   1.74515   1.74731   1.75046
 Alpha virt. eigenvalues --    1.75067   1.75331   1.75507   1.75909   1.76205
 Alpha virt. eigenvalues --    1.76440   1.76459   1.76923   1.76930   1.77424
 Alpha virt. eigenvalues --    1.77472   1.77775   1.77785   1.78109   1.78296
 Alpha virt. eigenvalues --    1.78508   1.78674   1.78966   1.79085   1.79316
 Alpha virt. eigenvalues --    1.79511   1.80130   1.80545   1.80836   1.81456
 Alpha virt. eigenvalues --    1.81566   1.81785   1.81883   1.81924   1.82318
 Alpha virt. eigenvalues --    1.82590   1.82839   1.83513   1.83596   1.83850
 Alpha virt. eigenvalues --    1.85258   1.85642   1.85719   1.86188   1.86299
 Alpha virt. eigenvalues --    1.86582   1.87323   1.87499   1.87833   1.88359
 Alpha virt. eigenvalues --    1.88665   1.88918   1.88977   1.89856   1.89948
 Alpha virt. eigenvalues --    1.90425   1.90991   1.91098   1.91433   1.92279
 Alpha virt. eigenvalues --    1.92820   1.93065   1.93611   1.93615   1.94077
 Alpha virt. eigenvalues --    1.94147   1.94654   1.94945   1.95209   1.95425
 Alpha virt. eigenvalues --    1.95723   1.96188   1.97080   1.97099   1.97358
 Alpha virt. eigenvalues --    1.97551   1.97773   1.98341   1.98958   1.99070
 Alpha virt. eigenvalues --    1.99234   1.99334   1.99592   1.99680   2.00116
 Alpha virt. eigenvalues --    2.00522   2.00592   2.00799   2.01288   2.01299
 Alpha virt. eigenvalues --    2.01872   2.01931   2.02150   2.02233   2.02756
 Alpha virt. eigenvalues --    2.03255   2.03299   2.03947   2.04230   2.04446
 Alpha virt. eigenvalues --    2.04708   2.05108   2.05657   2.06163   2.06255
 Alpha virt. eigenvalues --    2.06988   2.07002   2.07566   2.07875   2.08117
 Alpha virt. eigenvalues --    2.08468   2.08557   2.09038   2.09327   2.09610
 Alpha virt. eigenvalues --    2.10012   2.10248   2.10628   2.11305   2.11525
 Alpha virt. eigenvalues --    2.12190   2.12242   2.13261   2.13388   2.13982
 Alpha virt. eigenvalues --    2.14138   2.14333   2.14875   2.15507   2.15848
 Alpha virt. eigenvalues --    2.15911   2.16993   2.17083   2.17343   2.18294
 Alpha virt. eigenvalues --    2.18546   2.19089   2.19122   2.19687   2.19824
 Alpha virt. eigenvalues --    2.20079   2.20438   2.20891   2.21427   2.21979
 Alpha virt. eigenvalues --    2.22027   2.22467   2.22497   2.23609   2.23950
 Alpha virt. eigenvalues --    2.24413   2.24621   2.24925   2.25314   2.25422
 Alpha virt. eigenvalues --    2.25635   2.26501   2.26880   2.27504   2.27699
 Alpha virt. eigenvalues --    2.28082   2.28409   2.28618   2.29309   2.29877
 Alpha virt. eigenvalues --    2.30293   2.30365   2.31231   2.31366   2.31639
 Alpha virt. eigenvalues --    2.32403   2.32814   2.33135   2.33476   2.34431
 Alpha virt. eigenvalues --    2.34511   2.35084   2.35628   2.35898   2.36416
 Alpha virt. eigenvalues --    2.37468   2.38181   2.38638   2.38825   2.40065
 Alpha virt. eigenvalues --    2.41130   2.41448   2.41849   2.42074   2.42228
 Alpha virt. eigenvalues --    2.42979   2.43077   2.43955   2.44330   2.44850
 Alpha virt. eigenvalues --    2.45058   2.45417   2.45946   2.46526   2.47310
 Alpha virt. eigenvalues --    2.48090   2.48271   2.48764   2.49397   2.49857
 Alpha virt. eigenvalues --    2.51144   2.51178   2.51711   2.51847   2.52370
 Alpha virt. eigenvalues --    2.52571   2.52973   2.53387   2.53676   2.53936
 Alpha virt. eigenvalues --    2.54550   2.54840   2.55131   2.55718   2.55721
 Alpha virt. eigenvalues --    2.56431   2.56866   2.56922   2.57050   2.57631
 Alpha virt. eigenvalues --    2.57867   2.58436   2.58826   2.58957   2.59178
 Alpha virt. eigenvalues --    2.59565   2.59678   2.60469   2.60864   2.60990
 Alpha virt. eigenvalues --    2.61043   2.61590   2.61678   2.62772   2.62772
 Alpha virt. eigenvalues --    2.63001   2.63180   2.63339   2.63846   2.63947
 Alpha virt. eigenvalues --    2.64322   2.64473   2.64777   2.65392   2.65425
 Alpha virt. eigenvalues --    2.65688   2.66231   2.66644   2.67509   2.68150
 Alpha virt. eigenvalues --    2.68363   2.69084   2.69333   2.69642   2.69733
 Alpha virt. eigenvalues --    2.70051   2.70153   2.70266   2.70779   2.70894
 Alpha virt. eigenvalues --    2.71659   2.71994   2.72048   2.72261   2.73215
 Alpha virt. eigenvalues --    2.73848   2.74345   2.74606   2.74869   2.75128
 Alpha virt. eigenvalues --    2.75786   2.76179   2.76473   2.76857   2.77416
 Alpha virt. eigenvalues --    2.77594   2.77785   2.78528   2.79665   2.80128
 Alpha virt. eigenvalues --    2.80295   2.80956   2.80997   2.81105   2.81813
 Alpha virt. eigenvalues --    2.82300   2.82567   2.82732   2.83707   2.84249
 Alpha virt. eigenvalues --    2.84586   2.85143   2.85714   2.86298   2.86764
 Alpha virt. eigenvalues --    2.87214   2.88083   2.88087   2.88864   2.89386
 Alpha virt. eigenvalues --    2.89580   2.89935   2.90298   2.90476   2.90820
 Alpha virt. eigenvalues --    2.91137   2.91188   2.91771   2.92093   2.92293
 Alpha virt. eigenvalues --    2.94164   2.94447   2.94924   2.95694   2.95700
 Alpha virt. eigenvalues --    2.96447   2.96623   2.98571   2.99550   2.99762
 Alpha virt. eigenvalues --    3.01172   3.02567   3.02654   3.04067   3.06715
 Alpha virt. eigenvalues --    3.06935   3.07350   3.09021   3.09965   3.10245
 Alpha virt. eigenvalues --    3.12294   3.13734   3.13947   3.15226   3.16527
 Alpha virt. eigenvalues --    3.18401   3.19196   3.21143   3.22162   3.22999
 Alpha virt. eigenvalues --    3.24619   3.25532   3.28337   3.30028   3.31994
 Alpha virt. eigenvalues --    3.32094   3.33903   3.36420   3.36558   3.40124
 Alpha virt. eigenvalues --    3.40925   3.43989   3.44017   3.46400   3.46972
 Alpha virt. eigenvalues --    3.51076   3.51180   3.54765   3.57957   3.61013
 Alpha virt. eigenvalues --    4.00189   4.01635   4.01930   4.03100   4.03208
 Alpha virt. eigenvalues --    4.03939   4.04067   4.04815   4.05417   4.05826
 Alpha virt. eigenvalues --    4.06483   4.06936   4.07748   4.08546   4.09067
 Alpha virt. eigenvalues --    4.09433   4.10242   4.10350   4.11135   4.12030
 Alpha virt. eigenvalues --    4.12465   4.13328   4.14716   4.15258   4.16877
 Alpha virt. eigenvalues --    4.16898   4.18532   4.19062   4.19746   4.20505
 Alpha virt. eigenvalues --    4.20858   4.21788   4.22410   4.22792   4.24016
 Alpha virt. eigenvalues --    4.25712   4.25829   4.27242   4.27437   4.27498
 Alpha virt. eigenvalues --    4.27999   4.28025   4.28748   4.29807   4.31077
 Alpha virt. eigenvalues --    4.31704   4.33611   4.33629   4.34611   4.36346
 Alpha virt. eigenvalues --    4.37106   4.39383   4.40149   4.41144   4.41416
 Alpha virt. eigenvalues --    4.43369   4.43709   4.44340   4.45817   4.48317
 Alpha virt. eigenvalues --    4.48443   4.49115   4.52149   4.52732   4.54287
 Alpha virt. eigenvalues --    4.56840   4.56911   4.58717   4.59857   4.61434
 Alpha virt. eigenvalues --    4.62412   4.64064   4.64957   4.67509   4.67723
 Alpha virt. eigenvalues --    4.71928   4.78736   4.80227   4.80973   4.83743
 Alpha virt. eigenvalues --    4.83867   4.84792   4.88266   4.94011   4.95766
 Alpha virt. eigenvalues --    5.00388   5.03960   5.08134   5.09160   5.13584
 Alpha virt. eigenvalues --    5.17366   5.24246
          Condensed to atoms (all electrons):
 Mulliken charges:
               1
     1  C   -0.024393
     2  C   -0.036409
     3  C    0.005429
     4  C   -0.379699
     5  C    0.047966
     6  C    0.006437
     7  C    0.009038
     8  C    0.090890
     9  C    0.043692
    10  C    0.078484
    11  C    0.088502
    12  C    0.042089
    13  C   -0.030015
    14  C    0.003908
    15  C   -0.006364
    16  C    0.009730
    17  C   -0.001857
    18  C    0.044093
    19  C   -0.009107
    20  C    0.044093
    21  C   -0.043514
    22  C    0.009730
    23  C    0.005553
    24  C    0.090890
    25  C    0.074751
    26  C    0.088502
    27  C    0.013495
    28  C   -0.375308
    29  C    0.041074
    30  C    0.087133
    31  C   -0.021621
    32  C    0.094580
    33  C   -0.030015
    34  C    0.001133
    35  C    0.043692
    36  C    0.034204
    37  C    0.047966
    38  C    0.073973
    39  C    0.041074
    40  C   -0.000004
    41  C    0.081638
    42  C    0.118638
    43  C   -0.021621
    44  C    0.076905
    45  C    0.144735
    46  C    0.077300
    47  C    0.101378
    48  C    0.126878
    49  C   -0.356435
    50  C   -0.375308
    51  C    0.094580
    52  C    0.087133
    53  C    0.025911
    54  C    0.005429
    55  C    0.001133
    56  C    0.009038
    57  C    0.073973
    58  C    0.003908
    59  C    0.118638
    60  C    0.077300
    61  C   -0.368290
    62  C   -0.379699
    63  C    0.081638
    64  C    0.144735
    65  C   -0.000004
    66  C    0.126878
    67  C    0.076905
    68  C    0.101378
    69  C   -0.036409
    70  C   -0.356435
    71  C    0.006437
    72  C    0.078484
    73  C   -0.006363
    74  C    0.025911
    75  C   -0.001857
    76  C   -0.009107
    77  C   -0.024393
    78  C   -0.043514
    79  C    0.013495
    80  C   -0.368290
    81  C    0.005553
    82  C    0.074751
    83  C    0.034204
    84  C    0.042089
    85  Cl   0.009132
    86  Cl  -0.006874
    87  Cl   0.008382
    88  Cl  -0.007160
    89  Cl   0.008382
    90  Cl   0.009132
    91  Cl  -0.006874
    92  Cl  -0.007160
 Sum of Mulliken charges =  -0.00000
 Mulliken charges with hydrogens summed into heavy atoms:
               1
     1  C   -0.024393
     2  C   -0.036409
     3  C    0.005429
     4  C   -0.379699
     5  C    0.047966
     6  C    0.006437
     7  C    0.009038
     8  C    0.090890
     9  C    0.043692
    10  C    0.078484
    11  C    0.088502
    12  C    0.042089
    13  C   -0.030015
    14  C    0.003908
    15  C   -0.006364
    16  C    0.009730
    17  C   -0.001857
    18  C    0.044093
    19  C   -0.009107
    20  C    0.044093
    21  C   -0.043514
    22  C    0.009730
    23  C    0.005553
    24  C    0.090890
    25  C    0.074751
    26  C    0.088502
    27  C    0.013495
    28  C   -0.375308
    29  C    0.041074
    30  C    0.087133
    31  C   -0.021621
    32  C    0.094580
    33  C   -0.030015
    34  C    0.001133
    35  C    0.043692
    36  C    0.034204
    37  C    0.047966
    38  C    0.073973
    39  C    0.041074
    40  C   -0.000004
    41  C    0.081638
    42  C    0.118638
    43  C   -0.021621
    44  C    0.076905
    45  C    0.144735
    46  C    0.077300
    47  C    0.101378
    48  C    0.126878
    49  C   -0.356435
    50  C   -0.375308
    51  C    0.094580
    52  C    0.087133
    53  C    0.025911
    54  C    0.005429
    55  C    0.001133
    56  C    0.009038
    57  C    0.073973
    58  C    0.003908
    59  C    0.118638
    60  C    0.077300
    61  C   -0.368290
    62  C   -0.379699
    63  C    0.081638
    64  C    0.144735
    65  C   -0.000004
    66  C    0.126878
    67  C    0.076905
    68  C    0.101378
    69  C   -0.036409
    70  C   -0.356435
    71  C    0.006437
    72  C    0.078484
    73  C   -0.006363
    74  C    0.025911
    75  C   -0.001857
    76  C   -0.009107
    77  C   -0.024393
    78  C   -0.043514
    79  C    0.013495
    80  C   -0.368290
    81  C    0.005553
    82  C    0.074751
    83  C    0.034204
    84  C    0.042089
    85  Cl   0.009132
    86  Cl  -0.006874
    87  Cl   0.008382
    88  Cl  -0.007160
    89  Cl   0.008382
    90  Cl   0.009132
    91  Cl  -0.006874
    92  Cl  -0.007160
 Electronic spatial extent (au):  <R**2>=          52307.8749
 Charge=             -0.0000 electrons
 Dipole moment (field-independent basis, Debye):
    X=             -0.0000    Y=              0.0000    Z=              2.5739  Tot=              2.5739
 Quadrupole moment (field-independent basis, Debye-Ang):
   XX=           -611.0645   YY=           -569.9236   ZZ=           -552.9281
   XY=              5.2929   XZ=              0.0000   YZ=             -0.0000
 Traceless Quadrupole moment (field-independent basis, Debye-Ang):
   XX=            -33.0924   YY=              8.0484   ZZ=             25.0440
   XY=              5.2929   XZ=              0.0000   YZ=             -0.0000
 Octapole moment (field-independent basis, Debye-Ang**2):
  XXX=             -0.0001  YYY=             -0.0000  ZZZ=            -50.5470  XYY=             -0.0000
  XXY=             -0.0000  XXZ=             59.3134  XZZ=             -0.0000  YZZ=              0.0000
  YYZ=            -21.8611  XYZ=             -6.2465
 Hexadecapole moment (field-independent basis, Debye-Ang**3):
 XXXX=         -32317.8985 YYYY=         -23791.7540 ZZZZ=         -19313.3429 XXXY=           -183.7136
 XXXZ=              0.0001 YYYX=             95.5025 YYYZ=             -0.0001 ZZZX=              0.0000
 ZZZY=             -0.0001 XXYY=          -9678.2361 XXZZ=          -8608.4305 YYZZ=          -7161.1933
 XXYZ=             -0.0002 YYXZ=              0.0001 ZZXY=             -8.7210
 N-N= 2.043996548682D+04 E-N=-5.702848429588D+04  KE= 6.841406266895D+03
 No NMR shielding tensors so no spin-rotation constants.
 Leave Link  601 at Wed Jun 29 00:39:03 2022, MaxMem=  1342177280 cpu:              24.1 elap:               1.2
 (Enter /home/mkliu/g16/l9999.exe)
 1\1\GINC-NODE05\FOpt\RB3LYP\6-31G(d,p)\C84Cl8\MKLIU\29-Jun-2022\0\\#P 
 opt b3lyp/6-31G(d, p) empiricaldispersion=GD3\\force\\0,1\C,8.48832410
 94,18.8496649936,10.7680320713\C,12.3809183831,20.1328131372,8.9446058
 424\C,8.2511422711,26.8351157873,10.5201635754\C,12.509151042,25.75255
 7385,8.9004787762\C,8.0174586862,19.075979479,9.4475719214\C,12.055981
 7104,19.4924058636,10.2016158319\C,7.939305188,26.8169074885,9.1300166
 758\C,11.8879776757,26.1666285487,10.2140359245\C,8.9953838434,19.1667
 29603,8.35427782\C,12.3402095363,20.1156216518,11.3897973853\C,12.1453
 667927,25.5170830093,11.3785997657\C,8.9543818654,26.6330983094,8.1447
 380683\C,10.3532804104,19.0032671712,8.677385378\C,10.2908280806,26.67
 43436994,8.6078813265\C,10.8014524123,18.7894147824,10.0233236201\C,10
 .6081674869,26.7675304544,9.9916586258\C,9.8816397398,18.7252265573,11
 .0567494167\C,9.5886006728,26.7465102654,10.9832361171\C,10.1586350316
 ,19.4146554659,12.3035270613\C,9.8487336086,26.0237435819,12.206714206
 1\C,8.9438347415,19.9650534497,12.8023707435\C,8.7503251793,25.3955396
 089,12.8563624678\C,7.8807479812,19.5016489233,11.9121427094\C,7.41026
 41749,25.5324315196,12.3726828283\C,6.7285244684,20.2154200118,11.7609
 824416\C,7.1606012825,26.2414798763,11.2416274051\C,6.1604027791,20.34
 85163735,10.473469208\C,6.0131713059,25.9198058865,10.3004810159\C,6.7
 574424507,19.7763544788,9.3217941275\C,6.6298334836,26.2750230523,8.96
 22614772\C,6.4150267299,20.3788523777,8.0863511225\C,6.3278094551,25.6
 127762681,7.8199044485\C,7.3431639568,20.3598563183,6.9624797328\C,7.3
 069938377,25.4587789818,6.7833255406\C,8.6631350089,19.9043181892,7.12
 11078817\C,8.6564159781,25.8884518575,6.9450596305\C,9.7185308663,20.5
 916940147,6.3637972252\C,9.7201653558,25.1501698554,6.2741181704\C,11.
 0692535248,20.5898775775,6.8829610312\C,12.756625603,22.1870000583,7.7
 53108601\C,12.7949457704,23.5985049091,7.7478935409\C,11.0672722311,25
 .1896989685,6.8338515462\C,11.3848639792,19.7809444376,8.0021522169\C,
 12.9569603475,21.4451007433,8.933561996\C,12.9442372999,24.2964538791,
 8.9264956505\C,11.3299266661,25.9595028211,7.9353036489\C,13.200361867
 7,22.1667628992,10.1535139309\C,13.1615029678,23.5704648658,10.1486518
 912\C,13.1885278566,21.3780875105,11.4699207854\C,13.0979913061,24.338
 4987829,11.4748913985\C,12.4595891902,22.152122282,12.5513325532\C,12.
 4193606169,23.5060432503,12.5443591852\C,11.3621097271,20.1140745876,1
 2.437209806\C,11.1188659189,25.4166390692,12.3777994671\C,11.361536919
 9,21.3906821984,13.0723921997\C,11.2668735468,24.1731459959,13.0574324
 257\C,8.8934630493,21.2764711115,13.3434929119\C,8.8897977316,24.11891
 89795,13.4687470949\C,7.6494679218,22.0310373444,13.2309461211\C,7.664
 068238,23.3964576594,13.3319230842\C,6.4016443654,21.4101715909,12.626
 2621244\C,6.5801775191,24.3375976694,12.7802021291\C,5.7559054818,22.3
 446687853,11.5974578821\C,5.8754724809,23.7172826517,11.5848717249\C,5
 .5190415403,21.6368962357,10.3987939957\C,5.6563509148,24.4289791952,1
 0.3546668276\C,5.3087535774,22.3021437863,9.1751749628\C,5.3457391798,
 23.7398294202,9.1712371677\C,5.6159729545,21.5441463512,7.9982717186\C
 ,5.348055193,24.4552038041,7.8135515672\C,5.9458296637,22.2224436098,6
 .7625990944\C,5.9203728054,23.5921026957,6.696684179\C,7.0122443705,21
 .4767055954,6.1250547238\C,6.9882746075,24.2852427598,6.0387350616\C,8
 .0096042583,22.1381093502,5.4279445047\C,8.0105111059,23.5888907959,5.
 3864038233\C,9.3602722623,21.6852282383,5.5317027937\C,9.3564412154,24
 .0483635805,5.4562585302\C,11.8888459099,21.7316626407,6.696477303\C,1
 2.0963932163,24.1262680422,6.4900413622\C,10.2048449811,22.8584279085,
 5.4154251253\C,11.450324905,22.8628540482,5.9710309252\C,10.1476042682
 ,22.0044554223,13.4982640061\C,10.1336567738,23.4471218096,13.53034794
 77\Cl,13.923738353,26.8542990159,8.4541350149\Cl,13.3253096906,24.7893
 229363,5.2678181254\Cl,14.7914290611,24.8790867328,11.9695876559\Cl,14
 .9293183848,20.960653718,11.9554337414\Cl,4.5220143749,26.9370459571,1
 0.6830585008\Cl,5.3668992045,24.7862001124,14.0996052313\Cl,5.19888143
 82,20.9485357601,13.9619122949\Cl,3.6232314485,24.995601093,7.39728435
 37\\Version=ES64L-G16RevA.03\State=1-A\HF=-6882.6299875\RMSD=5.266e-09
 \RMSF=7.123e-05\Dipole=-0.1138469,-0.8767678,-0.4937422\Quadrupole=-23
 .279123,15.5804124,7.6987106,1.0870465,7.7306173,5.1461762\PG=C01 [X(C
 84Cl8)]\\@


 IF THERE IS ONE WAY BETTER THAN ANOTHER IT IS THE WAY OF NATURE.

                          -- ARISTOTLE
 Job cpu time:       1 days  3 hours 20 minutes 48.6 seconds.
 Elapsed time:       0 days  1 hours  8 minutes 27.9 seconds.
 File lengths (MBytes):  RWF=   1225 Int=      0 D2E=      0 Chk=    154 Scr=      1
 Normal termination of Gaussian 16 at Wed Jun 29 00:39:05 2022.
