 Entering Gaussian System, Link 0=g16
 Input=8_addons_C84_11_Cl22_rank_1.gjf
 Output=8_addons_C84_11_Cl22_rank_1.log
 Initial command:
 /home/mkliu/g16/l1.exe "/data/scratch/Gau-134641.inp" -scrdir="/data/scratch/"
 Entering Link 1 = /home/mkliu/g16/l1.exe PID=    134642.
  
 Copyright (c) 1988,1990,1992,1993,1995,1998,2003,2009,2016,
            Gaussian, Inc.  All Rights Reserved.
  
 This is part of the Gaussian(R) 16 program.  It is based on
 the Gaussian(R) 09 system (copyright 2009, Gaussian, Inc.),
 the Gaussian(R) 03 system (copyright 2003, Gaussian, Inc.),
 the Gaussian(R) 98 system (copyright 1998, Gaussian, Inc.),
 the Gaussian(R) 94 system (copyright 1995, Gaussian, Inc.),
 the Gaussian 92(TM) system (copyright 1992, Gaussian, Inc.),
 the Gaussian 90(TM) system (copyright 1990, Gaussian, Inc.),
 the Gaussian 88(TM) system (copyright 1988, Gaussian, Inc.),
 the Gaussian 86(TM) system (copyright 1986, Carnegie Mellon
 University), and the Gaussian 82(TM) system (copyright 1983,
 Carnegie Mellon University). Gaussian is a federally registered
 trademark of Gaussian, Inc.
  
 This software contains proprietary and confidential information,
 including trade secrets, belonging to Gaussian, Inc.
  
 This software is provided under written license and may be
 used, copied, transmitted, or stored only in accord with that
 written license.
  
 The following legend is applicable only to US Government
 contracts under FAR:
  
                    RESTRICTED RIGHTS LEGEND
  
 Use, reproduction and disclosure by the US Government is
 subject to restrictions as set forth in subparagraphs (a)
 and (c) of the Commercial Computer Software - Restricted
 Rights clause in FAR 52.227-19.
  
 Gaussian, Inc.
 340 Quinnipiac St., Bldg. 40, Wallingford CT 06492
  
  
 ---------------------------------------------------------------
 Warning -- This program may not be used in any manner that
 competes with the business of Gaussian, Inc. or will provide
 assistance to any competitor of Gaussian, Inc.  The licensee
 of this program is prohibited from giving any competitor of
 Gaussian, Inc. access to this program.  By using this program,
 the user acknowledges that Gaussian, Inc. is engaged in the
 business of creating and licensing software in the field of
 computational chemistry and represents and warrants to the
 licensee that it is not a competitor of Gaussian, Inc. and that
 it will not use this program in any manner prohibited above.
 ---------------------------------------------------------------
  

 Cite this work as:
 Gaussian 16, Revision A.03,
 M. J. Frisch, G. W. Trucks, H. B. Schlegel, G. E. Scuseria, 
 M. A. Robb, J. R. Cheeseman, G. Scalmani, V. Barone, 
 G. A. Petersson, H. Nakatsuji, X. Li, M. Caricato, A. V. Marenich, 
 J. Bloino, B. G. Janesko, R. Gomperts, B. Mennucci, H. P. Hratchian, 
 J. V. Ortiz, A. F. Izmaylov, J. L. Sonnenberg, D. Williams-Young, 
 F. Ding, F. Lipparini, F. Egidi, J. Goings, B. Peng, A. Petrone, 
 T. Henderson, D. Ranasinghe, V. G. Zakrzewski, J. Gao, N. Rega, 
 G. Zheng, W. Liang, M. Hada, M. Ehara, K. Toyota, R. Fukuda, 
 J. Hasegawa, M. Ishida, T. Nakajima, Y. Honda, O. Kitao, H. Nakai, 
 T. Vreven, K. Throssell, J. A. Montgomery, Jr., J. E. Peralta, 
 F. Ogliaro, M. J. Bearpark, J. J. Heyd, E. N. Brothers, K. N. Kudin, 
 V. N. Staroverov, T. A. Keith, R. Kobayashi, J. Normand, 
 K. Raghavachari, A. P. Rendell, J. C. Burant, S. S. Iyengar, 
 J. Tomasi, M. Cossi, J. M. Millam, M. Klene, C. Adamo, R. Cammi, 
 J. W. Ochterski, R. L. Martin, K. Morokuma, O. Farkas, 
 J. B. Foresman, and D. J. Fox, Gaussian, Inc., Wallingford CT, 2016.
 
 ******************************************
 Gaussian 16:  ES64L-G16RevA.03 25-Dec-2016
                27-Jun-2022 
 ******************************************
 %mem=10GB
 %chk=8_addons_C84_11_Cl22_rank_1.chk
 %nprocshared=24
 Will use up to   24 processors via shared memory.
 ------------------------------------------------
 #P opt b3lyp/6-31G(d, p) empiricaldispersion=GD3
 ------------------------------------------------
 1/18=20,19=15,26=3,38=1/1,3;
 2/9=110,12=2,17=6,18=5,40=1/2;
 3/5=1,6=6,7=101,11=2,25=1,30=1,71=1,74=-5,124=31/1,2,3;
 4//1;
 5/5=2,38=5/2;
 6/7=2,8=2,9=2,10=2,28=1/1;
 7//1,2,3,16;
 1/18=20,19=15,26=3/3(2);
 2/9=110/2;
 99//99;
 2/9=110/2;
 3/5=1,6=6,7=101,11=2,25=1,30=1,71=1,74=-5,124=31/1,2,3;
 4/5=5,16=3,69=1/1;
 5/5=2,38=5/2;
 7//1,2,3,16;
 1/18=20,19=15,26=3/3(-5);
 2/9=110/2;
 6/7=2,8=2,9=2,10=2,19=2,28=1/1;
 99/9=1/99;
 Leave Link    1 at Mon Jun 27 02:47:21 2022, MaxMem=  1342177280 cpu:               0.6 elap:               0.1
 (Enter /home/mkliu/g16/l101.exe)
 -----
 force
 -----
 Symbolic Z-matrix:
 Charge =  0 Multiplicity = 1
 C                     8.47835   18.87697   10.77414 
 C                     12.55348   19.9962   8.89491 
 C                     8.24777   26.86347   10.52574 
 C                     12.45704   25.74048   8.92836 
 C                     7.99695   19.09693   9.47104 
 C                     12.05142   19.50086   10.21654 
 C                     7.93923   26.84372   9.15685 
 C                     11.85983   26.17152   10.23663 
 C                     8.96326   19.21632   8.39725 
 C                     12.31861   20.14154   11.38714 
 C                     12.11751   25.51967   11.39834 
 C                     8.93062   26.59287   8.17652 
 C                     10.32675   19.08532   8.70834 
 C                     10.2552   26.62766   8.64833 
 C                     10.79228   18.85288   10.03375 
 C                     10.58258   26.76685   10.0297 
 C                     9.86791   18.77109   11.06009 
 C                     9.58007   26.76674   11.01325 
 C                     10.14324   19.45126   12.29124 
 C                     9.83863   26.04995   12.23295 
 C                     8.92842   20.01173   12.78484 
 C                     8.76      25.42133   12.89832 
 C                     7.88423   19.53632   11.91075 
 C                     7.42389   25.49952   12.3649 
 C                     6.73383   20.2602   11.75785 
 C                     7.16803   26.20407   11.22297 
 C                     6.10515   20.34119   10.47659 
 C                     6.21998   25.70437   10.25953 
 C                     6.7233    19.76554   9.34333 
 C                     6.64331   26.21054   9.00222 
 C                     6.3933    20.35897   8.11904 
 C                     6.32957   25.55154   7.85157 
 C                     7.31868   20.36031   7.01621 
 C                     7.19479   25.62992   6.61844 
 C                     8.64628   19.93399   7.1905 
 C                     8.65199   25.83734   6.99618 
 C                     9.68225   20.62428   6.45983 
 C                     9.6697    25.11772   6.38221 
 C                     11.0338   20.58242   6.93273 
 C                     12.66035   22.18658   7.80035 
 C                     12.64408   23.573    7.79944 
 C                     10.99699   25.14653   6.89531 
 C                     11.33901   19.79707   8.00379 
 C                     12.86162   21.47072   8.96726 
 C                     12.81527   24.27918   8.97738 
 C                     11.28211   25.92587   7.98942 
 C                     13.07884   22.16958   10.16328 
 C                     13.04712   23.57516   10.16745 
 C                     13.14601   21.39595   11.47122 
 C                     13.05004   24.34139   11.48084 
 C                     12.41277   22.16547   12.53735 
 C                     12.37422   23.51734   12.53618 
 C                     11.33011   20.14776   12.42086 
 C                     11.09476   25.42835   12.39044 
 C                     11.31659   21.41935   13.06183 
 C                     11.232    24.18081   13.06009 
 C                     8.87657   21.29605   13.35328 
 C                     8.88745   24.15094   13.49534 
 C                     7.63438   22.03176   13.22162 
 C                     7.64739   23.43156   13.31804 
 C                     6.57499   21.50527   12.44622 
 C                     6.75086   24.25184   12.58817 
 C                     5.75441   22.32405   11.62541 
 C                     5.86039   23.72202   11.62214 
 C                     5.45769   21.60299   10.41225 
 C                     5.61389   24.44119   10.38804 
 C                     5.25157   22.27269   9.19656 
 C                     5.30881   23.72089   9.17549 
 C                     5.5951    21.53508   8.03885 
 C                     5.62233   24.332    7.93943 
 C                     5.94104   22.19599   6.81682 
 C                     5.96144   23.57216   6.76804 
 C                     6.98859   21.45893   6.18392 
 C                     6.9695    24.27031   6.0267 
 C                     7.99523   22.14896   5.51536 
 C                     7.96484   23.57649   5.41479 
 C                     9.32741   21.70407   5.62817 
 C                     9.36156   24.11162   5.28806 
 C                     12.03876   21.63387   6.54753 
 C                     12.03907   24.11949   6.52871 
 C                     10.18429   22.86112   5.48623 
 C                     11.42607   22.874    5.97197 
 C                     10.12207   22.0238   13.50335 
 C                     10.11406   23.46148   13.54389 
 Cl                    13.88967   26.71602   8.4411 
 Cl                    13.28819   24.85169   5.45078 
 Cl                    9.68064   24.88571   3.68902 
 Cl                    6.68891   26.97146   5.51284 
 Cl                    14.74182   24.80073   11.88955 
 Cl                    14.8752   21.08144   11.86783 
 Cl                    13.9989   19.09478   8.30641 
 Cl                    13.28295   20.93156   5.43023 
 
 ITRead=  0  0  0  0  0  0  0  0  0  0  0  0  0  0  0  0  0  0  0  0
 ITRead=  0  0  0  0  0  0  0  0  0  0  0  0  0  0  0  0  0  0  0  0
 ITRead=  0  0  0  0  0  0  0  0  0  0  0  0  0  0  0  0  0  0  0  0
 ITRead=  0  0  0  0  0  0  0  0  0  0  0  0  0  0  0  0  0  0  0  0
 ITRead=  0  0  0  0  0  0  0  0  0  0  0  0
 MicOpt= -1 -1 -1 -1 -1 -1 -1 -1 -1 -1 -1 -1 -1 -1 -1 -1 -1 -1 -1 -1
 MicOpt= -1 -1 -1 -1 -1 -1 -1 -1 -1 -1 -1 -1 -1 -1 -1 -1 -1 -1 -1 -1
 MicOpt= -1 -1 -1 -1 -1 -1 -1 -1 -1 -1 -1 -1 -1 -1 -1 -1 -1 -1 -1 -1
 MicOpt= -1 -1 -1 -1 -1 -1 -1 -1 -1 -1 -1 -1 -1 -1 -1 -1 -1 -1 -1 -1
 MicOpt= -1 -1 -1 -1 -1 -1 -1 -1 -1 -1 -1 -1
 NAtoms=     92 NQM=       92 NQMF=       0 NMMI=      0 NMMIF=      0
                NMic=       0 NMicF=      0.
                    Isotopes and Nuclear Properties:
 (Nuclear quadrupole moments (NQMom) in fm**2, nuclear magnetic moments (NMagM)
  in nuclear magnetons)

  Atom         1           2           3           4           5           6           7           8           9          10
 IAtWgt=          12          12          12          12          12          12          12          12          12          12
 AtmWgt=  12.0000000  12.0000000  12.0000000  12.0000000  12.0000000  12.0000000  12.0000000  12.0000000  12.0000000  12.0000000
 NucSpn=           0           0           0           0           0           0           0           0           0           0
 AtZEff=  -0.0000000  -0.0000000  -0.0000000  -0.0000000  -0.0000000  -0.0000000  -0.0000000  -0.0000000  -0.0000000  -0.0000000
 NQMom=    0.0000000   0.0000000   0.0000000   0.0000000   0.0000000   0.0000000   0.0000000   0.0000000   0.0000000   0.0000000
 NMagM=    0.0000000   0.0000000   0.0000000   0.0000000   0.0000000   0.0000000   0.0000000   0.0000000   0.0000000   0.0000000
 AtZNuc=   6.0000000   6.0000000   6.0000000   6.0000000   6.0000000   6.0000000   6.0000000   6.0000000   6.0000000   6.0000000

  Atom        11          12          13          14          15          16          17          18          19          20
 IAtWgt=          12          12          12          12          12          12          12          12          12          12
 AtmWgt=  12.0000000  12.0000000  12.0000000  12.0000000  12.0000000  12.0000000  12.0000000  12.0000000  12.0000000  12.0000000
 NucSpn=           0           0           0           0           0           0           0           0           0           0
 AtZEff=  -0.0000000  -0.0000000  -0.0000000  -0.0000000  -0.0000000  -0.0000000  -0.0000000  -0.0000000  -0.0000000  -0.0000000
 NQMom=    0.0000000   0.0000000   0.0000000   0.0000000   0.0000000   0.0000000   0.0000000   0.0000000   0.0000000   0.0000000
 NMagM=    0.0000000   0.0000000   0.0000000   0.0000000   0.0000000   0.0000000   0.0000000   0.0000000   0.0000000   0.0000000
 AtZNuc=   6.0000000   6.0000000   6.0000000   6.0000000   6.0000000   6.0000000   6.0000000   6.0000000   6.0000000   6.0000000

  Atom        21          22          23          24          25          26          27          28          29          30
 IAtWgt=          12          12          12          12          12          12          12          12          12          12
 AtmWgt=  12.0000000  12.0000000  12.0000000  12.0000000  12.0000000  12.0000000  12.0000000  12.0000000  12.0000000  12.0000000
 NucSpn=           0           0           0           0           0           0           0           0           0           0
 AtZEff=  -0.0000000  -0.0000000  -0.0000000  -0.0000000  -0.0000000  -0.0000000  -0.0000000  -0.0000000  -0.0000000  -0.0000000
 NQMom=    0.0000000   0.0000000   0.0000000   0.0000000   0.0000000   0.0000000   0.0000000   0.0000000   0.0000000   0.0000000
 NMagM=    0.0000000   0.0000000   0.0000000   0.0000000   0.0000000   0.0000000   0.0000000   0.0000000   0.0000000   0.0000000
 AtZNuc=   6.0000000   6.0000000   6.0000000   6.0000000   6.0000000   6.0000000   6.0000000   6.0000000   6.0000000   6.0000000

  Atom        31          32          33          34          35          36          37          38          39          40
 IAtWgt=          12          12          12          12          12          12          12          12          12          12
 AtmWgt=  12.0000000  12.0000000  12.0000000  12.0000000  12.0000000  12.0000000  12.0000000  12.0000000  12.0000000  12.0000000
 NucSpn=           0           0           0           0           0           0           0           0           0           0
 AtZEff=  -0.0000000  -0.0000000  -0.0000000  -0.0000000  -0.0000000  -0.0000000  -0.0000000  -0.0000000  -0.0000000  -0.0000000
 NQMom=    0.0000000   0.0000000   0.0000000   0.0000000   0.0000000   0.0000000   0.0000000   0.0000000   0.0000000   0.0000000
 NMagM=    0.0000000   0.0000000   0.0000000   0.0000000   0.0000000   0.0000000   0.0000000   0.0000000   0.0000000   0.0000000
 AtZNuc=   6.0000000   6.0000000   6.0000000   6.0000000   6.0000000   6.0000000   6.0000000   6.0000000   6.0000000   6.0000000

  Atom        41          42          43          44          45          46          47          48          49          50
 IAtWgt=          12          12          12          12          12          12          12          12          12          12
 AtmWgt=  12.0000000  12.0000000  12.0000000  12.0000000  12.0000000  12.0000000  12.0000000  12.0000000  12.0000000  12.0000000
 NucSpn=           0           0           0           0           0           0           0           0           0           0
 AtZEff=  -0.0000000  -0.0000000  -0.0000000  -0.0000000  -0.0000000  -0.0000000  -0.0000000  -0.0000000  -0.0000000  -0.0000000
 NQMom=    0.0000000   0.0000000   0.0000000   0.0000000   0.0000000   0.0000000   0.0000000   0.0000000   0.0000000   0.0000000
 NMagM=    0.0000000   0.0000000   0.0000000   0.0000000   0.0000000   0.0000000   0.0000000   0.0000000   0.0000000   0.0000000
 AtZNuc=   6.0000000   6.0000000   6.0000000   6.0000000   6.0000000   6.0000000   6.0000000   6.0000000   6.0000000   6.0000000

  Atom        51          52          53          54          55          56          57          58          59          60
 IAtWgt=          12          12          12          12          12          12          12          12          12          12
 AtmWgt=  12.0000000  12.0000000  12.0000000  12.0000000  12.0000000  12.0000000  12.0000000  12.0000000  12.0000000  12.0000000
 NucSpn=           0           0           0           0           0           0           0           0           0           0
 AtZEff=  -0.0000000  -0.0000000  -0.0000000  -0.0000000  -0.0000000  -0.0000000  -0.0000000  -0.0000000  -0.0000000  -0.0000000
 NQMom=    0.0000000   0.0000000   0.0000000   0.0000000   0.0000000   0.0000000   0.0000000   0.0000000   0.0000000   0.0000000
 NMagM=    0.0000000   0.0000000   0.0000000   0.0000000   0.0000000   0.0000000   0.0000000   0.0000000   0.0000000   0.0000000
 AtZNuc=   6.0000000   6.0000000   6.0000000   6.0000000   6.0000000   6.0000000   6.0000000   6.0000000   6.0000000   6.0000000

  Atom        61          62          63          64          65          66          67          68          69          70
 IAtWgt=          12          12          12          12          12          12          12          12          12          12
 AtmWgt=  12.0000000  12.0000000  12.0000000  12.0000000  12.0000000  12.0000000  12.0000000  12.0000000  12.0000000  12.0000000
 NucSpn=           0           0           0           0           0           0           0           0           0           0
 AtZEff=  -0.0000000  -0.0000000  -0.0000000  -0.0000000  -0.0000000  -0.0000000  -0.0000000  -0.0000000  -0.0000000  -0.0000000
 NQMom=    0.0000000   0.0000000   0.0000000   0.0000000   0.0000000   0.0000000   0.0000000   0.0000000   0.0000000   0.0000000
 NMagM=    0.0000000   0.0000000   0.0000000   0.0000000   0.0000000   0.0000000   0.0000000   0.0000000   0.0000000   0.0000000
 AtZNuc=   6.0000000   6.0000000   6.0000000   6.0000000   6.0000000   6.0000000   6.0000000   6.0000000   6.0000000   6.0000000

  Atom        71          72          73          74          75          76          77          78          79          80
 IAtWgt=          12          12          12          12          12          12          12          12          12          12
 AtmWgt=  12.0000000  12.0000000  12.0000000  12.0000000  12.0000000  12.0000000  12.0000000  12.0000000  12.0000000  12.0000000
 NucSpn=           0           0           0           0           0           0           0           0           0           0
 AtZEff=  -0.0000000  -0.0000000  -0.0000000  -0.0000000  -0.0000000  -0.0000000  -0.0000000  -0.0000000  -0.0000000  -0.0000000
 NQMom=    0.0000000   0.0000000   0.0000000   0.0000000   0.0000000   0.0000000   0.0000000   0.0000000   0.0000000   0.0000000
 NMagM=    0.0000000   0.0000000   0.0000000   0.0000000   0.0000000   0.0000000   0.0000000   0.0000000   0.0000000   0.0000000
 AtZNuc=   6.0000000   6.0000000   6.0000000   6.0000000   6.0000000   6.0000000   6.0000000   6.0000000   6.0000000   6.0000000

  Atom        81          82          83          84          85          86          87          88          89          90
 IAtWgt=          12          12          12          12          35          35          35          35          35          35
 AtmWgt=  12.0000000  12.0000000  12.0000000  12.0000000  34.9688527  34.9688527  34.9688527  34.9688527  34.9688527  34.9688527
 NucSpn=           0           0           0           0           3           3           3           3           3           3
 AtZEff=  -0.0000000  -0.0000000  -0.0000000  -0.0000000  -0.0000000  -0.0000000  -0.0000000  -0.0000000  -0.0000000  -0.0000000
 NQMom=    0.0000000   0.0000000   0.0000000   0.0000000  -8.1650000  -8.1650000  -8.1650000  -8.1650000  -8.1650000  -8.1650000
 NMagM=    0.0000000   0.0000000   0.0000000   0.0000000   0.8218740   0.8218740   0.8218740   0.8218740   0.8218740   0.8218740
 AtZNuc=   6.0000000   6.0000000   6.0000000   6.0000000  17.0000000  17.0000000  17.0000000  17.0000000  17.0000000  17.0000000

  Atom        91          92
 IAtWgt=          35          35
 AtmWgt=  34.9688527  34.9688527
 NucSpn=           3           3
 AtZEff=  -0.0000000  -0.0000000
 NQMom=   -8.1650000  -8.1650000
 NMagM=    0.8218740   0.8218740
 AtZNuc=  17.0000000  17.0000000
 Leave Link  101 at Mon Jun 27 02:47:22 2022, MaxMem=  1342177280 cpu:               6.6 elap:               0.3
 (Enter /home/mkliu/g16/l103.exe)

 GradGradGradGradGradGradGradGradGradGradGradGradGradGradGradGradGradGrad
 Berny optimization.
 Initialization pass.
                           ----------------------------
                           !    Initial Parameters    !
                           ! (Angstroms and Degrees)  !
 --------------------------                            --------------------------
 ! Name  Definition              Value          Derivative Info.                !
 --------------------------------------------------------------------------------
 ! R1    R(1,5)                  1.4065         estimate D2E/DX2                !
 ! R2    R(1,17)                 1.4226         estimate D2E/DX2                !
 ! R3    R(1,23)                 1.4421         estimate D2E/DX2                !
 ! R4    R(2,6)                  1.498          estimate D2E/DX2                !
 ! R5    R(2,43)                 1.5194         estimate D2E/DX2                !
 ! R6    R(2,44)                 1.5081         estimate D2E/DX2                !
 ! R7    R(2,91)                 1.8023         estimate D2E/DX2                !
 ! R8    R(3,7)                  1.4034         estimate D2E/DX2                !
 ! R9    R(3,18)                 1.422          estimate D2E/DX2                !
 ! R10   R(3,26)                 1.4446         estimate D2E/DX2                !
 ! R11   R(4,8)                  1.5013         estimate D2E/DX2                !
 ! R12   R(4,45)                 1.5054         estimate D2E/DX2                !
 ! R13   R(4,46)                 1.5154         estimate D2E/DX2                !
 ! R14   R(4,85)                 1.8004         estimate D2E/DX2                !
 ! R15   R(5,9)                  1.4495         estimate D2E/DX2                !
 ! R16   R(5,29)                 1.4441         estimate D2E/DX2                !
 ! R17   R(6,10)                 1.3609         estimate D2E/DX2                !
 ! R18   R(6,15)                 1.4278         estimate D2E/DX2                !
 ! R19   R(7,12)                 1.4166         estimate D2E/DX2                !
 ! R20   R(7,30)                 1.4506         estimate D2E/DX2                !
 ! R21   R(8,11)                 1.3568         estimate D2E/DX2                !
 ! R22   R(8,16)                 1.4243         estimate D2E/DX2                !
 ! R23   R(9,13)                 1.4047         estimate D2E/DX2                !
 ! R24   R(9,35)                 1.4394         estimate D2E/DX2                !
 ! R25   R(10,49)                1.5051         estimate D2E/DX2                !
 ! R26   R(10,53)                1.4303         estimate D2E/DX2                !
 ! R27   R(11,50)                1.5049         estimate D2E/DX2                !
 ! R28   R(11,54)                1.4278         estimate D2E/DX2                !
 ! R29   R(12,14)                1.4065         estimate D2E/DX2                !
 ! R30   R(12,36)                1.4289         estimate D2E/DX2                !
 ! R31   R(13,15)                1.4239         estimate D2E/DX2                !
 ! R32   R(13,43)                1.424          estimate D2E/DX2                !
 ! R33   R(14,16)                1.4264         estimate D2E/DX2                !
 ! R34   R(14,46)                1.4076         estimate D2E/DX2                !
 ! R35   R(15,17)                1.3837         estimate D2E/DX2                !
 ! R36   R(16,18)                1.4044         estimate D2E/DX2                !
 ! R37   R(17,19)                1.4332         estimate D2E/DX2                !
 ! R38   R(18,20)                1.4382         estimate D2E/DX2                !
 ! R39   R(19,21)                1.426          estimate D2E/DX2                !
 ! R40   R(19,53)                1.3822         estimate D2E/DX2                !
 ! R41   R(20,22)                1.4147         estimate D2E/DX2                !
 ! R42   R(20,54)                1.4103         estimate D2E/DX2                !
 ! R43   R(21,23)                1.4424         estimate D2E/DX2                !
 ! R44   R(21,57)                1.4054         estimate D2E/DX2                !
 ! R45   R(22,24)                1.4408         estimate D2E/DX2                !
 ! R46   R(22,58)                1.4095         estimate D2E/DX2                !
 ! R47   R(23,25)                1.3678         estimate D2E/DX2                !
 ! R48   R(24,26)                1.366          estimate D2E/DX2                !
 ! R49   R(24,62)                1.4351         estimate D2E/DX2                !
 ! R50   R(25,27)                1.4295         estimate D2E/DX2                !
 ! R51   R(25,61)                1.4315         estimate D2E/DX2                !
 ! R52   R(26,28)                1.4411         estimate D2E/DX2                !
 ! R53   R(27,29)                1.4134         estimate D2E/DX2                !
 ! R54   R(27,65)                1.4197         estimate D2E/DX2                !
 ! R55   R(28,30)                1.4199         estimate D2E/DX2                !
 ! R56   R(28,66)                1.4069         estimate D2E/DX2                !
 ! R57   R(29,31)                1.4            estimate D2E/DX2                !
 ! R58   R(30,32)                1.3626         estimate D2E/DX2                !
 ! R59   R(31,33)                1.4396         estimate D2E/DX2                !
 ! R60   R(31,69)                1.4236         estimate D2E/DX2                !
 ! R61   R(32,34)                1.5084         estimate D2E/DX2                !
 ! R62   R(32,70)                1.4125         estimate D2E/DX2                !
 ! R63   R(33,35)                1.4052         estimate D2E/DX2                !
 ! R64   R(33,73)                1.4173         estimate D2E/DX2                !
 ! R65   R(34,36)                1.5196         estimate D2E/DX2                !
 ! R66   R(34,74)                1.4998         estimate D2E/DX2                !
 ! R67   R(34,88)                1.8105         estimate D2E/DX2                !
 ! R68   R(35,37)                1.4435         estimate D2E/DX2                !
 ! R69   R(36,38)                1.3894         estimate D2E/DX2                !
 ! R70   R(37,39)                1.4325         estimate D2E/DX2                !
 ! R71   R(37,77)                1.4084         estimate D2E/DX2                !
 ! R72   R(38,42)                1.4233         estimate D2E/DX2                !
 ! R73   R(38,78)                1.518          estimate D2E/DX2                !
 ! R74   R(39,43)                1.3628         estimate D2E/DX2                !
 ! R75   R(39,79)                1.5046         estimate D2E/DX2                !
 ! R76   R(40,41)                1.3865         estimate D2E/DX2                !
 ! R77   R(40,44)                1.3837         estimate D2E/DX2                !
 ! R78   R(40,79)                1.5038         estimate D2E/DX2                !
 ! R79   R(41,45)                1.384          estimate D2E/DX2                !
 ! R80   R(41,80)                1.5098         estimate D2E/DX2                !
 ! R81   R(42,46)                1.3732         estimate D2E/DX2                !
 ! R82   R(42,80)                1.5084         estimate D2E/DX2                !
 ! R83   R(44,47)                1.4022         estimate D2E/DX2                !
 ! R84   R(45,48)                1.402          estimate D2E/DX2                !
 ! R85   R(47,48)                1.4059         estimate D2E/DX2                !
 ! R86   R(47,49)                1.5211         estimate D2E/DX2                !
 ! R87   R(48,50)                1.5206         estimate D2E/DX2                !
 ! R88   R(49,51)                1.5055         estimate D2E/DX2                !
 ! R89   R(49,90)                1.8018         estimate D2E/DX2                !
 ! R90   R(50,52)                1.4998         estimate D2E/DX2                !
 ! R91   R(50,89)                1.8            estimate D2E/DX2                !
 ! R92   R(51,52)                1.3524         estimate D2E/DX2                !
 ! R93   R(51,55)                1.426          estimate D2E/DX2                !
 ! R94   R(52,56)                1.421          estimate D2E/DX2                !
 ! R95   R(53,55)                1.4241         estimate D2E/DX2                !
 ! R96   R(54,56)                1.4225         estimate D2E/DX2                !
 ! R97   R(55,83)                1.4097         estimate D2E/DX2                !
 ! R98   R(56,84)                1.4147         estimate D2E/DX2                !
 ! R99   R(57,59)                1.4497         estimate D2E/DX2                !
 ! R100  R(57,83)                1.4503         estimate D2E/DX2                !
 ! R101  R(58,60)                1.4445         estimate D2E/DX2                !
 ! R102  R(58,84)                1.4079         estimate D2E/DX2                !
 ! R103  R(59,60)                1.4032         estimate D2E/DX2                !
 ! R104  R(59,61)                1.4145         estimate D2E/DX2                !
 ! R105  R(60,62)                1.4175         estimate D2E/DX2                !
 ! R106  R(61,63)                1.4204         estimate D2E/DX2                !
 ! R107  R(62,64)                1.4166         estimate D2E/DX2                !
 ! R108  R(63,64)                1.402          estimate D2E/DX2                !
 ! R109  R(63,65)                1.4421         estimate D2E/DX2                !
 ! R110  R(64,66)                1.4495         estimate D2E/DX2                !
 ! R111  R(65,67)                1.4032         estimate D2E/DX2                !
 ! R112  R(66,68)                1.443          estimate D2E/DX2                !
 ! R113  R(67,68)                1.4495         estimate D2E/DX2                !
 ! R114  R(67,69)                1.4151         estimate D2E/DX2                !
 ! R115  R(68,70)                1.4141         estimate D2E/DX2                !
 ! R116  R(69,71)                1.4317         estimate D2E/DX2                !
 ! R117  R(70,72)                1.4368         estimate D2E/DX2                !
 ! R118  R(71,72)                1.3772         estimate D2E/DX2                !
 ! R119  R(71,73)                1.4287         estimate D2E/DX2                !
 ! R120  R(72,74)                1.4329         estimate D2E/DX2                !
 ! R121  R(73,75)                1.3916         estimate D2E/DX2                !
 ! R122  R(74,76)                1.3589         estimate D2E/DX2                !
 ! R123  R(75,76)                1.4314         estimate D2E/DX2                !
 ! R124  R(75,77)                1.409          estimate D2E/DX2                !
 ! R125  R(76,78)                1.5011         estimate D2E/DX2                !
 ! R126  R(77,81)                1.4468         estimate D2E/DX2                !
 ! R127  R(78,81)                1.5099         estimate D2E/DX2                !
 ! R128  R(78,87)                1.805          estimate D2E/DX2                !
 ! R129  R(79,82)                1.4982         estimate D2E/DX2                !
 ! R130  R(79,92)                1.8137         estimate D2E/DX2                !
 ! R131  R(80,82)                1.4956         estimate D2E/DX2                !
 ! R132  R(80,86)                1.8051         estimate D2E/DX2                !
 ! R133  R(81,82)                1.3335         estimate D2E/DX2                !
 ! R134  R(83,84)                1.4383         estimate D2E/DX2                !
 ! A1    A(5,1,17)             122.1529         estimate D2E/DX2                !
 ! A2    A(5,1,23)             121.1796         estimate D2E/DX2                !
 ! A3    A(17,1,23)            106.1417         estimate D2E/DX2                !
 ! A4    A(6,2,43)             101.9            estimate D2E/DX2                !
 ! A5    A(6,2,44)             110.4532         estimate D2E/DX2                !
 ! A6    A(6,2,91)             113.047          estimate D2E/DX2                !
 ! A7    A(43,2,44)            108.638          estimate D2E/DX2                !
 ! A8    A(43,2,91)            112.5807         estimate D2E/DX2                !
 ! A9    A(44,2,91)            109.9266         estimate D2E/DX2                !
 ! A10   A(7,3,18)             122.6462         estimate D2E/DX2                !
 ! A11   A(7,3,26)             107.4602         estimate D2E/DX2                !
 ! A12   A(18,3,26)            120.2499         estimate D2E/DX2                !
 ! A13   A(8,4,45)             110.1806         estimate D2E/DX2                !
 ! A14   A(8,4,46)             101.3258         estimate D2E/DX2                !
 ! A15   A(8,4,85)             113.3781         estimate D2E/DX2                !
 ! A16   A(45,4,46)            108.8707         estimate D2E/DX2                !
 ! A17   A(45,4,85)            110.208          estimate D2E/DX2                !
 ! A18   A(46,4,85)            112.5178         estimate D2E/DX2                !
 ! A19   A(1,5,9)              118.103          estimate D2E/DX2                !
 ! A20   A(1,5,29)             117.1423         estimate D2E/DX2                !
 ! A21   A(9,5,29)             118.9669         estimate D2E/DX2                !
 ! A22   A(2,6,10)             122.5065         estimate D2E/DX2                !
 ! A23   A(2,6,15)             109.4303         estimate D2E/DX2                !
 ! A24   A(10,6,15)            119.7942         estimate D2E/DX2                !
 ! A25   A(3,7,12)             121.5774         estimate D2E/DX2                !
 ! A26   A(3,7,30)             107.8506         estimate D2E/DX2                !
 ! A27   A(12,7,30)            118.3037         estimate D2E/DX2                !
 ! A28   A(4,8,11)             122.1837         estimate D2E/DX2                !
 ! A29   A(4,8,16)             110.4941         estimate D2E/DX2                !
 ! A30   A(11,8,16)            119.7043         estimate D2E/DX2                !
 ! A31   A(5,9,13)             118.3833         estimate D2E/DX2                !
 ! A32   A(5,9,35)             121.0198         estimate D2E/DX2                !
 ! A33   A(13,9,35)            116.4845         estimate D2E/DX2                !
 ! A34   A(6,10,49)            123.2532         estimate D2E/DX2                !
 ! A35   A(6,10,53)            119.2101         estimate D2E/DX2                !
 ! A36   A(49,10,53)           109.6294         estimate D2E/DX2                !
 ! A37   A(8,11,50)            122.7369         estimate D2E/DX2                !
 ! A38   A(8,11,54)            119.3164         estimate D2E/DX2                !
 ! A39   A(50,11,54)           110.8361         estimate D2E/DX2                !
 ! A40   A(7,12,14)            114.995          estimate D2E/DX2                !
 ! A41   A(7,12,36)            121.9256         estimate D2E/DX2                !
 ! A42   A(14,12,36)           118.2822         estimate D2E/DX2                !
 ! A43   A(9,13,15)            122.5981         estimate D2E/DX2                !
 ! A44   A(9,13,43)            122.2657         estimate D2E/DX2                !
 ! A45   A(15,13,43)           108.0441         estimate D2E/DX2                !
 ! A46   A(12,14,16)           122.9148         estimate D2E/DX2                !
 ! A47   A(12,14,46)           121.1784         estimate D2E/DX2                !
 ! A48   A(16,14,46)           109.5442         estimate D2E/DX2                !
 ! A49   A(6,15,13)            109.4747         estimate D2E/DX2                !
 ! A50   A(6,15,17)            121.3989         estimate D2E/DX2                !
 ! A51   A(13,15,17)           118.7956         estimate D2E/DX2                !
 ! A52   A(8,16,14)            107.802          estimate D2E/DX2                !
 ! A53   A(8,16,18)            122.5708         estimate D2E/DX2                !
 ! A54   A(14,16,18)           120.955          estimate D2E/DX2                !
 ! A55   A(1,17,15)            119.9366         estimate D2E/DX2                !
 ! A56   A(1,17,19)            108.9648         estimate D2E/DX2                !
 ! A57   A(15,17,19)           118.7363         estimate D2E/DX2                !
 ! A58   A(3,18,16)            115.3845         estimate D2E/DX2                !
 ! A59   A(3,18,20)            119.5456         estimate D2E/DX2                !
 ! A60   A(16,18,20)           117.7526         estimate D2E/DX2                !
 ! A61   A(17,19,21)           108.6745         estimate D2E/DX2                !
 ! A62   A(17,19,53)           118.9886         estimate D2E/DX2                !
 ! A63   A(21,19,53)           120.065          estimate D2E/DX2                !
 ! A64   A(18,20,22)           118.8996         estimate D2E/DX2                !
 ! A65   A(18,20,54)           118.327          estimate D2E/DX2                !
 ! A66   A(22,20,54)           115.5132         estimate D2E/DX2                !
 ! A67   A(19,21,23)           106.1061         estimate D2E/DX2                !
 ! A68   A(19,21,57)           122.0444         estimate D2E/DX2                !
 ! A69   A(23,21,57)           121.3053         estimate D2E/DX2                !
 ! A70   A(20,22,24)           120.5852         estimate D2E/DX2                !
 ! A71   A(20,22,58)           122.059          estimate D2E/DX2                !
 ! A72   A(24,22,58)           106.8333         estimate D2E/DX2                !
 ! A73   A(1,23,21)            109.2746         estimate D2E/DX2                !
 ! A74   A(1,23,25)            120.0257         estimate D2E/DX2                !
 ! A75   A(21,23,25)           120.1455         estimate D2E/DX2                !
 ! A76   A(22,24,26)           120.7441         estimate D2E/DX2                !
 ! A77   A(22,24,62)           109.2765         estimate D2E/DX2                !
 ! A78   A(26,24,62)           119.3832         estimate D2E/DX2                !
 ! A79   A(23,25,27)           120.005          estimate D2E/DX2                !
 ! A80   A(23,25,61)           119.9917         estimate D2E/DX2                !
 ! A81   A(27,25,61)           109.4467         estimate D2E/DX2                !
 ! A82   A(3,26,24)            119.9296         estimate D2E/DX2                !
 ! A83   A(3,26,28)            109.1062         estimate D2E/DX2                !
 ! A84   A(24,26,28)           120.2172         estimate D2E/DX2                !
 ! A85   A(25,27,29)           120.214          estimate D2E/DX2                !
 ! A86   A(25,27,65)           106.9504         estimate D2E/DX2                !
 ! A87   A(29,27,65)           121.6751         estimate D2E/DX2                !
 ! A88   A(26,28,30)           105.7977         estimate D2E/DX2                !
 ! A89   A(26,28,66)           122.2525         estimate D2E/DX2                !
 ! A90   A(30,28,66)           121.9624         estimate D2E/DX2                !
 ! A91   A(5,29,27)            120.2232         estimate D2E/DX2                !
 ! A92   A(5,29,31)            118.7823         estimate D2E/DX2                !
 ! A93   A(27,29,31)           115.1779         estimate D2E/DX2                !
 ! A94   A(7,30,28)            109.1203         estimate D2E/DX2                !
 ! A95   A(7,30,32)            120.4515         estimate D2E/DX2                !
 ! A96   A(28,30,32)           120.4429         estimate D2E/DX2                !
 ! A97   A(29,31,33)           121.2506         estimate D2E/DX2                !
 ! A98   A(29,31,69)           122.1141         estimate D2E/DX2                !
 ! A99   A(33,31,69)           108.4497         estimate D2E/DX2                !
 ! A100  A(30,32,34)           122.2173         estimate D2E/DX2                !
 ! A101  A(30,32,70)           118.7061         estimate D2E/DX2                !
 ! A102  A(34,32,70)           112.514          estimate D2E/DX2                !
 ! A103  A(31,33,35)           120.796          estimate D2E/DX2                !
 ! A104  A(31,33,73)           107.5101         estimate D2E/DX2                !
 ! A105  A(35,33,73)           121.8739         estimate D2E/DX2                !
 ! A106  A(32,34,36)           110.7276         estimate D2E/DX2                !
 ! A107  A(32,34,74)           100.9102         estimate D2E/DX2                !
 ! A108  A(32,34,88)           112.1752         estimate D2E/DX2                !
 ! A109  A(36,34,74)           111.4602         estimate D2E/DX2                !
 ! A110  A(36,34,88)           108.5779         estimate D2E/DX2                !
 ! A111  A(74,34,88)           112.8799         estimate D2E/DX2                !
 ! A112  A(9,35,33)            117.6014         estimate D2E/DX2                !
 ! A113  A(9,35,37)            120.3161         estimate D2E/DX2                !
 ! A114  A(33,35,37)           118.0459         estimate D2E/DX2                !
 ! A115  A(12,36,34)           117.6785         estimate D2E/DX2                !
 ! A116  A(12,36,38)           119.7386         estimate D2E/DX2                !
 ! A117  A(34,36,38)           121.4572         estimate D2E/DX2                !
 ! A118  A(35,37,39)           119.7391         estimate D2E/DX2                !
 ! A119  A(35,37,77)           118.9951         estimate D2E/DX2                !
 ! A120  A(39,37,77)           117.0686         estimate D2E/DX2                !
 ! A121  A(36,38,42)           120.8822         estimate D2E/DX2                !
 ! A122  A(36,38,78)           120.8688         estimate D2E/DX2                !
 ! A123  A(42,38,78)           117.552          estimate D2E/DX2                !
 ! A124  A(37,39,43)           119.1835         estimate D2E/DX2                !
 ! A125  A(37,39,79)           121.684          estimate D2E/DX2                !
 ! A126  A(43,39,79)           117.023          estimate D2E/DX2                !
 ! A127  A(41,40,44)           121.3034         estimate D2E/DX2                !
 ! A128  A(41,40,79)           111.2304         estimate D2E/DX2                !
 ! A129  A(44,40,79)           124.9283         estimate D2E/DX2                !
 ! A130  A(40,41,45)           120.5434         estimate D2E/DX2                !
 ! A131  A(40,41,80)           111.5426         estimate D2E/DX2                !
 ! A132  A(45,41,80)           125.5363         estimate D2E/DX2                !
 ! A133  A(38,42,46)           119.4943         estimate D2E/DX2                !
 ! A134  A(38,42,80)           122.8791         estimate D2E/DX2                !
 ! A135  A(46,42,80)           115.8887         estimate D2E/DX2                !
 ! A136  A(2,43,13)            110.0917         estimate D2E/DX2                !
 ! A137  A(2,43,39)            124.3629         estimate D2E/DX2                !
 ! A138  A(13,43,39)           121.1798         estimate D2E/DX2                !
 ! A139  A(2,44,40)            115.8263         estimate D2E/DX2                !
 ! A140  A(2,44,47)            124.0483         estimate D2E/DX2                !
 ! A141  A(40,44,47)           118.9484         estimate D2E/DX2                !
 ! A142  A(4,45,41)            115.9857         estimate D2E/DX2                !
 ! A143  A(4,45,48)            123.6723         estimate D2E/DX2                !
 ! A144  A(41,45,48)           119.122          estimate D2E/DX2                !
 ! A145  A(4,46,14)            109.6701         estimate D2E/DX2                !
 ! A146  A(4,46,42)            125.8184         estimate D2E/DX2                !
 ! A147  A(14,46,42)           120.2951         estimate D2E/DX2                !
 ! A148  A(44,47,48)           119.8229         estimate D2E/DX2                !
 ! A149  A(44,47,49)           119.1304         estimate D2E/DX2                !
 ! A150  A(48,47,49)           120.4587         estimate D2E/DX2                !
 ! A151  A(45,48,47)           120.2141         estimate D2E/DX2                !
 ! A152  A(45,48,50)           118.7149         estimate D2E/DX2                !
 ! A153  A(47,48,50)           120.4176         estimate D2E/DX2                !
 ! A154  A(10,49,47)           110.5845         estimate D2E/DX2                !
 ! A155  A(10,49,51)           101.4104         estimate D2E/DX2                !
 ! A156  A(10,49,90)           113.2296         estimate D2E/DX2                !
 ! A157  A(47,49,51)           109.1143         estimate D2E/DX2                !
 ! A158  A(47,49,90)           108.6894         estimate D2E/DX2                !
 ! A159  A(51,49,90)           113.6265         estimate D2E/DX2                !
 ! A160  A(11,50,48)           110.2428         estimate D2E/DX2                !
 ! A161  A(11,50,52)           100.9253         estimate D2E/DX2                !
 ! A162  A(11,50,89)           113.2681         estimate D2E/DX2                !
 ! A163  A(48,50,52)           109.2714         estimate D2E/DX2                !
 ! A164  A(48,50,89)           109.0575         estimate D2E/DX2                !
 ! A165  A(52,50,89)           113.8243         estimate D2E/DX2                !
 ! A166  A(49,51,52)           121.6154         estimate D2E/DX2                !
 ! A167  A(49,51,55)           111.5565         estimate D2E/DX2                !
 ! A168  A(52,51,55)           120.0947         estimate D2E/DX2                !
 ! A169  A(50,52,51)           122.4769         estimate D2E/DX2                !
 ! A170  A(50,52,56)           111.413          estimate D2E/DX2                !
 ! A171  A(51,52,56)           119.2942         estimate D2E/DX2                !
 ! A172  A(10,53,19)           121.5653         estimate D2E/DX2                !
 ! A173  A(10,53,55)           109.6182         estimate D2E/DX2                !
 ! A174  A(19,53,55)           118.9465         estimate D2E/DX2                !
 ! A175  A(11,54,20)           122.1544         estimate D2E/DX2                !
 ! A176  A(11,54,56)           108.3051         estimate D2E/DX2                !
 ! A177  A(20,54,56)           121.6697         estimate D2E/DX2                !
 ! A178  A(51,55,53)           107.1196         estimate D2E/DX2                !
 ! A179  A(51,55,83)           122.8361         estimate D2E/DX2                !
 ! A180  A(53,55,83)           122.134          estimate D2E/DX2                !
 ! A181  A(52,56,54)           108.267          estimate D2E/DX2                !
 ! A182  A(52,56,84)           121.5931         estimate D2E/DX2                !
 ! A183  A(54,56,84)           122.0507         estimate D2E/DX2                !
 ! A184  A(21,57,59)           117.2989         estimate D2E/DX2                !
 ! A185  A(21,57,83)           117.9507         estimate D2E/DX2                !
 ! A186  A(59,57,83)           119.3794         estimate D2E/DX2                !
 ! A187  A(22,58,60)           108.6175         estimate D2E/DX2                !
 ! A188  A(22,58,84)           122.3275         estimate D2E/DX2                !
 ! A189  A(60,58,84)           120.5479         estimate D2E/DX2                !
 ! A190  A(57,59,60)           119.478          estimate D2E/DX2                !
 ! A191  A(57,59,61)           120.1747         estimate D2E/DX2                !
 ! A192  A(60,59,61)           114.5782         estimate D2E/DX2                !
 ! A193  A(58,60,59)           120.8765         estimate D2E/DX2                !
 ! A194  A(58,60,62)           108.5398         estimate D2E/DX2                !
 ! A195  A(59,60,62)           122.4145         estimate D2E/DX2                !
 ! A196  A(25,61,59)           120.2808         estimate D2E/DX2                !
 ! A197  A(25,61,63)           106.7138         estimate D2E/DX2                !
 ! A198  A(59,61,63)           122.3374         estimate D2E/DX2                !
 ! A199  A(24,62,60)           106.6542         estimate D2E/DX2                !
 ! A200  A(24,62,64)           120.9205         estimate D2E/DX2                !
 ! A201  A(60,62,64)           122.1575         estimate D2E/DX2                !
 ! A202  A(61,63,64)           122.1735         estimate D2E/DX2                !
 ! A203  A(61,63,65)           108.4677         estimate D2E/DX2                !
 ! A204  A(64,63,65)           120.8074         estimate D2E/DX2                !
 ! A205  A(62,64,63)           114.7619         estimate D2E/DX2                !
 ! A206  A(62,64,66)           120.1277         estimate D2E/DX2                !
 ! A207  A(63,64,66)           118.9387         estimate D2E/DX2                !
 ! A208  A(27,65,63)           108.2061         estimate D2E/DX2                !
 ! A209  A(27,65,67)           122.0361         estimate D2E/DX2                !
 ! A210  A(63,65,67)           121.3606         estimate D2E/DX2                !
 ! A211  A(28,66,64)           116.7422         estimate D2E/DX2                !
 ! A212  A(28,66,68)           117.5477         estimate D2E/DX2                !
 ! A213  A(64,66,68)           120.2477         estimate D2E/DX2                !
 ! A214  A(65,67,68)           118.9236         estimate D2E/DX2                !
 ! A215  A(65,67,69)           115.1116         estimate D2E/DX2                !
 ! A216  A(68,67,69)           119.955          estimate D2E/DX2                !
 ! A217  A(66,68,67)           119.6607         estimate D2E/DX2                !
 ! A218  A(66,68,70)           118.1598         estimate D2E/DX2                !
 ! A219  A(67,68,70)           116.9517         estimate D2E/DX2                !
 ! A220  A(31,69,67)           121.3759         estimate D2E/DX2                !
 ! A221  A(31,69,71)           107.0954         estimate D2E/DX2                !
 ! A222  A(67,69,71)           121.0875         estimate D2E/DX2                !
 ! A223  A(32,70,68)           122.5821         estimate D2E/DX2                !
 ! A224  A(32,70,72)           106.7201         estimate D2E/DX2                !
 ! A225  A(68,70,72)           122.4403         estimate D2E/DX2                !
 ! A226  A(69,71,72)           119.6757         estimate D2E/DX2                !
 ! A227  A(69,71,73)           108.4888         estimate D2E/DX2                !
 ! A228  A(72,71,73)           119.2728         estimate D2E/DX2                !
 ! A229  A(70,72,71)           119.7398         estimate D2E/DX2                !
 ! A230  A(70,72,74)           109.279          estimate D2E/DX2                !
 ! A231  A(71,72,74)           121.0388         estimate D2E/DX2                !
 ! A232  A(33,73,71)           108.0915         estimate D2E/DX2                !
 ! A233  A(33,73,75)           119.8706         estimate D2E/DX2                !
 ! A234  A(71,73,75)           119.1706         estimate D2E/DX2                !
 ! A235  A(34,74,72)           110.074          estimate D2E/DX2                !
 ! A236  A(34,74,76)           122.0389         estimate D2E/DX2                !
 ! A237  A(72,74,76)           119.9674         estimate D2E/DX2                !
 ! A238  A(73,75,76)           120.859          estimate D2E/DX2                !
 ! A239  A(73,75,77)           119.2685         estimate D2E/DX2                !
 ! A240  A(76,75,77)           109.9131         estimate D2E/DX2                !
 ! A241  A(74,76,75)           119.5464         estimate D2E/DX2                !
 ! A242  A(74,76,78)           122.5166         estimate D2E/DX2                !
 ! A243  A(75,76,78)           109.9812         estimate D2E/DX2                !
 ! A244  A(37,77,75)           121.8411         estimate D2E/DX2                !
 ! A245  A(37,77,81)           121.458          estimate D2E/DX2                !
 ! A246  A(75,77,81)           107.4332         estimate D2E/DX2                !
 ! A247  A(38,78,76)           111.3647         estimate D2E/DX2                !
 ! A248  A(38,78,81)           110.1022         estimate D2E/DX2                !
 ! A249  A(38,78,87)           108.5674         estimate D2E/DX2                !
 ! A250  A(76,78,81)           101.5759         estimate D2E/DX2                !
 ! A251  A(76,78,87)           113.0898         estimate D2E/DX2                !
 ! A252  A(81,78,87)           112.0318         estimate D2E/DX2                !
 ! A253  A(39,79,40)           108.6414         estimate D2E/DX2                !
 ! A254  A(39,79,82)           113.8069         estimate D2E/DX2                !
 ! A255  A(39,79,92)           110.2            estimate D2E/DX2                !
 ! A256  A(40,79,82)           100.6528         estimate D2E/DX2                !
 ! A257  A(40,79,92)           111.8373         estimate D2E/DX2                !
 ! A258  A(82,79,92)           111.3705         estimate D2E/DX2                !
 ! A259  A(41,80,42)           108.5872         estimate D2E/DX2                !
 ! A260  A(41,80,82)           100.1439         estimate D2E/DX2                !
 ! A261  A(41,80,86)           111.8476         estimate D2E/DX2                !
 ! A262  A(42,80,82)           111.9826         estimate D2E/DX2                !
 ! A263  A(42,80,86)           110.3053         estimate D2E/DX2                !
 ! A264  A(82,80,86)           113.5229         estimate D2E/DX2                !
 ! A265  A(77,81,78)           110.6402         estimate D2E/DX2                !
 ! A266  A(77,81,82)           121.5695         estimate D2E/DX2                !
 ! A267  A(78,81,82)           123.1765         estimate D2E/DX2                !
 ! A268  A(79,82,80)           112.2524         estimate D2E/DX2                !
 ! A269  A(79,82,81)           120.8489         estimate D2E/DX2                !
 ! A270  A(80,82,81)           121.6895         estimate D2E/DX2                !
 ! A271  A(55,83,57)           118.6942         estimate D2E/DX2                !
 ! A272  A(55,83,84)           116.2418         estimate D2E/DX2                !
 ! A273  A(57,83,84)           119.9814         estimate D2E/DX2                !
 ! A274  A(56,84,58)           115.3211         estimate D2E/DX2                !
 ! A275  A(56,84,83)           119.6186         estimate D2E/DX2                !
 ! A276  A(58,84,83)           119.5623         estimate D2E/DX2                !
 ! D1    D(17,1,5,9)             0.0314         estimate D2E/DX2                !
 ! D2    D(17,1,5,29)         -152.9358         estimate D2E/DX2                !
 ! D3    D(23,1,5,9)           139.8671         estimate D2E/DX2                !
 ! D4    D(23,1,5,29)          -13.1001         estimate D2E/DX2                !
 ! D5    D(5,1,17,15)           -1.5564         estimate D2E/DX2                !
 ! D6    D(5,1,17,19)          140.1216         estimate D2E/DX2                !
 ! D7    D(23,1,17,15)        -146.4946         estimate D2E/DX2                !
 ! D8    D(23,1,17,19)          -4.8166         estimate D2E/DX2                !
 ! D9    D(5,1,23,21)         -136.6038         estimate D2E/DX2                !
 ! D10   D(5,1,23,25)            8.141          estimate D2E/DX2                !
 ! D11   D(17,1,23,21)           8.7524         estimate D2E/DX2                !
 ! D12   D(17,1,23,25)         153.4973         estimate D2E/DX2                !
 ! D13   D(43,2,6,10)         -137.8975         estimate D2E/DX2                !
 ! D14   D(43,2,6,15)           10.2663         estimate D2E/DX2                !
 ! D15   D(44,2,6,10)          -22.6091         estimate D2E/DX2                !
 ! D16   D(44,2,6,15)          125.5548         estimate D2E/DX2                !
 ! D17   D(91,2,6,10)          101.0307         estimate D2E/DX2                !
 ! D18   D(91,2,6,15)         -110.8055         estimate D2E/DX2                !
 ! D19   D(6,2,43,13)           -7.606          estimate D2E/DX2                !
 ! D20   D(6,2,43,39)          149.0195         estimate D2E/DX2                !
 ! D21   D(44,2,43,13)        -124.2188         estimate D2E/DX2                !
 ! D22   D(44,2,43,39)          32.4067         estimate D2E/DX2                !
 ! D23   D(91,2,43,13)         113.7892         estimate D2E/DX2                !
 ! D24   D(91,2,43,39)         -89.5853         estimate D2E/DX2                !
 ! D25   D(6,2,44,40)         -147.8562         estimate D2E/DX2                !
 ! D26   D(6,2,44,47)           19.5753         estimate D2E/DX2                !
 ! D27   D(43,2,44,40)         -36.8758         estimate D2E/DX2                !
 ! D28   D(43,2,44,47)         130.5556         estimate D2E/DX2                !
 ! D29   D(91,2,44,40)          86.7187         estimate D2E/DX2                !
 ! D30   D(91,2,44,47)        -105.8499         estimate D2E/DX2                !
 ! D31   D(18,3,7,12)            6.3377         estimate D2E/DX2                !
 ! D32   D(18,3,7,30)          147.8409         estimate D2E/DX2                !
 ! D33   D(26,3,7,12)         -139.6279         estimate D2E/DX2                !
 ! D34   D(26,3,7,30)            1.8754         estimate D2E/DX2                !
 ! D35   D(7,3,18,16)            5.3247         estimate D2E/DX2                !
 ! D36   D(7,3,18,20)         -144.1514         estimate D2E/DX2                !
 ! D37   D(26,3,18,16)         147.15           estimate D2E/DX2                !
 ! D38   D(26,3,18,20)          -2.3261         estimate D2E/DX2                !
 ! D39   D(7,3,26,24)          147.8141         estimate D2E/DX2                !
 ! D40   D(7,3,26,28)            3.3247         estimate D2E/DX2                !
 ! D41   D(18,3,26,24)           0.8767         estimate D2E/DX2                !
 ! D42   D(18,3,26,28)        -143.6127         estimate D2E/DX2                !
 ! D43   D(45,4,8,11)           24.4418         estimate D2E/DX2                !
 ! D44   D(45,4,8,16)         -124.9055         estimate D2E/DX2                !
 ! D45   D(46,4,8,11)          139.5954         estimate D2E/DX2                !
 ! D46   D(46,4,8,16)           -9.7519         estimate D2E/DX2                !
 ! D47   D(85,4,8,11)          -99.6015         estimate D2E/DX2                !
 ! D48   D(85,4,8,16)          111.0512         estimate D2E/DX2                !
 ! D49   D(8,4,45,41)          144.6046         estimate D2E/DX2                !
 ! D50   D(8,4,45,48)          -22.63           estimate D2E/DX2                !
 ! D51   D(46,4,45,41)          34.3162         estimate D2E/DX2                !
 ! D52   D(46,4,45,48)        -132.9183         estimate D2E/DX2                !
 ! D53   D(85,4,45,41)         -89.5383         estimate D2E/DX2                !
 ! D54   D(85,4,45,48)         103.2272         estimate D2E/DX2                !
 ! D55   D(8,4,46,14)           10.6585         estimate D2E/DX2                !
 ! D56   D(8,4,46,42)         -146.0707         estimate D2E/DX2                !
 ! D57   D(45,4,46,14)         126.78           estimate D2E/DX2                !
 ! D58   D(45,4,46,42)         -29.9493         estimate D2E/DX2                !
 ! D59   D(85,4,46,14)        -110.7482         estimate D2E/DX2                !
 ! D60   D(85,4,46,42)          92.5225         estimate D2E/DX2                !
 ! D61   D(1,5,9,13)             0.999          estimate D2E/DX2                !
 ! D62   D(1,5,9,35)          -155.4047         estimate D2E/DX2                !
 ! D63   D(29,5,9,13)          153.4647         estimate D2E/DX2                !
 ! D64   D(29,5,9,35)           -2.9391         estimate D2E/DX2                !
 ! D65   D(1,5,29,27)            9.163          estimate D2E/DX2                !
 ! D66   D(1,5,29,31)          161.0218         estimate D2E/DX2                !
 ! D67   D(9,5,29,27)         -143.5633         estimate D2E/DX2                !
 ! D68   D(9,5,29,31)            8.2955         estimate D2E/DX2                !
 ! D69   D(2,6,10,49)           -0.4255         estimate D2E/DX2                !
 ! D70   D(2,6,10,53)          145.3515         estimate D2E/DX2                !
 ! D71   D(15,6,10,49)        -145.4504         estimate D2E/DX2                !
 ! D72   D(15,6,10,53)           0.3266         estimate D2E/DX2                !
 ! D73   D(2,6,15,13)           -9.6413         estimate D2E/DX2                !
 ! D74   D(2,6,15,17)         -154.1708         estimate D2E/DX2                !
 ! D75   D(10,6,15,13)         139.521          estimate D2E/DX2                !
 ! D76   D(10,6,15,17)          -5.0086         estimate D2E/DX2                !
 ! D77   D(3,7,12,14)          -11.7901         estimate D2E/DX2                !
 ! D78   D(3,7,12,36)          143.225          estimate D2E/DX2                !
 ! D79   D(30,7,12,14)        -149.4943         estimate D2E/DX2                !
 ! D80   D(30,7,12,36)           5.5208         estimate D2E/DX2                !
 ! D81   D(3,7,30,28)           -6.5097         estimate D2E/DX2                !
 ! D82   D(3,7,30,32)         -152.1882         estimate D2E/DX2                !
 ! D83   D(12,7,30,28)         136.4547         estimate D2E/DX2                !
 ! D84   D(12,7,30,32)          -9.2239         estimate D2E/DX2                !
 ! D85   D(4,8,11,50)            1.8509         estimate D2E/DX2                !
 ! D86   D(4,8,11,54)         -145.9276         estimate D2E/DX2                !
 ! D87   D(16,8,11,50)         148.4967         estimate D2E/DX2                !
 ! D88   D(16,8,11,54)           0.7182         estimate D2E/DX2                !
 ! D89   D(4,8,16,14)            5.5816         estimate D2E/DX2                !
 ! D90   D(4,8,16,18)          153.3797         estimate D2E/DX2                !
 ! D91   D(11,8,16,14)        -144.6316         estimate D2E/DX2                !
 ! D92   D(11,8,16,18)           3.1665         estimate D2E/DX2                !
 ! D93   D(5,9,13,15)           -0.5741         estimate D2E/DX2                !
 ! D94   D(5,9,13,43)         -147.56           estimate D2E/DX2                !
 ! D95   D(35,9,13,15)         156.8899         estimate D2E/DX2                !
 ! D96   D(35,9,13,43)           9.9039         estimate D2E/DX2                !
 ! D97   D(5,9,35,33)           -8.1861         estimate D2E/DX2                !
 ! D98   D(5,9,35,37)          148.7858         estimate D2E/DX2                !
 ! D99   D(13,9,35,33)        -165.0161         estimate D2E/DX2                !
 ! D100  D(13,9,35,37)          -8.0442         estimate D2E/DX2                !
 ! D101  D(6,10,49,47)          26.3308         estimate D2E/DX2                !
 ! D102  D(6,10,49,51)         141.9659         estimate D2E/DX2                !
 ! D103  D(6,10,49,90)         -95.924          estimate D2E/DX2                !
 ! D104  D(53,10,49,47)       -122.2574         estimate D2E/DX2                !
 ! D105  D(53,10,49,51)         -6.6223         estimate D2E/DX2                !
 ! D106  D(53,10,49,90)        115.4878         estimate D2E/DX2                !
 ! D107  D(6,10,53,19)           3.973          estimate D2E/DX2                !
 ! D108  D(6,10,53,55)        -141.3154         estimate D2E/DX2                !
 ! D109  D(49,10,53,19)        154.0165         estimate D2E/DX2                !
 ! D110  D(49,10,53,55)          8.728          estimate D2E/DX2                !
 ! D111  D(8,11,50,48)         -29.7866         estimate D2E/DX2                !
 ! D112  D(8,11,50,52)        -145.2191         estimate D2E/DX2                !
 ! D113  D(8,11,50,89)          92.7203         estimate D2E/DX2                !
 ! D114  D(54,11,50,48)        120.3828         estimate D2E/DX2                !
 ! D115  D(54,11,50,52)          4.9502         estimate D2E/DX2                !
 ! D116  D(54,11,50,89)       -117.1104         estimate D2E/DX2                !
 ! D117  D(8,11,54,20)          -3.1171         estimate D2E/DX2                !
 ! D118  D(8,11,54,56)         146.3292         estimate D2E/DX2                !
 ! D119  D(50,11,54,20)       -154.4391         estimate D2E/DX2                !
 ! D120  D(50,11,54,56)         -4.9928         estimate D2E/DX2                !
 ! D121  D(7,12,14,16)           6.1908         estimate D2E/DX2                !
 ! D122  D(7,12,14,46)         155.2236         estimate D2E/DX2                !
 ! D123  D(36,12,14,16)       -149.7873         estimate D2E/DX2                !
 ! D124  D(36,12,14,46)         -0.7545         estimate D2E/DX2                !
 ! D125  D(7,12,36,34)          16.5313         estimate D2E/DX2                !
 ! D126  D(7,12,36,38)        -151.5209         estimate D2E/DX2                !
 ! D127  D(14,12,36,34)        170.7641         estimate D2E/DX2                !
 ! D128  D(14,12,36,38)          2.7118         estimate D2E/DX2                !
 ! D129  D(9,13,15,6)         -146.512          estimate D2E/DX2                !
 ! D130  D(9,13,15,17)          -0.928          estimate D2E/DX2                !
 ! D131  D(43,13,15,6)           4.5055         estimate D2E/DX2                !
 ! D132  D(43,13,15,17)        150.0895         estimate D2E/DX2                !
 ! D133  D(9,13,43,2)          153.4131         estimate D2E/DX2                !
 ! D134  D(9,13,43,39)          -4.0799         estimate D2E/DX2                !
 ! D135  D(15,13,43,2)           2.2788         estimate D2E/DX2                !
 ! D136  D(15,13,43,39)       -155.2142         estimate D2E/DX2                !
 ! D137  D(12,14,16,8)         153.7376         estimate D2E/DX2                !
 ! D138  D(12,14,16,18)          5.317          estimate D2E/DX2                !
 ! D139  D(46,14,16,8)           1.5864         estimate D2E/DX2                !
 ! D140  D(46,14,16,18)       -146.8341         estimate D2E/DX2                !
 ! D141  D(12,14,46,4)        -160.7746         estimate D2E/DX2                !
 ! D142  D(12,14,46,42)         -2.5535         estimate D2E/DX2                !
 ! D143  D(16,14,46,4)          -8.056          estimate D2E/DX2                !
 ! D144  D(16,14,46,42)        150.1651         estimate D2E/DX2                !
 ! D145  D(6,15,17,1)          143.3335         estimate D2E/DX2                !
 ! D146  D(6,15,17,19)           5.3071         estimate D2E/DX2                !
 ! D147  D(13,15,17,1)           1.963          estimate D2E/DX2                !
 ! D148  D(13,15,17,19)       -136.0635         estimate D2E/DX2                !
 ! D149  D(8,16,18,3)         -154.5823         estimate D2E/DX2                !
 ! D150  D(8,16,18,20)          -4.5351         estimate D2E/DX2                !
 ! D151  D(14,16,18,3)         -10.857          estimate D2E/DX2                !
 ! D152  D(14,16,18,20)        139.1901         estimate D2E/DX2                !
 ! D153  D(1,17,19,21)          -0.8617         estimate D2E/DX2                !
 ! D154  D(1,17,19,53)        -143.2183         estimate D2E/DX2                !
 ! D155  D(15,17,19,21)        141.3445         estimate D2E/DX2                !
 ! D156  D(15,17,19,53)         -1.0121         estimate D2E/DX2                !
 ! D157  D(3,18,20,22)           1.9207         estimate D2E/DX2                !
 ! D158  D(3,18,20,54)         150.8447         estimate D2E/DX2                !
 ! D159  D(16,18,20,22)       -146.8471         estimate D2E/DX2                !
 ! D160  D(16,18,20,54)          2.0769         estimate D2E/DX2                !
 ! D161  D(17,19,21,23)          6.1717         estimate D2E/DX2                !
 ! D162  D(17,19,21,57)       -138.7914         estimate D2E/DX2                !
 ! D163  D(53,19,21,23)        148.054          estimate D2E/DX2                !
 ! D164  D(53,19,21,57)          3.0909         estimate D2E/DX2                !
 ! D165  D(17,19,53,10)         -3.6141         estimate D2E/DX2                !
 ! D166  D(17,19,53,55)        138.5816         estimate D2E/DX2                !
 ! D167  D(21,19,53,10)       -141.6597         estimate D2E/DX2                !
 ! D168  D(21,19,53,55)          0.536          estimate D2E/DX2                !
 ! D169  D(18,20,22,24)         -0.1141         estimate D2E/DX2                !
 ! D170  D(18,20,22,58)        139.9794         estimate D2E/DX2                !
 ! D171  D(54,20,22,24)       -149.885          estimate D2E/DX2                !
 ! D172  D(54,20,22,58)         -9.7915         estimate D2E/DX2                !
 ! D173  D(18,20,54,11)          1.6552         estimate D2E/DX2                !
 ! D174  D(18,20,54,56)       -143.799          estimate D2E/DX2                !
 ! D175  D(22,20,54,11)        151.6075         estimate D2E/DX2                !
 ! D176  D(22,20,54,56)          6.1532         estimate D2E/DX2                !
 ! D177  D(19,21,23,1)          -9.2689         estimate D2E/DX2                !
 ! D178  D(19,21,23,25)       -153.9647         estimate D2E/DX2                !
 ! D179  D(57,21,23,1)         136.0121         estimate D2E/DX2                !
 ! D180  D(57,21,23,25)         -8.6837         estimate D2E/DX2                !
 ! D181  D(19,21,57,59)        150.354          estimate D2E/DX2                !
 ! D182  D(19,21,57,83)         -3.6512         estimate D2E/DX2                !
 ! D183  D(23,21,57,59)         10.5614         estimate D2E/DX2                !
 ! D184  D(23,21,57,83)       -143.4438         estimate D2E/DX2                !
 ! D185  D(20,22,24,26)         -1.3577         estimate D2E/DX2                !
 ! D186  D(20,22,24,62)        143.0136         estimate D2E/DX2                !
 ! D187  D(58,22,24,26)       -146.7438         estimate D2E/DX2                !
 ! D188  D(58,22,24,62)         -2.3725         estimate D2E/DX2                !
 ! D189  D(20,22,58,60)       -143.8626         estimate D2E/DX2                !
 ! D190  D(20,22,58,84)          4.1204         estimate D2E/DX2                !
 ! D191  D(24,22,58,60)          0.8971         estimate D2E/DX2                !
 ! D192  D(24,22,58,84)        148.8801         estimate D2E/DX2                !
 ! D193  D(1,23,25,27)           1.2616         estimate D2E/DX2                !
 ! D194  D(1,23,25,61)        -139.7416         estimate D2E/DX2                !
 ! D195  D(21,23,25,27)        142.2055         estimate D2E/DX2                !
 ! D196  D(21,23,25,61)          1.2024         estimate D2E/DX2                !
 ! D197  D(22,24,26,3)           0.9665         estimate D2E/DX2                !
 ! D198  D(22,24,26,28)        141.5347         estimate D2E/DX2                !
 ! D199  D(62,24,26,3)        -139.9057         estimate D2E/DX2                !
 ! D200  D(62,24,26,28)          0.6625         estimate D2E/DX2                !
 ! D201  D(22,24,62,60)          2.9171         estimate D2E/DX2                !
 ! D202  D(22,24,62,64)       -142.8509         estimate D2E/DX2                !
 ! D203  D(26,24,62,60)        147.8471         estimate D2E/DX2                !
 ! D204  D(26,24,62,64)          2.0792         estimate D2E/DX2                !
 ! D205  D(23,25,27,29)         -5.0674         estimate D2E/DX2                !
 ! D206  D(23,25,27,65)       -149.4314         estimate D2E/DX2                !
 ! D207  D(61,25,27,29)        139.6233         estimate D2E/DX2                !
 ! D208  D(61,25,27,65)         -4.7407         estimate D2E/DX2                !
 ! D209  D(23,25,61,59)          3.8144         estimate D2E/DX2                !
 ! D210  D(23,25,61,63)        149.1069         estimate D2E/DX2                !
 ! D211  D(27,25,61,59)       -140.8817         estimate D2E/DX2                !
 ! D212  D(27,25,61,63)          4.4107         estimate D2E/DX2                !
 ! D213  D(3,26,28,30)          -7.205          estimate D2E/DX2                !
 ! D214  D(3,26,28,66)         138.7957         estimate D2E/DX2                !
 ! D215  D(24,26,28,30)       -151.5753         estimate D2E/DX2                !
 ! D216  D(24,26,28,66)         -5.5746         estimate D2E/DX2                !
 ! D217  D(25,27,29,5)          -0.2773         estimate D2E/DX2                !
 ! D218  D(25,27,29,31)       -153.0981         estimate D2E/DX2                !
 ! D219  D(65,27,29,5)         138.8127         estimate D2E/DX2                !
 ! D220  D(65,27,29,31)        -14.0081         estimate D2E/DX2                !
 ! D221  D(25,27,65,63)          3.1992         estimate D2E/DX2                !
 ! D222  D(25,27,65,67)        151.6372         estimate D2E/DX2                !
 ! D223  D(29,27,65,63)       -140.5295         estimate D2E/DX2                !
 ! D224  D(29,27,65,67)          7.9085         estimate D2E/DX2                !
 ! D225  D(26,28,30,7)           8.346          estimate D2E/DX2                !
 ! D226  D(26,28,30,32)        154.028          estimate D2E/DX2                !
 ! D227  D(66,28,30,7)        -137.7772         estimate D2E/DX2                !
 ! D228  D(66,28,30,32)          7.9048         estimate D2E/DX2                !
 ! D229  D(26,28,66,64)          7.267          estimate D2E/DX2                !
 ! D230  D(26,28,66,68)       -146.7643         estimate D2E/DX2                !
 ! D231  D(30,28,66,64)        147.9055         estimate D2E/DX2                !
 ! D232  D(30,28,66,68)         -6.1257         estimate D2E/DX2                !
 ! D233  D(5,29,31,33)          -2.606          estimate D2E/DX2                !
 ! D234  D(5,29,31,69)        -147.4841         estimate D2E/DX2                !
 ! D235  D(27,29,31,33)        150.6297         estimate D2E/DX2                !
 ! D236  D(27,29,31,69)          5.7517         estimate D2E/DX2                !
 ! D237  D(7,30,32,34)         -10.0383         estimate D2E/DX2                !
 ! D238  D(7,30,32,70)         139.4022         estimate D2E/DX2                !
 ! D239  D(28,30,32,34)       -151.8739         estimate D2E/DX2                !
 ! D240  D(28,30,32,70)         -2.4334         estimate D2E/DX2                !
 ! D241  D(29,31,33,35)         -8.9714         estimate D2E/DX2                !
 ! D242  D(29,31,33,73)       -155.3423         estimate D2E/DX2                !
 ! D243  D(69,31,33,35)        140.1184         estimate D2E/DX2                !
 ! D244  D(69,31,33,73)         -6.2525         estimate D2E/DX2                !
 ! D245  D(29,31,69,67)          9.0852         estimate D2E/DX2                !
 ! D246  D(29,31,69,71)        154.1994         estimate D2E/DX2                !
 ! D247  D(33,31,69,67)       -139.6836         estimate D2E/DX2                !
 ! D248  D(33,31,69,71)          5.4307         estimate D2E/DX2                !
 ! D249  D(30,32,34,36)         29.9796         estimate D2E/DX2                !
 ! D250  D(30,32,34,74)        148.0994         estimate D2E/DX2                !
 ! D251  D(30,32,34,88)        -91.493          estimate D2E/DX2                !
 ! D252  D(70,32,34,36)       -121.1562         estimate D2E/DX2                !
 ! D253  D(70,32,34,74)         -3.0363         estimate D2E/DX2                !
 ! D254  D(70,32,34,88)        117.3713         estimate D2E/DX2                !
 ! D255  D(30,32,70,68)         -4.5398         estimate D2E/DX2                !
 ! D256  D(30,32,70,72)       -153.4869         estimate D2E/DX2                !
 ! D257  D(34,32,70,68)        147.7086         estimate D2E/DX2                !
 ! D258  D(34,32,70,72)         -1.2386         estimate D2E/DX2                !
 ! D259  D(31,33,35,9)          14.0823         estimate D2E/DX2                !
 ! D260  D(31,33,35,37)       -143.4216         estimate D2E/DX2                !
 ! D261  D(73,33,35,9)         155.6249         estimate D2E/DX2                !
 ! D262  D(73,33,35,37)         -1.879          estimate D2E/DX2                !
 ! D263  D(31,33,73,71)          4.594          estimate D2E/DX2                !
 ! D264  D(31,33,73,75)        145.7581         estimate D2E/DX2                !
 ! D265  D(35,33,73,71)       -141.3368         estimate D2E/DX2                !
 ! D266  D(35,33,73,75)         -0.1726         estimate D2E/DX2                !
 ! D267  D(32,34,36,12)        -32.2623         estimate D2E/DX2                !
 ! D268  D(32,34,36,38)        135.5728         estimate D2E/DX2                !
 ! D269  D(74,34,36,12)       -143.744          estimate D2E/DX2                !
 ! D270  D(74,34,36,38)         24.0911         estimate D2E/DX2                !
 ! D271  D(88,34,36,12)         91.3063         estimate D2E/DX2                !
 ! D272  D(88,34,36,38)       -100.8585         estimate D2E/DX2                !
 ! D273  D(32,34,74,72)          6.2686         estimate D2E/DX2                !
 ! D274  D(32,34,74,76)       -142.609          estimate D2E/DX2                !
 ! D275  D(36,34,74,72)        123.8536         estimate D2E/DX2                !
 ! D276  D(36,34,74,76)        -25.024          estimate D2E/DX2                !
 ! D277  D(88,34,74,72)       -113.6359         estimate D2E/DX2                !
 ! D278  D(88,34,74,76)         97.4865         estimate D2E/DX2                !
 ! D279  D(9,35,37,39)           0.6186         estimate D2E/DX2                !
 ! D280  D(9,35,37,77)        -155.6999         estimate D2E/DX2                !
 ! D281  D(33,35,37,39)        157.4905         estimate D2E/DX2                !
 ! D282  D(33,35,37,77)          1.172          estimate D2E/DX2                !
 ! D283  D(12,36,38,42)         -1.4648         estimate D2E/DX2                !
 ! D284  D(12,36,38,78)        168.7348         estimate D2E/DX2                !
 ! D285  D(34,36,38,42)       -169.0542         estimate D2E/DX2                !
 ! D286  D(34,36,38,78)          1.1454         estimate D2E/DX2                !
 ! D287  D(35,37,39,43)          5.5039         estimate D2E/DX2                !
 ! D288  D(35,37,39,79)       -157.4906         estimate D2E/DX2                !
 ! D289  D(77,37,39,43)        162.2676         estimate D2E/DX2                !
 ! D290  D(77,37,39,79)         -0.727          estimate D2E/DX2                !
 ! D291  D(35,37,77,75)          1.5768         estimate D2E/DX2                !
 ! D292  D(35,37,77,81)        144.078          estimate D2E/DX2                !
 ! D293  D(39,37,77,75)       -155.3659         estimate D2E/DX2                !
 ! D294  D(39,37,77,81)        -12.8647         estimate D2E/DX2                !
 ! D295  D(36,38,42,46)         -1.8408         estimate D2E/DX2                !
 ! D296  D(36,38,42,80)        162.5138         estimate D2E/DX2                !
 ! D297  D(78,38,42,46)       -172.3556         estimate D2E/DX2                !
 ! D298  D(78,38,42,80)         -8.001          estimate D2E/DX2                !
 ! D299  D(36,38,78,76)        -25.561          estimate D2E/DX2                !
 ! D300  D(36,38,78,81)       -137.4384         estimate D2E/DX2                !
 ! D301  D(36,38,78,87)         99.583          estimate D2E/DX2                !
 ! D302  D(42,38,78,76)        144.9551         estimate D2E/DX2                !
 ! D303  D(42,38,78,81)         33.0778         estimate D2E/DX2                !
 ! D304  D(42,38,78,87)        -89.9009         estimate D2E/DX2                !
 ! D305  D(37,39,43,2)        -158.098          estimate D2E/DX2                !
 ! D306  D(37,39,43,13)         -3.9155         estimate D2E/DX2                !
 ! D307  D(79,39,43,2)           5.6791         estimate D2E/DX2                !
 ! D308  D(79,39,43,13)        159.8616         estimate D2E/DX2                !
 ! D309  D(37,39,79,40)        127.1007         estimate D2E/DX2                !
 ! D310  D(37,39,79,82)         15.8733         estimate D2E/DX2                !
 ! D311  D(37,39,79,92)       -110.0513         estimate D2E/DX2                !
 ! D312  D(43,39,79,40)        -36.2429         estimate D2E/DX2                !
[...]
 Alpha virt. eigenvalues --    1.27097   1.27300   1.28096   1.28261   1.28584
 Alpha virt. eigenvalues --    1.28883   1.29209   1.29464   1.29734   1.30293
 Alpha virt. eigenvalues --    1.30416   1.30538   1.31097   1.31545   1.31862
 Alpha virt. eigenvalues --    1.32123   1.32299   1.32574   1.32809   1.33029
 Alpha virt. eigenvalues --    1.33542   1.34492   1.34928   1.35119   1.35177
 Alpha virt. eigenvalues --    1.35549   1.36222   1.36679   1.37299   1.37790
 Alpha virt. eigenvalues --    1.37924   1.38171   1.38686   1.39373   1.39772
 Alpha virt. eigenvalues --    1.40498   1.40658   1.40998   1.41237   1.41720
 Alpha virt. eigenvalues --    1.42632   1.43337   1.44040   1.44346   1.44687
 Alpha virt. eigenvalues --    1.45076   1.45315   1.46272   1.46958   1.47099
 Alpha virt. eigenvalues --    1.47374   1.48025   1.48125   1.48552   1.49482
 Alpha virt. eigenvalues --    1.50067   1.50856   1.51637   1.52140   1.52365
 Alpha virt. eigenvalues --    1.52644   1.53083   1.54101   1.54153   1.54642
 Alpha virt. eigenvalues --    1.55022   1.55454   1.55673   1.56666   1.57177
 Alpha virt. eigenvalues --    1.57657   1.58600   1.59135   1.59249   1.59581
 Alpha virt. eigenvalues --    1.60452   1.60597   1.60977   1.61763   1.62095
 Alpha virt. eigenvalues --    1.62429   1.62749   1.63253   1.63667   1.63786
 Alpha virt. eigenvalues --    1.64045   1.64291   1.64709   1.64762   1.64936
 Alpha virt. eigenvalues --    1.65311   1.65586   1.65924   1.66017   1.66412
 Alpha virt. eigenvalues --    1.66830   1.67226   1.67377   1.67561   1.68062
 Alpha virt. eigenvalues --    1.68194   1.68292   1.68580   1.68911   1.69097
 Alpha virt. eigenvalues --    1.69194   1.69399   1.69739   1.70059   1.70065
 Alpha virt. eigenvalues --    1.70086   1.70408   1.70726   1.71034   1.71216
 Alpha virt. eigenvalues --    1.71413   1.71818   1.72119   1.72244   1.72509
 Alpha virt. eigenvalues --    1.72723   1.72946   1.73449   1.73657   1.73926
 Alpha virt. eigenvalues --    1.74213   1.74299   1.74602   1.74830   1.75223
 Alpha virt. eigenvalues --    1.75395   1.75608   1.75757   1.75977   1.76153
 Alpha virt. eigenvalues --    1.76291   1.76406   1.76481   1.76865   1.77094
 Alpha virt. eigenvalues --    1.77396   1.77660   1.77836   1.78069   1.78278
 Alpha virt. eigenvalues --    1.78440   1.78849   1.79066   1.79253   1.79578
 Alpha virt. eigenvalues --    1.79851   1.80272   1.80488   1.80821   1.81113
 Alpha virt. eigenvalues --    1.81605   1.81829   1.82344   1.82570   1.82919
 Alpha virt. eigenvalues --    1.83236   1.83720   1.84070   1.84463   1.84979
 Alpha virt. eigenvalues --    1.85384   1.85996   1.86238   1.86481   1.87011
 Alpha virt. eigenvalues --    1.87634   1.87912   1.88103   1.88346   1.89082
 Alpha virt. eigenvalues --    1.89311   1.89424   1.90021   1.90315   1.90738
 Alpha virt. eigenvalues --    1.91190   1.91855   1.92139   1.92622   1.92738
 Alpha virt. eigenvalues --    1.93153   1.93804   1.94070   1.94091   1.94410
 Alpha virt. eigenvalues --    1.94782   1.95097   1.95219   1.95435   1.95759
 Alpha virt. eigenvalues --    1.96145   1.96393   1.96712   1.96995   1.97450
 Alpha virt. eigenvalues --    1.97775   1.97939   1.98430   1.98539   1.98646
 Alpha virt. eigenvalues --    1.98907   1.99398   1.99806   1.99920   2.00116
 Alpha virt. eigenvalues --    2.00296   2.00535   2.00928   2.01130   2.01405
 Alpha virt. eigenvalues --    2.01592   2.01787   2.02211   2.02520   2.02757
 Alpha virt. eigenvalues --    2.03151   2.03300   2.03656   2.03931   2.04340
 Alpha virt. eigenvalues --    2.04547   2.04824   2.05049   2.05642   2.06067
 Alpha virt. eigenvalues --    2.06523   2.06642   2.06728   2.06904   2.07544
 Alpha virt. eigenvalues --    2.07787   2.08110   2.08697   2.09168   2.09900
 Alpha virt. eigenvalues --    2.10310   2.10726   2.11575   2.11926   2.12328
 Alpha virt. eigenvalues --    2.12465   2.12877   2.13231   2.14000   2.14152
 Alpha virt. eigenvalues --    2.14589   2.14957   2.15228   2.15556   2.16399
 Alpha virt. eigenvalues --    2.16658   2.16986   2.17365   2.18054   2.18332
 Alpha virt. eigenvalues --    2.18958   2.19207   2.19556   2.19743   2.20383
 Alpha virt. eigenvalues --    2.20862   2.21268   2.21641   2.21739   2.22168
 Alpha virt. eigenvalues --    2.22319   2.22921   2.23285   2.23538   2.23816
 Alpha virt. eigenvalues --    2.24154   2.24538   2.25393   2.25583   2.26328
 Alpha virt. eigenvalues --    2.26460   2.26757   2.27095   2.27322   2.27705
 Alpha virt. eigenvalues --    2.28304   2.28529   2.29125   2.29515   2.29973
 Alpha virt. eigenvalues --    2.30350   2.30726   2.30848   2.31704   2.32148
 Alpha virt. eigenvalues --    2.32658   2.33006   2.33915   2.34436   2.34743
 Alpha virt. eigenvalues --    2.35395   2.36039   2.36316   2.36819   2.36897
 Alpha virt. eigenvalues --    2.38046   2.38622   2.38772   2.39502   2.39915
 Alpha virt. eigenvalues --    2.40241   2.40847   2.41301   2.41760   2.42267
 Alpha virt. eigenvalues --    2.43101   2.43230   2.43550   2.44278   2.44395
 Alpha virt. eigenvalues --    2.44719   2.45749   2.46082   2.46956   2.47064
 Alpha virt. eigenvalues --    2.48082   2.48507   2.48823   2.49585   2.50222
 Alpha virt. eigenvalues --    2.50599   2.51372   2.51493   2.51886   2.52336
 Alpha virt. eigenvalues --    2.52810   2.53336   2.53603   2.54243   2.54628
 Alpha virt. eigenvalues --    2.54753   2.55159   2.55362   2.55720   2.56073
 Alpha virt. eigenvalues --    2.56337   2.56939   2.57304   2.57492   2.57734
 Alpha virt. eigenvalues --    2.58013   2.58443   2.58528   2.58659   2.59184
 Alpha virt. eigenvalues --    2.59434   2.59588   2.60151   2.60300   2.60646
 Alpha virt. eigenvalues --    2.61044   2.61422   2.61940   2.61983   2.62491
 Alpha virt. eigenvalues --    2.62896   2.63150   2.63676   2.63924   2.64210
 Alpha virt. eigenvalues --    2.64542   2.65020   2.65225   2.65394   2.65848
 Alpha virt. eigenvalues --    2.66239   2.66314   2.66504   2.67278   2.67419
 Alpha virt. eigenvalues --    2.68211   2.68660   2.68807   2.68893   2.69429
 Alpha virt. eigenvalues --    2.70133   2.70292   2.70561   2.70905   2.71650
 Alpha virt. eigenvalues --    2.72197   2.72290   2.72931   2.73633   2.73704
 Alpha virt. eigenvalues --    2.74097   2.74450   2.74768   2.75079   2.75682
 Alpha virt. eigenvalues --    2.75852   2.76336   2.76621   2.77061   2.77285
 Alpha virt. eigenvalues --    2.77484   2.77977   2.78347   2.79349   2.79741
 Alpha virt. eigenvalues --    2.80162   2.80494   2.81024   2.81524   2.81900
 Alpha virt. eigenvalues --    2.82263   2.82717   2.82801   2.83484   2.83864
 Alpha virt. eigenvalues --    2.84105   2.84845   2.85192   2.86576   2.86840
 Alpha virt. eigenvalues --    2.86946   2.87304   2.88196   2.89071   2.89198
 Alpha virt. eigenvalues --    2.89929   2.90148   2.90896   2.91128   2.91518
 Alpha virt. eigenvalues --    2.91715   2.92180   2.92475   2.92785   2.93488
 Alpha virt. eigenvalues --    2.94059   2.94542   2.94784   2.95390   2.96362
 Alpha virt. eigenvalues --    2.97500   2.98210   2.98522   2.98582   3.00336
 Alpha virt. eigenvalues --    3.01681   3.02161   3.02684   3.02853   3.05077
 Alpha virt. eigenvalues --    3.06038   3.07732   3.09286   3.09589   3.11136
 Alpha virt. eigenvalues --    3.12759   3.13834   3.15748   3.15924   3.17861
 Alpha virt. eigenvalues --    3.19915   3.20789   3.21001   3.22301   3.24312
 Alpha virt. eigenvalues --    3.25321   3.27143   3.27442   3.29851   3.31904
 Alpha virt. eigenvalues --    3.33399   3.35057   3.35236   3.38436   3.41502
 Alpha virt. eigenvalues --    3.42543   3.43174   3.43540   3.44892   3.48969
 Alpha virt. eigenvalues --    3.50372   3.51954   3.54358   3.57708   3.58963
 Alpha virt. eigenvalues --    4.00604   4.01000   4.01141   4.02235   4.03547
 Alpha virt. eigenvalues --    4.03923   4.04465   4.04682   4.05415   4.06345
 Alpha virt. eigenvalues --    4.06513   4.07219   4.08072   4.08407   4.08579
 Alpha virt. eigenvalues --    4.09776   4.10123   4.11100   4.11237   4.11974
 Alpha virt. eigenvalues --    4.12840   4.13735   4.15472   4.16124   4.16976
 Alpha virt. eigenvalues --    4.17605   4.18472   4.19196   4.19819   4.20695
 Alpha virt. eigenvalues --    4.21528   4.21990   4.22788   4.23530   4.24033
 Alpha virt. eigenvalues --    4.25033   4.26389   4.27178   4.27335   4.27715
 Alpha virt. eigenvalues --    4.28355   4.28717   4.29091   4.29522   4.31469
 Alpha virt. eigenvalues --    4.31759   4.32885   4.34196   4.35117   4.36934
 Alpha virt. eigenvalues --    4.38479   4.39542   4.40586   4.41166   4.41458
 Alpha virt. eigenvalues --    4.43558   4.43764   4.44835   4.47618   4.47830
 Alpha virt. eigenvalues --    4.48565   4.49191   4.51455   4.53616   4.54769
 Alpha virt. eigenvalues --    4.57121   4.57579   4.58191   4.61375   4.61462
 Alpha virt. eigenvalues --    4.62591   4.64776   4.66699   4.66982   4.68611
 Alpha virt. eigenvalues --    4.71504   4.77649   4.79954   4.81262   4.83473
 Alpha virt. eigenvalues --    4.83914   4.88137   4.90800   4.92695   4.94889
 Alpha virt. eigenvalues --    5.00447   5.04325   5.07379   5.12104   5.16546
 Alpha virt. eigenvalues --    5.19199   5.23920
          Condensed to atoms (all electrons):
 Mulliken charges:
               1
     1  C   -0.024148
     2  C   -0.382809
     3  C   -0.012367
     4  C   -0.385302
     5  C    0.050457
     6  C    0.089596
     7  C   -0.033211
     8  C    0.086874
     9  C    0.031409
    10  C    0.092223
    11  C    0.088422
    12  C    0.081940
    13  C    0.011490
    14  C    0.007778
    15  C    0.023009
    16  C    0.009069
    17  C   -0.012776
    18  C    0.048321
    19  C   -0.014604
    20  C    0.049469
    21  C   -0.024675
    22  C   -0.021628
    23  C   -0.001115
    24  C   -0.014334
    25  C   -0.017869
    26  C    0.000041
    27  C   -0.020777
    28  C   -0.018627
    29  C    0.051573
    30  C    0.001856
    31  C   -0.031606
    32  C    0.072411
    33  C   -0.024582
    34  C   -0.356239
    35  C    0.040239
    36  C    0.101436
    37  C    0.059634
    38  C    0.119648
    39  C    0.121102
    40  C    0.118879
    41  C    0.112821
    42  C    0.148433
    43  C    0.076005
    44  C    0.144710
    45  C    0.144294
    46  C    0.080126
    47  C    0.121830
    48  C    0.125732
    49  C   -0.376560
    50  C   -0.378536
    51  C    0.087786
    52  C    0.087578
    53  C    0.023573
    54  C    0.004954
    55  C    0.004827
    56  C    0.008677
    57  C    0.049153
    58  C   -0.027628
    59  C    0.056323
    60  C   -0.028664
    61  C   -0.021349
    62  C   -0.019459
    63  C   -0.028647
    64  C    0.052382
    65  C   -0.030221
    66  C    0.046989
    67  C    0.056626
    68  C    0.035581
    69  C   -0.020004
    70  C    0.007850
    71  C   -0.021660
    72  C    0.032642
    73  C   -0.023205
    74  C    0.087522
    75  C    0.030231
    76  C    0.096454
    77  C   -0.018034
    78  C   -0.376236
    79  C   -0.358792
    80  C   -0.368942
    81  C    0.111598
    82  C    0.156846
    83  C    0.037913
    84  C    0.046482
    85  Cl   0.016607
    86  Cl   0.012738
    87  Cl   0.010102
    88  Cl  -0.011630
    89  Cl   0.012804
    90  Cl   0.009466
    91  Cl   0.014323
    92  Cl  -0.002620
 Sum of Mulliken charges =  -0.00000
 Mulliken charges with hydrogens summed into heavy atoms:
               1
     1  C   -0.024148
     2  C   -0.382809
     3  C   -0.012367
     4  C   -0.385302
     5  C    0.050457
     6  C    0.089596
     7  C   -0.033211
     8  C    0.086874
     9  C    0.031409
    10  C    0.092223
    11  C    0.088422
    12  C    0.081940
    13  C    0.011490
    14  C    0.007778
    15  C    0.023009
    16  C    0.009069
    17  C   -0.012776
    18  C    0.048321
    19  C   -0.014604
    20  C    0.049469
    21  C   -0.024675
    22  C   -0.021628
    23  C   -0.001115
    24  C   -0.014334
    25  C   -0.017869
    26  C    0.000041
    27  C   -0.020777
    28  C   -0.018627
    29  C    0.051573
    30  C    0.001856
    31  C   -0.031606
    32  C    0.072411
    33  C   -0.024582
    34  C   -0.356239
    35  C    0.040239
    36  C    0.101436
    37  C    0.059634
    38  C    0.119648
    39  C    0.121102
    40  C    0.118879
    41  C    0.112821
    42  C    0.148433
    43  C    0.076005
    44  C    0.144710
    45  C    0.144294
    46  C    0.080126
    47  C    0.121830
    48  C    0.125732
    49  C   -0.376560
    50  C   -0.378536
    51  C    0.087786
    52  C    0.087578
    53  C    0.023573
    54  C    0.004954
    55  C    0.004827
    56  C    0.008677
    57  C    0.049153
    58  C   -0.027628
    59  C    0.056323
    60  C   -0.028664
    61  C   -0.021349
    62  C   -0.019459
    63  C   -0.028647
    64  C    0.052382
    65  C   -0.030221
    66  C    0.046989
    67  C    0.056626
    68  C    0.035581
    69  C   -0.020004
    70  C    0.007850
    71  C   -0.021660
    72  C    0.032642
    73  C   -0.023205
    74  C    0.087522
    75  C    0.030231
    76  C    0.096454
    77  C   -0.018034
    78  C   -0.376236
    79  C   -0.358792
    80  C   -0.368942
    81  C    0.111598
    82  C    0.156846
    83  C    0.037913
    84  C    0.046482
    85  Cl   0.016607
    86  Cl   0.012738
    87  Cl   0.010102
    88  Cl  -0.011630
    89  Cl   0.012804
    90  Cl   0.009466
    91  Cl   0.014323
    92  Cl  -0.002620
 Electronic spatial extent (au):  <R**2>=          50911.1791
 Charge=              0.0000 electrons
 Dipole moment (field-independent basis, Debye):
    X=              2.2866    Y=              7.6225    Z=             -0.0978  Tot=              7.9586
 Quadrupole moment (field-independent basis, Debye-Ang):
   XX=           -582.6545   YY=           -577.8679   ZZ=           -557.1639
   XY=             -2.4976   XZ=             -0.0649   YZ=             -0.3708
 Traceless Quadrupole moment (field-independent basis, Debye-Ang):
   XX=            -10.0924   YY=             -5.3058   ZZ=             15.3982
   XY=             -2.4976   XZ=             -0.0649   YZ=             -0.3708
 Octapole moment (field-independent basis, Debye-Ang**2):
  XXX=            -24.2877  YYY=            -37.8918  ZZZ=              9.3815  XYY=            -38.1602
  XXY=             24.5093  XXZ=            -13.7804  XZZ=             17.2547  YZZ=            -10.2251
  YYZ=             15.2071  XYZ=              9.3252
 Hexadecapole moment (field-independent basis, Debye-Ang**3):
 XXXX=         -28599.9293 YYYY=         -25183.1207 ZZZZ=         -19927.1445 XXXY=            161.4375
 XXXZ=            -50.7780 YYYX=             13.6704 YYYZ=            -46.2367 ZZZX=             53.1814
 ZZZY=             12.2141 XXYY=          -8839.3182 XXZZ=          -8058.7315 YYZZ=          -7541.3868
 XXYZ=             11.7015 YYXZ=              8.9564 ZZXY=            -81.0440
 N-N= 2.056640871705D+04 E-N=-5.728221526246D+04  KE= 6.841422479393D+03
 No NMR shielding tensors so no spin-rotation constants.
 Leave Link  601 at Mon Jun 27 03:56:07 2022, MaxMem=  1342177280 cpu:              24.3 elap:               1.2
 (Enter /home/mkliu/g16/l9999.exe)
 1\1\GINC-NODE05\FOpt\RB3LYP\6-31G(d,p)\C84Cl8\MKLIU\27-Jun-2022\0\\#P 
 opt b3lyp/6-31G(d, p) empiricaldispersion=GD3\\force\\0,1\C,8.46765555
 61,18.8504869724,10.783925138\C,12.5700617783,19.9832250268,8.89480525
 13\C,8.2397660438,26.8910839117,10.5321814111\C,12.4797970012,25.75912
 26552,8.9299360929\C,7.9814886397,19.0710950343,9.4724951535\C,12.0536
 61207,19.490339054,10.2220690498\C,7.9281763936,26.8685381715,9.160004
 6426\C,11.8768338395,26.1925065888,10.2463923481\C,8.9576706764,19.186
 5294714,8.3834789789\C,12.324007391,20.126729482,11.3966599615\C,12.13
 35060866,25.5408329983,11.4098306255\C,8.9337896809,26.6290830883,8.17
 38012824\C,10.3293405225,19.0619555658,8.7000114485\C,10.2674122797,26
 .6658658078,8.640637497\C,10.7894705232,18.8350843559,10.0355252323\C,
 10.5945255235,26.7909351898,10.0344175462\C,9.864076991,18.7484584354,
 11.0673167504\C,9.584651486,26.7904628305,11.0192572853\C,10.142291438
 8,19.4326523285,12.3097746796\C,9.8433384787,26.0659049069,12.25293791
 46\C,8.91997288,19.99198405,12.8067597195\C,8.7538930929,25.440644226,
 12.9279215939\C,7.865192202,19.5188278894,11.9257464814\C,7.409672801,
 25.5148092453,12.3832146436\C,6.7114227206,20.241769964,11.7724392469\
 C,7.1555373988,26.2183172912,11.2386750133\C,6.0737756544,20.318882689
 5,10.4874440162\C,6.1991733997,25.7200610453,10.2669527183\C,6.6953299
 996,19.7456187539,9.3401323307\C,6.6237618304,26.2257327927,9.00380969
 49\C,6.3641103202,20.3333559531,8.1057476281\C,6.3078334696,25.5612092
 067,7.85324403\C,7.294732186,20.3369952153,6.9905006063\C,7.1817170721
 ,25.6402397403,6.6091043823\C,8.633013265,19.9083910496,7.1663248987\C
 ,8.6511696994,25.867804895,6.9829576936\C,9.6830082497,20.6056927213,6
 .4330439923\C,9.6776205831,25.1484599709,6.361296738\C,11.0470363219,2
 0.5632255016,6.9116989204\C,12.7161657823,22.1866870803,7.7746623803\C
 ,12.6962890177,23.5768098136,7.7769080615\C,11.018778213,25.1811163657
 ,6.8753633708\C,11.3482976351,19.7749924682,7.9859498571\C,12.91659788
 92,21.4639899952,8.9490362734\C,12.8659516819,24.290661013,8.962767704
 8\C,11.2990230049,25.9634024487,7.9750942591\C,13.1303460294,22.164355
 7846,10.154629803\C,13.0982055349,23.5843688851,10.1606702169\C,13.163
 6640264,21.3876736599,11.4793943944\C,13.0706198218,24.3499240881,11.4
 909334644\C,12.4326135918,22.1659849907,12.5601769066\C,12.3937737699,
 23.5189902646,12.559289597\C,11.331665939,20.1339136616,12.4393902952\
 C,11.1085600055,25.4472141515,12.4113786202\C,11.3279810328,21.4120515
 657,13.082779555\C,11.2475725737,24.1913263305,13.0835909182\C,8.86786
 0044,21.2856986167,13.3777931344\C,8.8819456166,24.1668327068,13.52890
 14029\C,7.6130582262,22.0312603499,13.2444748144\C,7.6305224436,23.438
 6744292,13.3489983338\C,6.5469191508,21.4923524143,12.4668530099\C,6.7
 290993584,24.2621226827,12.6164361462\C,5.7183810442,22.3162053734,11.
 6445619113\C,5.8344415196,23.7193304722,11.6445921359\C,5.4193558434,2
 1.5863402333,10.4209817977\C,5.586940425,24.4493004983,10.3979400523\C
 ,5.2192197729,22.2548470732,9.196357695\C,5.280056408,23.7191038668,9.
 1756321332\C,5.5634519833,21.5182204777,8.0237937946\C,5.6019636574,24
 .3349347185,7.9325711096\C,5.915180024,22.1850350199,6.7975401628\C,5.
 942204161,23.5658068477,6.7543760765\C,6.9680925708,21.4414908321,6.15
 7636821\C,6.95334056,24.2725434058,6.0063243354\C,7.9869543857,22.1384
 573052,5.4968569718\C,7.9537117772,23.5773319241,5.3992747515\C,9.3230
 922535,21.6986369786,5.607546543\C,9.3591056339,24.1210706871,5.272221
 6562\C,12.0562477611,21.6318834234,6.5252206601\C,12.0553728086,24.128
 3660382,6.5087948599\C,10.1921626405,22.8615136304,5.4684538646\C,11.4
 335159609,22.8775600464,5.9572801754\C,10.127231443,22.0227635341,13.5
 302689543\C,10.1181262016,23.4744747361,13.5724601303\Cl,13.9285936495
 ,26.8007185135,8.4694003091\Cl,13.3234772623,24.8438184288,5.365974366
 1\Cl,9.6608161312,24.8727757078,3.6132226073\Cl,6.6198410096,27.003130
 9175,5.4819728253\Cl,14.7798933492,24.8532121375,11.9582544895\Cl,14.9
 128108345,21.0163029965,11.9308246996\Cl,14.025994685,18.9941568015,8.
 3436450966\Cl,13.3046077862,20.9350561327,5.331849281\\Version=ES64L-G
 16RevA.03\State=1-A\HF=-6882.6392678\RMSD=5.472e-09\RMSF=6.806e-05\Dip
 ole=-2.4662908,-0.6080183,1.8308307\Quadrupole=-7.5672119,7.8056812,-0
 .2384692,3.1918349,0.4264725,5.9577663\PG=C01 [X(C84Cl8)]\\@


 We find comfort among those who agree with us -- growth among those who don't.
 -- Frank A. Clark
 Job cpu time:       1 days  3 hours 20 minutes 59.8 seconds.
 Elapsed time:       0 days  1 hours  8 minutes 28.7 seconds.
 File lengths (MBytes):  RWF=   1225 Int=      0 D2E=      0 Chk=    154 Scr=      1
 Normal termination of Gaussian 16 at Mon Jun 27 03:56:09 2022.
