 Entering Gaussian System, Link 0=g16
 Input=9qds5o6pamxa8_addon_3.gjf
 Output=9qds5o6pamxa8_addon_3.log
 Initial command:
 /home/mkliu/g16/l1.exe "/data/scratch/Gau-78217.inp" -scrdir="/data/scratch/"
 Entering Link 1 = /home/mkliu/g16/l1.exe PID=     78218.
  
 Copyright (c) 1988,1990,1992,1993,1995,1998,2003,2009,2016,
            Gaussian, Inc.  All Rights Reserved.
  
 This is part of the Gaussian(R) 16 program.  It is based on
 the Gaussian(R) 09 system (copyright 2009, Gaussian, Inc.),
 the Gaussian(R) 03 system (copyright 2003, Gaussian, Inc.),
 the Gaussian(R) 98 system (copyright 1998, Gaussian, Inc.),
 the Gaussian(R) 94 system (copyright 1995, Gaussian, Inc.),
 the Gaussian 92(TM) system (copyright 1992, Gaussian, Inc.),
 the Gaussian 90(TM) system (copyright 1990, Gaussian, Inc.),
 the Gaussian 88(TM) system (copyright 1988, Gaussian, Inc.),
 the Gaussian 86(TM) system (copyright 1986, Carnegie Mellon
 University), and the Gaussian 82(TM) system (copyright 1983,
 Carnegie Mellon University). Gaussian is a federally registered
 trademark of Gaussian, Inc.
  
 This software contains proprietary and confidential information,
 including trade secrets, belonging to Gaussian, Inc.
  
 This software is provided under written license and may be
 used, copied, transmitted, or stored only in accord with that
 written license.
  
 The following legend is applicable only to US Government
 contracts under FAR:
  
                    RESTRICTED RIGHTS LEGEND
  
 Use, reproduction and disclosure by the US Government is
 subject to restrictions as set forth in subparagraphs (a)
 and (c) of the Commercial Computer Software - Restricted
 Rights clause in FAR 52.227-19.
  
 Gaussian, Inc.
 340 Quinnipiac St., Bldg. 40, Wallingford CT 06492
  
  
 ---------------------------------------------------------------
 Warning -- This program may not be used in any manner that
 competes with the business of Gaussian, Inc. or will provide
 assistance to any competitor of Gaussian, Inc.  The licensee
 of this program is prohibited from giving any competitor of
 Gaussian, Inc. access to this program.  By using this program,
 the user acknowledges that Gaussian, Inc. is engaged in the
 business of creating and licensing software in the field of
 computational chemistry and represents and warrants to the
 licensee that it is not a competitor of Gaussian, Inc. and that
 it will not use this program in any manner prohibited above.
 ---------------------------------------------------------------
  

 Cite this work as:
 Gaussian 16, Revision A.03,
 M. J. Frisch, G. W. Trucks, H. B. Schlegel, G. E. Scuseria, 
 M. A. Robb, J. R. Cheeseman, G. Scalmani, V. Barone, 
 G. A. Petersson, H. Nakatsuji, X. Li, M. Caricato, A. V. Marenich, 
 J. Bloino, B. G. Janesko, R. Gomperts, B. Mennucci, H. P. Hratchian, 
 J. V. Ortiz, A. F. Izmaylov, J. L. Sonnenberg, D. Williams-Young, 
 F. Ding, F. Lipparini, F. Egidi, J. Goings, B. Peng, A. Petrone, 
 T. Henderson, D. Ranasinghe, V. G. Zakrzewski, J. Gao, N. Rega, 
 G. Zheng, W. Liang, M. Hada, M. Ehara, K. Toyota, R. Fukuda, 
 J. Hasegawa, M. Ishida, T. Nakajima, Y. Honda, O. Kitao, H. Nakai, 
 T. Vreven, K. Throssell, J. A. Montgomery, Jr., J. E. Peralta, 
 F. Ogliaro, M. J. Bearpark, J. J. Heyd, E. N. Brothers, K. N. Kudin, 
 V. N. Staroverov, T. A. Keith, R. Kobayashi, J. Normand, 
 K. Raghavachari, A. P. Rendell, J. C. Burant, S. S. Iyengar, 
 J. Tomasi, M. Cossi, J. M. Millam, M. Klene, C. Adamo, R. Cammi, 
 J. W. Ochterski, R. L. Martin, K. Morokuma, O. Farkas, 
 J. B. Foresman, and D. J. Fox, Gaussian, Inc., Wallingford CT, 2016.
 
 ******************************************
 Gaussian 16:  ES64L-G16RevA.03 25-Dec-2016
                16-Jul-2022 
 ******************************************
 %mem=10GB
 %chk=9qds5o6pamxa8_addon_3.chk
 %nprocshared=48
 Will use up to   48 processors via shared memory.
 -------------------------------------------------
 #P opt b3lyp/6-311G(d, p) empiricaldispersion=GD3
 -------------------------------------------------
 1/18=20,19=15,26=3,38=1/1,3;
 2/9=110,12=2,17=6,18=5,40=1/2;
 3/5=4,6=6,7=101,11=2,25=1,30=1,71=1,74=-5,124=31/1,2,3;
 4//1;
 5/5=2,38=5/2;
 6/7=2,8=2,9=2,10=2,28=1/1;
 7//1,2,3,16;
 1/18=20,19=15,26=3/3(2);
 2/9=110/2;
 99//99;
 2/9=110/2;
 3/5=4,6=6,7=101,11=2,25=1,30=1,71=1,74=-5,124=31/1,2,3;
 4/5=5,16=3,69=1/1;
 5/5=2,38=5/2;
 7//1,2,3,16;
 1/18=20,19=15,26=3/3(-5);
 2/9=110/2;
 6/7=2,8=2,9=2,10=2,19=2,28=1/1;
 99/9=1/99;
 Leave Link    1 at Sat Jul 16 16:43:00 2022, MaxMem=  1342177280 cpu:               2.0 elap:               0.0
 (Enter /home/mkliu/g16/l101.exe)
 -----
 force
 -----
 Symbolic Z-matrix:
 Charge =  0 Multiplicity = 2
 C                    -1.33569   1.88059  -3.87295 
 C                     0.12631   2.05986  -3.77854 
 C                     0.94645   0.89533  -4.26547 
 C                    -1.33792   0.38306  -3.92963 
 C                    -0.08349  -0.17387  -4.15976 
 C                    -2.16223  -0.13115  -2.95029 
 C                    -2.01428   2.12363  -2.55359 
 C                    -2.65421   0.95173  -2.13649 
 C                    -1.48349   2.97061  -1.56166 
 C                     0.67336   2.58774  -2.6506 
 C                    -0.07025   3.24481  -1.61507 
 C                     1.89744   0.68122  -3.10809 
 C                     1.84457   1.81907  -2.28324 
 C                     2.24542  -0.54323  -2.57592 
 C                     0.20885  -1.39555  -3.62546 
 C                     1.61304  -1.78632  -3.18941 
 C                    -1.92914  -1.40236  -2.38718 
 C                    -0.75898  -2.04871  -2.83614 
 C                    -2.46537  -1.71425  -1.08058 
 C                    -3.08834   0.69902  -0.81806 
 C                    -3.07776  -0.65749  -0.29921 
 C                    -2.09101   2.87062  -0.3002 
 C                    -2.9511    1.78989   0.05028 
 C                    -1.42803   3.29492   0.89829 
 C                     0.60328   3.45066  -0.41924 
 C                    -0.08015   3.58271   0.84379 
 C                     2.39786   1.84169  -1.01419 
 C                     1.87172   2.81939  -0.13817 
 C                     2.87812  -0.59341  -1.28654 
 C                     2.99512   0.62499  -0.51988 
 C                     2.90396  -1.81556  -0.57967 
 C                     1.30382  -2.80194  -2.13866 
 C                    -0.09799  -3.02437  -2.03705 
 C                     2.03863  -2.91177  -0.9954 
 C                    -1.91078  -2.81727  -0.41501 
 C                    -0.70372  -3.44796  -0.87154 
 C                    -1.91148  -2.90412   1.01794 
 C                    -3.12639  -0.79778   1.0938 
 C                    -2.51571  -1.91433   1.75755 
 C                    -2.89303   1.60624   1.46696 
 C                    -1.94759   2.54206   2.00872 
 C                    -3.00815   0.3325    1.97767 
 C                    -1.11178   2.13993   3.03604 
 C                     0.80014   3.13405   1.88808 
 C                     2.00444   2.65921   1.25549 
 C                     0.29669   2.44276   2.97315 
 C                     3.21794   0.5588    0.86789 
 C                     2.69068   1.55824   1.75795 
 C                     3.00411  -1.85875   0.83006 
 C                     3.18244  -0.6914    1.55881 
 C                     1.46836  -3.48776   0.19576 
 C                     0.11059  -3.77364   0.25697 
 C                    -0.65396  -3.46547   1.43283 
 C                     2.1046   -2.88024   1.32781 
 C                    -0.01674  -2.94645   2.54822 
 C                     1.39056  -2.64198   2.48931 
 C                    -1.90941  -1.44922   2.97503 
 C                    -2.20984  -0.05227   3.10837 
 C                    -1.25603   0.82664   3.60222 
 C                    -0.66052  -1.93127   3.33489 
 C                     1.01969   1.31801   3.51498 
 C                     2.21535   0.9096    2.94447 
 C                     2.51629  -0.49617   2.81722 
 C                     1.60725  -1.43915   3.25487 
 C                     0.0563    0.33318   3.93094 
 C                     0.34572  -1.01688   3.80081 
 Cl                    1.77101   0.97036  -5.84589 
 Cl                    2.66714  -2.3803   -4.52771 
 Cl                   -2.03354   2.85053  -5.20219 
 
 ITRead=  0  0  0  0  0  0  0  0  0  0  0  0  0  0  0  0  0  0  0  0
 ITRead=  0  0  0  0  0  0  0  0  0  0  0  0  0  0  0  0  0  0  0  0
 ITRead=  0  0  0  0  0  0  0  0  0  0  0  0  0  0  0  0  0  0  0  0
 ITRead=  0  0  0  0  0  0  0  0  0
 MicOpt= -1 -1 -1 -1 -1 -1 -1 -1 -1 -1 -1 -1 -1 -1 -1 -1 -1 -1 -1 -1
 MicOpt= -1 -1 -1 -1 -1 -1 -1 -1 -1 -1 -1 -1 -1 -1 -1 -1 -1 -1 -1 -1
 MicOpt= -1 -1 -1 -1 -1 -1 -1 -1 -1 -1 -1 -1 -1 -1 -1 -1 -1 -1 -1 -1
 MicOpt= -1 -1 -1 -1 -1 -1 -1 -1 -1
 NAtoms=     69 NQM=       69 NQMF=       0 NMMI=      0 NMMIF=      0
                NMic=       0 NMicF=      0.
                    Isotopes and Nuclear Properties:
 (Nuclear quadrupole moments (NQMom) in fm**2, nuclear magnetic moments (NMagM)
  in nuclear magnetons)

  Atom         1           2           3           4           5           6           7           8           9          10
 IAtWgt=          12          12          12          12          12          12          12          12          12          12
 AtmWgt=  12.0000000  12.0000000  12.0000000  12.0000000  12.0000000  12.0000000  12.0000000  12.0000000  12.0000000  12.0000000
 NucSpn=           0           0           0           0           0           0           0           0           0           0
 AtZEff=  -0.0000000  -0.0000000  -0.0000000  -0.0000000  -0.0000000  -0.0000000  -0.0000000  -0.0000000  -0.0000000  -0.0000000
 NQMom=    0.0000000   0.0000000   0.0000000   0.0000000   0.0000000   0.0000000   0.0000000   0.0000000   0.0000000   0.0000000
 NMagM=    0.0000000   0.0000000   0.0000000   0.0000000   0.0000000   0.0000000   0.0000000   0.0000000   0.0000000   0.0000000
 AtZNuc=   6.0000000   6.0000000   6.0000000   6.0000000   6.0000000   6.0000000   6.0000000   6.0000000   6.0000000   6.0000000

  Atom        11          12          13          14          15          16          17          18          19          20
 IAtWgt=          12          12          12          12          12          12          12          12          12          12
 AtmWgt=  12.0000000  12.0000000  12.0000000  12.0000000  12.0000000  12.0000000  12.0000000  12.0000000  12.0000000  12.0000000
 NucSpn=           0           0           0           0           0           0           0           0           0           0
 AtZEff=  -0.0000000  -0.0000000  -0.0000000  -0.0000000  -0.0000000  -0.0000000  -0.0000000  -0.0000000  -0.0000000  -0.0000000
 NQMom=    0.0000000   0.0000000   0.0000000   0.0000000   0.0000000   0.0000000   0.0000000   0.0000000   0.0000000   0.0000000
 NMagM=    0.0000000   0.0000000   0.0000000   0.0000000   0.0000000   0.0000000   0.0000000   0.0000000   0.0000000   0.0000000
 AtZNuc=   6.0000000   6.0000000   6.0000000   6.0000000   6.0000000   6.0000000   6.0000000   6.0000000   6.0000000   6.0000000

  Atom        21          22          23          24          25          26          27          28          29          30
 IAtWgt=          12          12          12          12          12          12          12          12          12          12
 AtmWgt=  12.0000000  12.0000000  12.0000000  12.0000000  12.0000000  12.0000000  12.0000000  12.0000000  12.0000000  12.0000000
 NucSpn=           0           0           0           0           0           0           0           0           0           0
 AtZEff=  -0.0000000  -0.0000000  -0.0000000  -0.0000000  -0.0000000  -0.0000000  -0.0000000  -0.0000000  -0.0000000  -0.0000000
 NQMom=    0.0000000   0.0000000   0.0000000   0.0000000   0.0000000   0.0000000   0.0000000   0.0000000   0.0000000   0.0000000
 NMagM=    0.0000000   0.0000000   0.0000000   0.0000000   0.0000000   0.0000000   0.0000000   0.0000000   0.0000000   0.0000000
 AtZNuc=   6.0000000   6.0000000   6.0000000   6.0000000   6.0000000   6.0000000   6.0000000   6.0000000   6.0000000   6.0000000

  Atom        31          32          33          34          35          36          37          38          39          40
 IAtWgt=          12          12          12          12          12          12          12          12          12          12
 AtmWgt=  12.0000000  12.0000000  12.0000000  12.0000000  12.0000000  12.0000000  12.0000000  12.0000000  12.0000000  12.0000000
 NucSpn=           0           0           0           0           0           0           0           0           0           0
 AtZEff=  -0.0000000  -0.0000000  -0.0000000  -0.0000000  -0.0000000  -0.0000000  -0.0000000  -0.0000000  -0.0000000  -0.0000000
 NQMom=    0.0000000   0.0000000   0.0000000   0.0000000   0.0000000   0.0000000   0.0000000   0.0000000   0.0000000   0.0000000
 NMagM=    0.0000000   0.0000000   0.0000000   0.0000000   0.0000000   0.0000000   0.0000000   0.0000000   0.0000000   0.0000000
 AtZNuc=   6.0000000   6.0000000   6.0000000   6.0000000   6.0000000   6.0000000   6.0000000   6.0000000   6.0000000   6.0000000

  Atom        41          42          43          44          45          46          47          48          49          50
 IAtWgt=          12          12          12          12          12          12          12          12          12          12
 AtmWgt=  12.0000000  12.0000000  12.0000000  12.0000000  12.0000000  12.0000000  12.0000000  12.0000000  12.0000000  12.0000000
 NucSpn=           0           0           0           0           0           0           0           0           0           0
 AtZEff=  -0.0000000  -0.0000000  -0.0000000  -0.0000000  -0.0000000  -0.0000000  -0.0000000  -0.0000000  -0.0000000  -0.0000000
 NQMom=    0.0000000   0.0000000   0.0000000   0.0000000   0.0000000   0.0000000   0.0000000   0.0000000   0.0000000   0.0000000
 NMagM=    0.0000000   0.0000000   0.0000000   0.0000000   0.0000000   0.0000000   0.0000000   0.0000000   0.0000000   0.0000000
 AtZNuc=   6.0000000   6.0000000   6.0000000   6.0000000   6.0000000   6.0000000   6.0000000   6.0000000   6.0000000   6.0000000

  Atom        51          52          53          54          55          56          57          58          59          60
 IAtWgt=          12          12          12          12          12          12          12          12          12          12
 AtmWgt=  12.0000000  12.0000000  12.0000000  12.0000000  12.0000000  12.0000000  12.0000000  12.0000000  12.0000000  12.0000000
 NucSpn=           0           0           0           0           0           0           0           0           0           0
 AtZEff=  -0.0000000  -0.0000000  -0.0000000  -0.0000000  -0.0000000  -0.0000000  -0.0000000  -0.0000000  -0.0000000  -0.0000000
 NQMom=    0.0000000   0.0000000   0.0000000   0.0000000   0.0000000   0.0000000   0.0000000   0.0000000   0.0000000   0.0000000
 NMagM=    0.0000000   0.0000000   0.0000000   0.0000000   0.0000000   0.0000000   0.0000000   0.0000000   0.0000000   0.0000000
 AtZNuc=   6.0000000   6.0000000   6.0000000   6.0000000   6.0000000   6.0000000   6.0000000   6.0000000   6.0000000   6.0000000

  Atom        61          62          63          64          65          66          67          68          69
 IAtWgt=          12          12          12          12          12          12          35          35          35
 AtmWgt=  12.0000000  12.0000000  12.0000000  12.0000000  12.0000000  12.0000000  34.9688527  34.9688527  34.9688527
 NucSpn=           0           0           0           0           0           0           3           3           3
 AtZEff=  -0.0000000  -0.0000000  -0.0000000  -0.0000000  -0.0000000  -0.0000000  -0.0000000  -0.0000000  -0.0000000
 NQMom=    0.0000000   0.0000000   0.0000000   0.0000000   0.0000000   0.0000000  -8.1650000  -8.1650000  -8.1650000
 NMagM=    0.0000000   0.0000000   0.0000000   0.0000000   0.0000000   0.0000000   0.8218740   0.8218740   0.8218740
 AtZNuc=   6.0000000   6.0000000   6.0000000   6.0000000   6.0000000   6.0000000  17.0000000  17.0000000  17.0000000
 Leave Link  101 at Sat Jul 16 16:43:00 2022, MaxMem=  1342177280 cpu:              19.5 elap:               0.4
 (Enter /home/mkliu/g16/l103.exe)

 GradGradGradGradGradGradGradGradGradGradGradGradGradGradGradGradGradGrad
 Berny optimization.
 Initialization pass.
                           ----------------------------
                           !    Initial Parameters    !
                           ! (Angstroms and Degrees)  !
 --------------------------                            --------------------------
 ! Name  Definition              Value          Derivative Info.                !
 --------------------------------------------------------------------------------
 ! R1    R(1,2)                  1.476          estimate D2E/DX2                !
 ! R2    R(1,4)                  1.4986         estimate D2E/DX2                !
 ! R3    R(1,7)                  1.5034         estimate D2E/DX2                !
 ! R4    R(1,69)                 1.7874         estimate D2E/DX2                !
 ! R5    R(2,3)                  1.5053         estimate D2E/DX2                !
 ! R6    R(2,10)                 1.3602         estimate D2E/DX2                !
 ! R7    R(3,5)                  1.4883         estimate D2E/DX2                !
 ! R8    R(3,12)                 1.5132         estimate D2E/DX2                !
 ! R9    R(3,67)                 1.7842         estimate D2E/DX2                !
 ! R10   R(4,5)                  1.3917         estimate D2E/DX2                !
 ! R11   R(4,6)                  1.3795         estimate D2E/DX2                !
 ! R12   R(5,15)                 1.3651         estimate D2E/DX2                !
 ! R13   R(6,8)                  1.4412         estimate D2E/DX2                !
 ! R14   R(6,17)                 1.4098         estimate D2E/DX2                !
 ! R15   R(7,8)                  1.3989         estimate D2E/DX2                !
 ! R16   R(7,9)                  1.4082         estimate D2E/DX2                !
 ! R17   R(8,20)                 1.4109         estimate D2E/DX2                !
 ! R18   R(9,11)                 1.4406         estimate D2E/DX2                !
 ! R19   R(9,22)                 1.4037         estimate D2E/DX2                !
 ! R20   R(10,11)                1.4342         estimate D2E/DX2                !
 ! R21   R(10,13)                1.4483         estimate D2E/DX2                !
 ! R22   R(11,25)                1.3878         estimate D2E/DX2                !
 ! R23   R(12,13)                1.4064         estimate D2E/DX2                !
 ! R24   R(12,14)                1.3797         estimate D2E/DX2                !
 ! R25   R(13,27)                1.3846         estimate D2E/DX2                !
 ! R26   R(14,16)                1.5237         estimate D2E/DX2                !
 ! R27   R(14,29)                1.4371         estimate D2E/DX2                !
 ! R28   R(15,16)                1.5214         estimate D2E/DX2                !
 ! R29   R(15,18)                1.4094         estimate D2E/DX2                !
 ! R30   R(16,32)                1.4937         estimate D2E/DX2                !
 ! R31   R(16,68)                1.8042         estimate D2E/DX2                !
 ! R32   R(17,18)                1.4102         estimate D2E/DX2                !
 ! R33   R(17,19)                1.4464         estimate D2E/DX2                !
 ! R34   R(18,33)                1.4239         estimate D2E/DX2                !
 ! R35   R(19,21)                1.4499         estimate D2E/DX2                !
 ! R36   R(19,35)                1.4026         estimate D2E/DX2                !
 ! R37   R(20,21)                1.4524         estimate D2E/DX2                !
 ! R38   R(20,23)                1.401          estimate D2E/DX2                !
 ! R39   R(21,38)                1.4009         estimate D2E/DX2                !
 ! R40   R(22,23)                1.425          estimate D2E/DX2                !
 ! R41   R(22,24)                1.4339         estimate D2E/DX2                !
 ! R42   R(23,40)                1.4297         estimate D2E/DX2                !
 ! R43   R(24,26)                1.3793         estimate D2E/DX2                !
 ! R44   R(24,41)                1.4387         estimate D2E/DX2                !
 ! R45   R(25,26)                1.4421         estimate D2E/DX2                !
 ! R46   R(25,28)                1.4444         estimate D2E/DX2                !
 ! R47   R(26,44)                1.4376         estimate D2E/DX2                !
 ! R48   R(27,28)                1.4143         estimate D2E/DX2                !
 ! R49   R(27,30)                1.4427         estimate D2E/DX2                !
 ! R50   R(28,45)                1.4091         estimate D2E/DX2                !
 ! R51   R(29,30)                1.4443         estimate D2E/DX2                !
 ! R52   R(29,31)                1.4121         estimate D2E/DX2                !
 ! R53   R(30,47)                1.4071         estimate D2E/DX2                !
 ! R54   R(31,34)                1.4572         estimate D2E/DX2                !
 ! R55   R(31,49)                1.4139         estimate D2E/DX2                !
 ! R56   R(32,33)                1.423          estimate D2E/DX2                !
 ! R57   R(32,34)                1.3635         estimate D2E/DX2                !
 ! R58   R(33,36)                1.3801         estimate D2E/DX2                !
 ! R59   R(34,51)                1.4408         estimate D2E/DX2                !
 ! R60   R(35,36)                1.4364         estimate D2E/DX2                !
 ! R61   R(35,37)                1.4356         estimate D2E/DX2                !
 ! R62   R(36,52)                1.4292         estimate D2E/DX2                !
 ! R63   R(37,39)                1.3754         estimate D2E/DX2                !
 ! R64   R(37,53)                1.4383         estimate D2E/DX2                !
 ! R65   R(38,39)                1.4353         estimate D2E/DX2                !
 ! R66   R(38,42)                1.4397         estimate D2E/DX2                !
 ! R67   R(39,57)                1.4374         estimate D2E/DX2                !
 ! R68   R(40,41)                1.4364         estimate D2E/DX2                !
 ! R69   R(40,42)                1.3771         estimate D2E/DX2                !
 ! R70   R(41,43)                1.3841         estimate D2E/DX2                !
 ! R71   R(42,58)                1.4366         estimate D2E/DX2                !
 ! R72   R(43,46)                1.442          estimate D2E/DX2                !
 ! R73   R(43,59)                1.4374         estimate D2E/DX2                !
 ! R74   R(44,45)                1.4408         estimate D2E/DX2                !
 ! R75   R(44,46)                1.3816         estimate D2E/DX2                !
 ! R76   R(45,48)                1.3912         estimate D2E/DX2                !
 ! R77   R(46,61)                1.4427         estimate D2E/DX2                !
 ! R78   R(47,48)                1.4384         estimate D2E/DX2                !
 ! R79   R(47,50)                1.4288         estimate D2E/DX2                !
 ! R80   R(48,62)                1.4334         estimate D2E/DX2                !
 ! R81   R(49,50)                1.3877         estimate D2E/DX2                !
 ! R82   R(49,54)                1.4492         estimate D2E/DX2                !
 ! R83   R(50,63)                1.4372         estimate D2E/DX2                !
 ! R84   R(51,52)                1.3889         estimate D2E/DX2                !
 ! R85   R(51,54)                1.4337         estimate D2E/DX2                !
 ! R86   R(52,53)                1.436          estimate D2E/DX2                !
 ! R87   R(53,55)                1.3855         estimate D2E/DX2                !
 ! R88   R(54,56)                1.3841         estimate D2E/DX2                !
 ! R89   R(55,56)                1.4411         estimate D2E/DX2                !
 ! R90   R(55,60)                1.4366         estimate D2E/DX2                !
 ! R91   R(56,64)                1.4422         estimate D2E/DX2                !
 ! R92   R(57,58)                1.4351         estimate D2E/DX2                !
 ! R93   R(57,60)                1.3862         estimate D2E/DX2                !
 ! R94   R(58,59)                1.3878         estimate D2E/DX2                !
 ! R95   R(59,65)                1.4401         estimate D2E/DX2                !
 ! R96   R(60,66)                1.4373         estimate D2E/DX2                !
 ! R97   R(61,62)                1.3863         estimate D2E/DX2                !
 ! R98   R(61,65)                1.4391         estimate D2E/DX2                !
 ! R99   R(62,63)                1.4432         estimate D2E/DX2                !
 ! R100  R(63,64)                1.381          estimate D2E/DX2                !
 ! R101  R(64,66)                1.438          estimate D2E/DX2                !
 ! R102  R(65,66)                1.3869         estimate D2E/DX2                !
 ! A1    A(2,1,4)               97.1956         estimate D2E/DX2                !
 ! A2    A(2,1,7)              111.7975         estimate D2E/DX2                !
 ! A3    A(2,1,69)             111.6171         estimate D2E/DX2                !
 ! A4    A(4,1,7)              101.19           estimate D2E/DX2                !
 ! A5    A(4,1,69)             120.9016         estimate D2E/DX2                !
 ! A6    A(7,1,69)             112.8729         estimate D2E/DX2                !
 ! A7    A(1,2,3)              115.1526         estimate D2E/DX2                !
 ! A8    A(1,2,10)             119.9039         estimate D2E/DX2                !
 ! A9    A(3,2,10)             110.4482         estimate D2E/DX2                !
 ! A10   A(2,3,5)               98.9606         estimate D2E/DX2                !
 ! A11   A(2,3,12)             101.7977         estimate D2E/DX2                !
 ! A12   A(2,3,67)             120.385          estimate D2E/DX2                !
 ! A13   A(5,3,12)             106.1962         estimate D2E/DX2                !
 ! A14   A(5,3,67)             114.39           estimate D2E/DX2                !
 ! A15   A(12,3,67)            113.1424         estimate D2E/DX2                !
 ! A16   A(1,4,5)              113.8799         estimate D2E/DX2                !
 ! A17   A(1,4,6)              110.2746         estimate D2E/DX2                !
 ! A18   A(5,4,6)              120.4536         estimate D2E/DX2                !
 ! A19   A(3,5,4)              110.3665         estimate D2E/DX2                !
 ! A20   A(3,5,15)             121.5019         estimate D2E/DX2                !
 ! A21   A(4,5,15)             119.1085         estimate D2E/DX2                !
 ! A22   A(4,6,8)              108.9528         estimate D2E/DX2                !
 ! A23   A(4,6,17)             121.3922         estimate D2E/DX2                !
 ! A24   A(8,6,17)             120.5603         estimate D2E/DX2                !
 ! A25   A(1,7,8)              109.4339         estimate D2E/DX2                !
 ! A26   A(1,7,9)              123.0421         estimate D2E/DX2                !
 ! A27   A(8,7,9)              117.7927         estimate D2E/DX2                !
 ! A28   A(6,8,7)              107.7547         estimate D2E/DX2                !
 ! A29   A(6,8,20)             119.8769         estimate D2E/DX2                !
 ! A30   A(7,8,20)             124.7114         estimate D2E/DX2                !
 ! A31   A(7,9,11)             117.2673         estimate D2E/DX2                !
 ! A32   A(7,9,22)             115.2798         estimate D2E/DX2                !
 ! A33   A(11,9,22)            118.1294         estimate D2E/DX2                !
 ! A34   A(2,10,11)            124.6109         estimate D2E/DX2                !
 ! A35   A(2,10,13)            109.2444         estimate D2E/DX2                !
 ! A36   A(11,10,13)           118.6395         estimate D2E/DX2                !
 ! A37   A(9,11,10)            116.628          estimate D2E/DX2                !
 ! A38   A(9,11,25)            118.1899         estimate D2E/DX2                !
 ! A39   A(10,11,25)           116.0056         estimate D2E/DX2                !
 ! A40   A(3,12,13)            108.0889         estimate D2E/DX2                !
 ! A41   A(3,12,14)            125.3873         estimate D2E/DX2                !
 ! A42   A(13,12,14)           120.0853         estimate D2E/DX2                !
 ! A43   A(10,13,12)           108.122          estimate D2E/DX2                !
 ! A44   A(10,13,27)           123.1587         estimate D2E/DX2                !
 ! A45   A(12,13,27)           122.3952         estimate D2E/DX2                !
 ! A46   A(12,14,16)           117.6498         estimate D2E/DX2                !
 ! A47   A(12,14,29)           119.2152         estimate D2E/DX2                !
 ! A48   A(16,14,29)           121.0295         estimate D2E/DX2                !
 ! A49   A(5,15,16)            122.6639         estimate D2E/DX2                !
 ! A50   A(5,15,18)            119.137          estimate D2E/DX2                !
 ! A51   A(16,15,18)           110.7483         estimate D2E/DX2                !
 ! A52   A(14,16,15)           106.7932         estimate D2E/DX2                !
 ! A53   A(14,16,32)           110.9408         estimate D2E/DX2                !
 ! A54   A(14,16,68)           108.9526         estimate D2E/DX2                !
 ! A55   A(15,16,32)           100.6721         estimate D2E/DX2                !
 ! A56   A(15,16,68)           114.2813         estimate D2E/DX2                !
 ! A57   A(32,16,68)           114.7658         estimate D2E/DX2                !
 ! A58   A(6,17,18)            115.0451         estimate D2E/DX2                !
 ! A59   A(6,17,19)            119.602          estimate D2E/DX2                !
 ! A60   A(18,17,19)           119.7629         estimate D2E/DX2                !
 ! A61   A(15,18,17)           122.3928         estimate D2E/DX2                !
 ! A62   A(15,18,33)           108.2447         estimate D2E/DX2                !
 ! A63   A(17,18,33)           121.373          estimate D2E/DX2                !
 ! A64   A(17,19,21)           119.0942         estimate D2E/DX2                !
 ! A65   A(17,19,35)           116.8498         estimate D2E/DX2                !
 ! A66   A(21,19,35)           118.9766         estimate D2E/DX2                !
 ! A67   A(8,20,21)            119.9256         estimate D2E/DX2                !
 ! A68   A(8,20,23)            114.1783         estimate D2E/DX2                !
 ! A69   A(21,20,23)           120.3378         estimate D2E/DX2                !
 ! A70   A(19,21,20)           119.425          estimate D2E/DX2                !
 ! A71   A(19,21,38)           118.5249         estimate D2E/DX2                !
 ! A72   A(20,21,38)           116.6477         estimate D2E/DX2                !
 ! A73   A(9,22,23)            122.4309         estimate D2E/DX2                !
 ! A74   A(9,22,24)            122.0024         estimate D2E/DX2                !
 ! A75   A(23,22,24)           107.3333         estimate D2E/DX2                !
 ! A76   A(20,23,22)           119.8157         estimate D2E/DX2                !
 ! A77   A(20,23,40)           121.2051         estimate D2E/DX2                !
 ! A78   A(22,23,40)           108.4584         estimate D2E/DX2                !
 ! A79   A(22,24,26)           118.7209         estimate D2E/DX2                !
 ! A80   A(22,24,41)           108.863          estimate D2E/DX2                !
 ! A81   A(26,24,41)           119.5106         estimate D2E/DX2                !
 ! A82   A(11,25,26)           122.5635         estimate D2E/DX2                !
 ! A83   A(11,25,28)           121.9395         estimate D2E/DX2                !
 ! A84   A(26,25,28)           106.6039         estimate D2E/DX2                !
 ! A85   A(24,26,25)           118.594          estimate D2E/DX2                !
 ! A86   A(24,26,44)           120.3009         estimate D2E/DX2                !
 ! A87   A(25,26,44)           108.5077         estimate D2E/DX2                !
 ! A88   A(13,27,28)           115.4904         estimate D2E/DX2                !
 ! A89   A(13,27,30)           117.7543         estimate D2E/DX2                !
 ! A90   A(28,27,30)           121.6544         estimate D2E/DX2                !
 ! A91   A(25,28,27)           120.55           estimate D2E/DX2                !
 ! A92   A(25,28,45)           108.956          estimate D2E/DX2                !
 ! A93   A(27,28,45)           119.9343         estimate D2E/DX2                !
 ! A94   A(14,29,30)           118.8462         estimate D2E/DX2                !
 ! A95   A(14,29,31)           119.1703         estimate D2E/DX2                !
 ! A96   A(30,29,31)           117.5759         estimate D2E/DX2                !
 ! A97   A(27,30,29)           119.7379         estimate D2E/DX2                !
 ! A98   A(27,30,47)           116.3052         estimate D2E/DX2                !
 ! A99   A(29,30,47)           119.7803         estimate D2E/DX2                !
 ! A100  A(29,31,34)           119.8291         estimate D2E/DX2                !
 ! A101  A(29,31,49)           121.7918         estimate D2E/DX2                !
 ! A102  A(34,31,49)           107.67           estimate D2E/DX2                !
 ! A103  A(16,32,33)           111.1278         estimate D2E/DX2                !
 ! A104  A(16,32,34)           122.2111         estimate D2E/DX2                !
 ! A105  A(33,32,34)           117.2869         estimate D2E/DX2                !
 ! A106  A(18,33,32)           108.0673         estimate D2E/DX2                !
 ! A107  A(18,33,36)           118.7183         estimate D2E/DX2                !
 ! A108  A(32,33,36)           122.7275         estimate D2E/DX2                !
 ! A109  A(31,34,32)           119.912          estimate D2E/DX2                !
 ! A110  A(31,34,51)           107.453          estimate D2E/DX2                !
 ! A111  A(32,34,51)           120.8047         estimate D2E/DX2                !
 ! A112  A(19,35,36)           121.7874         estimate D2E/DX2                !
 ! A113  A(19,35,37)           121.4025         estimate D2E/DX2                !
 ! A114  A(36,35,37)           106.9239         estimate D2E/DX2                !
 ! A115  A(33,36,35)           120.1636         estimate D2E/DX2                !
 ! A116  A(33,36,52)           119.1224         estimate D2E/DX2                !
 ! A117  A(35,36,52)           109.1407         estimate D2E/DX2                !
 ! A118  A(35,37,39)           119.5662         estimate D2E/DX2                !
 ! A119  A(35,37,53)           108.127          estimate D2E/DX2                !
 ! A120  A(39,37,53)           120.6536         estimate D2E/DX2                !
 ! A121  A(21,38,39)           121.5312         estimate D2E/DX2                !
 ! A122  A(21,38,42)           121.9375         estimate D2E/DX2                !
 ! A123  A(39,38,42)           106.9704         estimate D2E/DX2                !
 ! A124  A(37,39,38)           119.8702         estimate D2E/DX2                !
 ! A125  A(37,39,57)           120.1991         estimate D2E/DX2                !
 ! A126  A(38,39,57)           108.6284         estimate D2E/DX2                !
 ! A127  A(23,40,41)           108.4683         estimate D2E/DX2                !
 ! A128  A(23,40,42)           118.8741         estimate D2E/DX2                !
 ! A129  A(41,40,42)           121.1819         estimate D2E/DX2                !
 ! A130  A(24,41,40)           106.7102         estimate D2E/DX2                !
 ! A131  A(24,41,43)           120.4542         estimate D2E/DX2                !
 ! A132  A(40,41,43)           119.2187         estimate D2E/DX2                !
 ! A133  A(38,42,40)           120.3533         estimate D2E/DX2                !
 ! A134  A(38,42,58)           108.5761         estimate D2E/DX2                !
 ! A135  A(40,42,58)           119.5481         estimate D2E/DX2                !
 ! A136  A(41,43,46)           119.7644         estimate D2E/DX2                !
 ! A137  A(41,43,59)           119.8161         estimate D2E/DX2                !
 ! A138  A(46,43,59)           107.8827         estimate D2E/DX2                !
 ! A139  A(26,44,45)           107.2013         estimate D2E/DX2                !
 ! A140  A(26,44,46)           120.234          estimate D2E/DX2                !
 ! A141  A(45,44,46)           118.98           estimate D2E/DX2                !
 ! A142  A(28,45,44)           108.5448         estimate D2E/DX2                !
 ! A143  A(28,45,48)           119.5788         estimate D2E/DX2                !
 ! A144  A(44,45,48)           120.9658         estimate D2E/DX2                !
 ! A145  A(43,46,44)           119.6867         estimate D2E/DX2                !
 ! A146  A(43,46,61)           108.022          estimate D2E/DX2                !
 ! A147  A(44,46,61)           120.1615         estimate D2E/DX2                !
 ! A148  A(30,47,48)           121.3009         estimate D2E/DX2                !
 ! A149  A(30,47,50)           120.9395         estimate D2E/DX2                !
 ! A150  A(48,47,50)           107.4349         estimate D2E/DX2                !
 ! A151  A(45,48,47)           120.4765         estimate D2E/DX2                !
 ! A152  A(45,48,62)           119.5714         estimate D2E/DX2                !
 ! A153  A(47,48,62)           108.6235         estimate D2E/DX2                !
 ! A154  A(31,49,50)           120.4642         estimate D2E/DX2                !
 ! A155  A(31,49,54)           108.663          estimate D2E/DX2                !
 ! A156  A(50,49,54)           119.4943         estimate D2E/DX2                !
 ! A157  A(47,50,49)           119.0326         estimate D2E/DX2                !
 ! A158  A(47,50,63)           108.4253         estimate D2E/DX2                !
 ! A159  A(49,50,63)           120.967          estimate D2E/DX2                !
 ! A160  A(34,51,52)           120.3752         estimate D2E/DX2                !
 ! A161  A(34,51,54)           107.9239         estimate D2E/DX2                !
 ! A162  A(52,51,54)           119.0955         estimate D2E/DX2                !
 ! A163  A(36,52,51)           118.3784         estimate D2E/DX2                !
 ! A164  A(36,52,53)           107.1152         estimate D2E/DX2                !
 ! A165  A(51,52,53)           120.8236         estimate D2E/DX2                !
 ! A166  A(37,53,52)           108.2434         estimate D2E/DX2                !
 ! A167  A(37,53,55)           119.2192         estimate D2E/DX2                !
 ! A168  A(52,53,55)           119.6521         estimate D2E/DX2                !
 ! A169  A(49,54,51)           107.6335         estimate D2E/DX2                !
 ! A170  A(49,54,56)           119.1495         estimate D2E/DX2                !
 ! A171  A(51,54,56)           120.4392         estimate D2E/DX2                !
 ! A172  A(53,55,56)           119.6954         estimate D2E/DX2                !
 ! A173  A(53,55,60)           119.9639         estimate D2E/DX2                !
 ! A174  A(56,55,60)           108.1021         estimate D2E/DX2                !
 ! A175  A(54,56,55)           120.1156         estimate D2E/DX2                !
 ! A176  A(54,56,64)           120.7658         estimate D2E/DX2                !
 ! A177  A(55,56,64)           107.5324         estimate D2E/DX2                !
 ! A178  A(39,57,58)           107.7804         estimate D2E/DX2                !
 ! A179  A(39,57,60)           119.1674         estimate D2E/DX2                !
 ! A180  A(58,57,60)           120.1977         estimate D2E/DX2                !
 ! A181  A(42,58,57)           107.6927         estimate D2E/DX2                !
 ! A182  A(42,58,59)           119.4959         estimate D2E/DX2                !
 ! A183  A(57,58,59)           120.3742         estimate D2E/DX2                !
 ! A184  A(43,59,58)           120.4918         estimate D2E/DX2                !
 ! A185  A(43,59,65)           108.1518         estimate D2E/DX2                !
 ! A186  A(58,59,65)           119.3752         estimate D2E/DX2                !
 ! A187  A(55,60,57)           120.4849         estimate D2E/DX2                !
 ! A188  A(55,60,66)           108.2609         estimate D2E/DX2                !
 ! A189  A(57,60,66)           119.5822         estimate D2E/DX2                !
 ! A190  A(46,61,62)           120.4871         estimate D2E/DX2                !
 ! A191  A(46,61,65)           107.8535         estimate D2E/DX2                !
 ! A192  A(62,61,65)           119.6511         estimate D2E/DX2                !
 ! A193  A(48,62,61)           119.5614         estimate D2E/DX2                !
 ! A194  A(48,62,63)           107.376          estimate D2E/DX2                !
 ! A195  A(61,62,63)           120.2037         estimate D2E/DX2                !
 ! A196  A(50,63,62)           107.8284         estimate D2E/DX2                !
 ! A197  A(50,63,64)           119.3311         estimate D2E/DX2                !
 ! A198  A(62,63,64)           119.9936         estimate D2E/DX2                !
 ! A199  A(56,64,63)           120.0123         estimate D2E/DX2                !
 ! A200  A(56,64,66)           108.3392         estimate D2E/DX2                !
 ! A201  A(63,64,66)           119.8204         estimate D2E/DX2                !
 ! A202  A(59,65,61)           108.0344         estimate D2E/DX2                !
 ! A203  A(59,65,66)           120.1543         estimate D2E/DX2                !
 ! A204  A(61,65,66)           119.957          estimate D2E/DX2                !
 ! A205  A(60,66,64)           107.7162         estimate D2E/DX2                !
 ! A206  A(60,66,65)           120.2409         estimate D2E/DX2                !
 ! A207  A(64,66,65)           120.3025         estimate D2E/DX2                !
 ! D1    D(4,1,2,3)             21.1171         estimate D2E/DX2                !
 ! D2    D(4,1,2,10)          -114.5493         estimate D2E/DX2                !
 ! D3    D(7,1,2,3)            126.2558         estimate D2E/DX2                !
 ! D4    D(7,1,2,10)            -9.4106         estimate D2E/DX2                !
 ! D5    D(69,1,2,3)          -106.2439         estimate D2E/DX2                !
 ! D6    D(69,1,2,10)          118.0898         estimate D2E/DX2                !
 ! D7    D(2,1,4,5)            -12.8763         estimate D2E/DX2                !
 ! D8    D(2,1,4,6)            126.1005         estimate D2E/DX2                !
 ! D9    D(7,1,4,5)           -126.8617         estimate D2E/DX2                !
 ! D10   D(7,1,4,6)             12.1151         estimate D2E/DX2                !
 ! D11   D(69,1,4,5)           107.6757         estimate D2E/DX2                !
 ! D12   D(69,1,4,6)          -113.3475         estimate D2E/DX2                !
 ! D13   D(2,1,7,8)           -118.0882         estimate D2E/DX2                !
 ! D14   D(2,1,7,9)             26.9298         estimate D2E/DX2                !
 ! D15   D(4,1,7,8)            -15.577          estimate D2E/DX2                !
 ! D16   D(4,1,7,9)            129.441          estimate D2E/DX2                !
 ! D17   D(69,1,7,8)           115.0891         estimate D2E/DX2                !
 ! D18   D(69,1,7,9)           -99.8929         estimate D2E/DX2                !
 ! D19   D(1,2,3,5)            -21.0673         estimate D2E/DX2                !
 ! D20   D(1,2,3,12)          -129.815          estimate D2E/DX2                !
 ! D21   D(1,2,3,67)           104.177          estimate D2E/DX2                !
 ! D22   D(10,2,3,5)           118.6519         estimate D2E/DX2                !
 ! D23   D(10,2,3,12)            9.9042         estimate D2E/DX2                !
 ! D24   D(10,2,3,67)         -116.1037         estimate D2E/DX2                !
 ! D25   D(1,2,10,11)          -13.0904         estimate D2E/DX2                !
 ! D26   D(1,2,10,13)          135.975          estimate D2E/DX2                !
 ! D27   D(3,2,10,11)         -150.6277         estimate D2E/DX2                !
 ! D28   D(3,2,10,13)           -1.5622         estimate D2E/DX2                !
 ! D29   D(2,3,5,4)             11.1987         estimate D2E/DX2                !
 ! D30   D(2,3,5,15)          -135.5323         estimate D2E/DX2                !
 ! D31   D(12,3,5,4)           116.3481         estimate D2E/DX2                !
 ! D32   D(12,3,5,15)          -30.3829         estimate D2E/DX2                !
 ! D33   D(67,3,5,4)          -118.1269         estimate D2E/DX2                !
 ! D34   D(67,3,5,15)           95.1421         estimate D2E/DX2                !
 ! D35   D(2,3,12,13)          -14.803          estimate D2E/DX2                !
 ! D36   D(2,3,12,14)          136.7038         estimate D2E/DX2                !
 ! D37   D(5,3,12,13)         -117.8858         estimate D2E/DX2                !
 ! D38   D(5,3,12,14)           33.621          estimate D2E/DX2                !
 ! D39   D(67,3,12,13)         115.8304         estimate D2E/DX2                !
 ! D40   D(67,3,12,14)         -92.6628         estimate D2E/DX2                !
 ! D41   D(1,4,5,3)              1.0149         estimate D2E/DX2                !
 ! D42   D(1,4,5,15)           148.6481         estimate D2E/DX2                !
 ! D43   D(6,4,5,3)           -133.4048         estimate D2E/DX2                !
 ! D44   D(6,4,5,15)            14.2285         estimate D2E/DX2                !
 ! D45   D(1,4,6,8)             -4.6612         estimate D2E/DX2                !
 ! D46   D(1,4,6,17)          -151.7303         estimate D2E/DX2                !
 ! D47   D(5,4,6,8)            131.2136         estimate D2E/DX2                !
 ! D48   D(5,4,6,17)           -15.8555         estimate D2E/DX2                !
 ! D49   D(3,5,15,16)           -4.213          estimate D2E/DX2                !
 ! D50   D(3,5,15,18)          142.838          estimate D2E/DX2                !
 ! D51   D(4,5,15,16)         -148.1538         estimate D2E/DX2                !
 ! D52   D(4,5,15,18)           -1.1029         estimate D2E/DX2                !
 ! D53   D(4,6,8,7)             -5.6615         estimate D2E/DX2                !
 ! D54   D(4,6,8,20)          -156.531          estimate D2E/DX2                !
 ! D55   D(17,6,8,7)           141.7291         estimate D2E/DX2                !
 ! D56   D(17,6,8,20)           -9.1404         estimate D2E/DX2                !
 ! D57   D(4,6,17,18)            3.9513         estimate D2E/DX2                !
 ! D58   D(4,6,17,19)          157.5434         estimate D2E/DX2                !
 ! D59   D(8,6,17,18)         -139.3866         estimate D2E/DX2                !
 ! D60   D(8,6,17,19)           14.2056         estimate D2E/DX2                !
 ! D61   D(1,7,8,6)             13.6982         estimate D2E/DX2                !
 ! D62   D(1,7,8,20)           162.8016         estimate D2E/DX2                !
 ! D63   D(9,7,8,6)           -133.3955         estimate D2E/DX2                !
 ! D64   D(9,7,8,20)            15.708          estimate D2E/DX2                !
 ! D65   D(1,7,9,11)           -21.2692         estimate D2E/DX2                !
 ! D66   D(1,7,9,22)          -167.3671         estimate D2E/DX2                !
 ! D67   D(8,7,9,11)           121.0575         estimate D2E/DX2                !
 ! D68   D(8,7,9,22)           -25.0403         estimate D2E/DX2                !
 ! D69   D(6,8,20,21)           -1.9352         estimate D2E/DX2                !
 ! D70   D(6,8,20,23)          151.8669         estimate D2E/DX2                !
 ! D71   D(7,8,20,21)         -147.6032         estimate D2E/DX2                !
 ! D72   D(7,8,20,23)            6.1989         estimate D2E/DX2                !
 ! D73   D(7,9,11,10)           -2.1526         estimate D2E/DX2                !
 ! D74   D(7,9,11,25)         -147.7622         estimate D2E/DX2                !
 ! D75   D(22,9,11,10)         142.9638         estimate D2E/DX2                !
 ! D76   D(22,9,11,25)          -2.6458         estimate D2E/DX2                !
 ! D77   D(7,9,22,23)           14.3389         estimate D2E/DX2                !
 ! D78   D(7,9,22,24)          158.7588         estimate D2E/DX2                !
 ! D79   D(11,9,22,23)        -131.4531         estimate D2E/DX2                !
 ! D80   D(11,9,22,24)          12.9668         estimate D2E/DX2                !
 ! D81   D(2,10,11,9)           19.7988         estimate D2E/DX2                !
 ! D82   D(2,10,11,25)         166.1628         estimate D2E/DX2                !
 ! D83   D(13,10,11,9)        -126.6288         estimate D2E/DX2                !
 ! D84   D(13,10,11,25)         19.7352         estimate D2E/DX2                !
 ! D85   D(2,10,13,12)          -8.3641         estimate D2E/DX2                !
 ! D86   D(2,10,13,27)        -160.8873         estimate D2E/DX2                !
 ! D87   D(11,10,13,12)        142.8156         estimate D2E/DX2                !
 ! D88   D(11,10,13,27)         -9.7075         estimate D2E/DX2                !
 ! D89   D(9,11,25,26)          -8.7373         estimate D2E/DX2                !
 ! D90   D(9,11,25,28)         134.1705         estimate D2E/DX2                !
 ! D91   D(10,11,25,26)       -154.5568         estimate D2E/DX2                !
 ! D92   D(10,11,25,28)        -11.649          estimate D2E/DX2                !
 ! D93   D(3,12,13,10)          14.686          estimate D2E/DX2                !
 ! D94   D(3,12,13,27)         167.4634         estimate D2E/DX2                !
 ! D95   D(14,12,13,10)       -138.604          estimate D2E/DX2                !
 ! D96   D(14,12,13,27)         14.1734         estimate D2E/DX2                !
 ! D97   D(3,12,14,16)          -0.6739         estimate D2E/DX2                !
 ! D98   D(3,12,14,29)        -164.3582         estimate D2E/DX2                !
 ! D99   D(13,12,14,16)        147.7197         estimate D2E/DX2                !
 ! D100  D(13,12,14,29)        -15.9646         estimate D2E/DX2                !
 ! D101  D(10,13,27,28)         -9.1576         estimate D2E/DX2                !
 ! D102  D(10,13,27,30)        146.0533         estimate D2E/DX2                !
 ! D103  D(12,13,27,28)       -157.8706         estimate D2E/DX2                !
 ! D104  D(12,13,27,30)         -2.6597         estimate D2E/DX2                !
 ! D105  D(12,14,16,15)        -33.7182         estimate D2E/DX2                !
 ! D106  D(12,14,16,32)       -142.5387         estimate D2E/DX2                !
 ! D107  D(12,14,16,68)         90.185          estimate D2E/DX2                !
 ! D108  D(29,14,16,15)        129.655          estimate D2E/DX2                !
 ! D109  D(29,14,16,32)         20.8344         estimate D2E/DX2                !
 ! D110  D(29,14,16,68)       -106.4419         estimate D2E/DX2                !
 ! D111  D(12,14,29,30)          6.8865         estimate D2E/DX2                !
 ! D112  D(12,14,29,31)        162.7709         estimate D2E/DX2                !
 ! D113  D(16,14,29,30)       -156.2315         estimate D2E/DX2                !
 ! D114  D(16,14,29,31)         -0.3471         estimate D2E/DX2                !
 ! D115  D(5,15,16,14)          37.4762         estimate D2E/DX2                !
 ! D116  D(5,15,16,32)         153.374          estimate D2E/DX2                !
 ! D117  D(5,15,16,68)         -83.0759         estimate D2E/DX2                !
 ! D118  D(18,15,16,14)       -111.9921         estimate D2E/DX2                !
 ! D119  D(18,15,16,32)          3.9057         estimate D2E/DX2                !
 ! D120  D(18,15,16,68)        127.4558         estimate D2E/DX2                !
 ! D121  D(5,15,18,17)         -10.945          estimate D2E/DX2                !
 ! D122  D(5,15,18,33)        -160.074          estimate D2E/DX2                !
 ! D123  D(16,15,18,17)        139.7386         estimate D2E/DX2                !
 ! D124  D(16,15,18,33)         -9.3903         estimate D2E/DX2                !
 ! D125  D(14,16,32,33)        115.7753         estimate D2E/DX2                !
 ! D126  D(14,16,32,34)        -29.7463         estimate D2E/DX2                !
 ! D127  D(15,16,32,33)          3.0129         estimate D2E/DX2                !
 ! D128  D(15,16,32,34)       -142.5088         estimate D2E/DX2                !
 ! D129  D(68,16,32,33)       -120.2019         estimate D2E/DX2                !
 ! D130  D(68,16,32,34)         94.2765         estimate D2E/DX2                !
 ! D131  D(6,17,18,15)           9.3474         estimate D2E/DX2                !
 ! D132  D(6,17,18,33)         154.5441         estimate D2E/DX2                !
 ! D133  D(19,17,18,15)       -144.1991         estimate D2E/DX2                !
 ! D134  D(19,17,18,33)          0.9976         estimate D2E/DX2                !
 ! D135  D(6,17,19,21)          -8.2103         estimate D2E/DX2                !
 ! D136  D(6,17,19,35)        -162.7781         estimate D2E/DX2                !
 ! D137  D(18,17,19,21)        144.1332         estimate D2E/DX2                !
 ! D138  D(18,17,19,35)        -10.4346         estimate D2E/DX2                !
 ! D139  D(15,18,33,32)         11.0954         estimate D2E/DX2                !
 ! D140  D(15,18,33,36)        156.9057         estimate D2E/DX2                !
 ! D141  D(17,18,33,32)       -138.4099         estimate D2E/DX2                !
 ! D142  D(17,18,33,36)          7.4004         estimate D2E/DX2                !
 ! D143  D(17,19,21,20)         -2.6385         estimate D2E/DX2                !
 ! D144  D(17,19,21,38)       -155.8457         estimate D2E/DX2                !
 ! D145  D(35,19,21,20)        151.3869         estimate D2E/DX2                !
 ! D146  D(35,19,21,38)         -1.8203         estimate D2E/DX2                !
 ! D147  D(17,19,35,36)         11.9601         estimate D2E/DX2                !
 ! D148  D(17,19,35,37)        153.18           estimate D2E/DX2                !
 ! D149  D(21,19,35,36)       -142.6388         estimate D2E/DX2                !
 ! D150  D(21,19,35,37)         -1.4188         estimate D2E/DX2                !
 ! D151  D(8,20,21,19)           7.6848         estimate D2E/DX2                !
 ! D152  D(8,20,21,38)         161.3821         estimate D2E/DX2                !
 ! D153  D(23,20,21,19)       -144.4983         estimate D2E/DX2                !
 ! D154  D(23,20,21,38)          9.1989         estimate D2E/DX2                !
 ! D155  D(8,20,23,22)         -17.4609         estimate D2E/DX2                !
 ! D156  D(8,20,23,40)        -158.1558         estimate D2E/DX2                !
 ! D157  D(21,20,23,22)        136.2232         estimate D2E/DX2                !
 ! D158  D(21,20,23,40)         -4.4717         estimate D2E/DX2                !
 ! D159  D(19,21,38,39)          3.8602         estimate D2E/DX2                !
 ! D160  D(19,21,38,42)        145.6715         estimate D2E/DX2                !
 ! D161  D(20,21,38,39)       -150.0821         estimate D2E/DX2                !
 ! D162  D(20,21,38,42)         -8.2709         estimate D2E/DX2                !
 ! D163  D(9,22,23,20)           7.6599         estimate D2E/DX2                !
 ! D164  D(9,22,23,40)         152.8268         estimate D2E/DX2                !
 ! D165  D(24,22,23,20)       -141.2163         estimate D2E/DX2                !
 ! D166  D(24,22,23,40)          3.9506         estimate D2E/DX2                !
 ! D167  D(9,22,24,26)         -11.8021         estimate D2E/DX2                !
 ! D168  D(9,22,24,41)        -153.1342         estimate D2E/DX2                !
 ! D169  D(23,22,24,26)        137.2366         estimate D2E/DX2                !
 ! D170  D(23,22,24,41)         -4.0955         estimate D2E/DX2                !
 ! D171  D(20,23,40,41)        142.245          estimate D2E/DX2                !
 ! D172  D(20,23,40,42)         -1.6108         estimate D2E/DX2                !
 ! D173  D(22,23,40,41)         -2.346          estimate D2E/DX2                !
 ! D174  D(22,23,40,42)       -146.2018         estimate D2E/DX2                !
 ! D175  D(22,24,26,25)          0.3062         estimate D2E/DX2                !
 ! D176  D(22,24,26,44)       -137.1925         estimate D2E/DX2                !
 ! D177  D(41,24,26,25)        137.5101         estimate D2E/DX2                !
 ! D178  D(41,24,26,44)          0.0114         estimate D2E/DX2                !
 ! D179  D(22,24,41,40)          2.6498         estimate D2E/DX2                !
 ! D180  D(22,24,41,43)        142.8021         estimate D2E/DX2                !
 ! D181  D(26,24,41,40)       -138.3281         estimate D2E/DX2                !
 ! D182  D(26,24,41,43)          1.8242         estimate D2E/DX2                !
 ! D183  D(11,25,26,24)         10.0051         estimate D2E/DX2                !
 ! D184  D(11,25,26,44)        152.0442         estimate D2E/DX2                !
 ! D185  D(28,25,26,24)       -137.7145         estimate D2E/DX2                !
 ! D186  D(28,25,26,44)          4.3246         estimate D2E/DX2                !
 ! D187  D(11,25,28,27)         -7.4625         estimate D2E/DX2                !
 ! D188  D(11,25,28,45)       -152.0884         estimate D2E/DX2                !
 ! D189  D(26,25,28,27)        140.5046         estimate D2E/DX2                !
 ! D190  D(26,25,28,45)         -4.1212         estimate D2E/DX2                !
 ! D191  D(24,26,44,45)        138.3368         estimate D2E/DX2                !
 ! D192  D(24,26,44,46)         -1.7901         estimate D2E/DX2                !
 ! D193  D(25,26,44,45)         -2.94           estimate D2E/DX2                !
 ! D194  D(25,26,44,46)       -143.0669         estimate D2E/DX2                !
 ! D195  D(13,27,28,25)         17.6267         estimate D2E/DX2                !
 ! D196  D(13,27,28,45)        158.4436         estimate D2E/DX2                !
 ! D197  D(30,27,28,25)       -136.5313         estimate D2E/DX2                !
 ! D198  D(30,27,28,45)          4.2856         estimate D2E/DX2                !
 ! D199  D(13,27,30,29)         -6.3643         estimate D2E/DX2                !
 ! D200  D(13,27,30,47)       -163.3611         estimate D2E/DX2                !
 ! D201  D(28,27,30,29)        147.2373         estimate D2E/DX2                !
 ! D202  D(28,27,30,47)         -9.7596         estimate D2E/DX2                !
 ! D203  D(25,28,45,44)          2.3551         estimate D2E/DX2                !
 ! D204  D(25,28,45,48)        146.887          estimate D2E/DX2                !
 ! D205  D(27,28,45,44)       -142.5244         estimate D2E/DX2                !
 ! D206  D(27,28,45,48)          2.0075         estimate D2E/DX2                !
 ! D207  D(14,29,30,27)          4.2976         estimate D2E/DX2                !
 ! D208  D(14,29,30,47)        160.4931         estimate D2E/DX2                !
 ! D209  D(31,29,30,27)       -151.9688         estimate D2E/DX2                !
 ! D210  D(31,29,30,47)          4.2266         estimate D2E/DX2                !
 ! D211  D(14,29,31,34)        -14.4318         estimate D2E/DX2                !
 ! D212  D(14,29,31,49)       -154.5213         estimate D2E/DX2                !
 ! D213  D(30,29,31,34)        141.7554         estimate D2E/DX2                !
 ! D214  D(30,29,31,49)          1.666          estimate D2E/DX2                !
 ! D215  D(27,30,47,48)          9.2846         estimate D2E/DX2                !
 ! D216  D(27,30,47,50)        149.9358         estimate D2E/DX2                !
 ! D217  D(29,30,47,48)       -147.7019         estimate D2E/DX2                !
 ! D218  D(29,30,47,50)         -7.0508         estimate D2E/DX2                !
 ! D219  D(29,31,34,32)          6.3334         estimate D2E/DX2                !
 ! D220  D(29,31,34,51)       -136.8159         estimate D2E/DX2                !
 ! D221  D(49,31,34,32)        151.4202         estimate D2E/DX2                !
 ! D222  D(49,31,34,51)          8.2709         estimate D2E/DX2                !
 ! D223  D(29,31,49,50)         -4.8979         estimate D2E/DX2                !
 ! D224  D(29,31,49,54)        138.382          estimate D2E/DX2                !
 ! D225  D(34,31,49,50)       -149.1551         estimate D2E/DX2                !
 ! D226  D(34,31,49,54)         -5.8751         estimate D2E/DX2                !
 ! D227  D(16,32,33,18)         -8.7883         estimate D2E/DX2                !
 ! D228  D(16,32,33,36)       -152.9282         estimate D2E/DX2                !
 ! D229  D(34,32,33,18)        138.6002         estimate D2E/DX2                !
 ! D230  D(34,32,33,36)         -5.5397         estimate D2E/DX2                !
 ! D231  D(16,32,34,31)         17.4708         estimate D2E/DX2                !
 ! D232  D(16,32,34,51)        155.7043         estimate D2E/DX2                !
 ! D233  D(33,32,34,31)       -126.0765         estimate D2E/DX2                !
 ! D234  D(33,32,34,51)         12.157          estimate D2E/DX2                !
 ! D235  D(18,33,36,35)         -6.0279         estimate D2E/DX2                !
 ! D236  D(18,33,36,52)       -145.3066         estimate D2E/DX2                !
 ! D237  D(32,33,36,35)        134.5493         estimate D2E/DX2                !
 ! D238  D(32,33,36,52)         -4.7293         estimate D2E/DX2                !
 ! D239  D(31,34,51,52)        133.9462         estimate D2E/DX2                !
 ! D240  D(31,34,51,54)         -7.4948         estimate D2E/DX2                !
 ! D241  D(32,34,51,52)         -8.8084         estimate D2E/DX2                !
 ! D242  D(32,34,51,54)       -150.2494         estimate D2E/DX2                !
 ! D243  D(19,35,36,33)         -3.8515         estimate D2E/DX2                !
 ! D244  D(19,35,36,52)        139.0448         estimate D2E/DX2                !
 ! D245  D(37,35,36,33)       -149.8791         estimate D2E/DX2                !
 ! D246  D(37,35,36,52)         -6.9828         estimate D2E/DX2                !
 ! D247  D(19,35,37,39)          2.7002         estimate D2E/DX2                !
 ! D248  D(19,35,37,53)       -140.6696         estimate D2E/DX2                !
 ! D249  D(36,35,37,39)        148.8869         estimate D2E/DX2                !
 ! D250  D(36,35,37,53)          5.5171         estimate D2E/DX2                !
 ! D251  D(33,36,52,51)          8.1881         estimate D2E/DX2                !
 ! D252  D(33,36,52,53)        149.0581         estimate D2E/DX2                !
 ! D253  D(35,36,52,51)       -135.1528         estimate D2E/DX2                !
 ! D254  D(35,36,52,53)          5.7172         estimate D2E/DX2                !
 ! D255  D(35,37,39,38)         -0.6839         estimate D2E/DX2                !
 ! D256  D(35,37,39,57)       -140.1892         estimate D2E/DX2                !
 ! D257  D(53,37,39,38)        138.0817         estimate D2E/DX2                !
 ! D258  D(53,37,39,57)         -1.4237         estimate D2E/DX2                !
 ! D259  D(35,37,53,52)         -2.0734         estimate D2E/DX2                !
 ! D260  D(35,37,53,55)        139.2996         estimate D2E/DX2                !
 ! D261  D(39,37,53,52)       -144.9702         estimate D2E/DX2                !
 ! D262  D(39,37,53,55)         -3.5973         estimate D2E/DX2                !
 ! D263  D(21,38,39,37)         -2.6338         estimate D2E/DX2                !
 ! D264  D(21,38,39,57)        141.0476         estimate D2E/DX2                !
 ! D265  D(42,38,39,37)       -149.366          estimate D2E/DX2                !
 ! D266  D(42,38,39,57)         -5.6846         estimate D2E/DX2                !
 ! D267  D(21,38,42,40)          2.4966         estimate D2E/DX2                !
 ! D268  D(21,38,42,58)       -140.6053         estimate D2E/DX2                !
 ! D269  D(39,38,42,40)        149.0635         estimate D2E/DX2                !
 ! D270  D(39,38,42,58)          5.9616         estimate D2E/DX2                !
 ! D271  D(37,39,57,58)        146.8206         estimate D2E/DX2                !
 ! D272  D(37,39,57,60)          5.201          estimate D2E/DX2                !
 ! D273  D(38,39,57,58)          3.2793         estimate D2E/DX2                !
 ! D274  D(38,39,57,60)       -138.3404         estimate D2E/DX2                !
 ! D275  D(23,40,41,24)         -0.1917         estimate D2E/DX2                !
 ! D276  D(23,40,41,43)       -140.9293         estimate D2E/DX2                !
 ! D277  D(42,40,41,24)        142.672          estimate D2E/DX2                !
 ! D278  D(42,40,41,43)          1.9343         estimate D2E/DX2                !
 ! D279  D(23,40,42,38)          2.6668         estimate D2E/DX2                !
 ! D280  D(23,40,42,58)        141.808          estimate D2E/DX2                !
 ! D281  D(41,40,42,38)       -136.4957         estimate D2E/DX2                !
 ! D282  D(41,40,42,58)          2.6455         estimate D2E/DX2                !
 ! D283  D(24,41,43,46)         -1.8785         estimate D2E/DX2                !
 ! D284  D(24,41,43,59)       -139.2229         estimate D2E/DX2                !
 ! D285  D(40,41,43,46)        133.4405         estimate D2E/DX2                !
 ! D286  D(40,41,43,59)         -3.9039         estimate D2E/DX2                !
 ! D287  D(38,42,58,57)         -3.9883         estimate D2E/DX2                !
 ! D288  D(38,42,58,59)        138.219          estimate D2E/DX2                !
 ! D289  D(40,42,58,57)       -147.4364         estimate D2E/DX2                !
 ! D290  D(40,42,58,59)         -5.229          estimate D2E/DX2                !
 ! D291  D(41,43,46,44)          0.0964         estimate D2E/DX2                !
 ! D292  D(41,43,46,61)       -142.4328         estimate D2E/DX2                !
 ! D293  D(59,43,46,44)        141.9452         estimate D2E/DX2                !
 ! D294  D(59,43,46,61)         -0.584          estimate D2E/DX2                !
 ! D295  D(41,43,59,58)          1.3102         estimate D2E/DX2                !
 ! D296  D(41,43,59,65)        143.6944         estimate D2E/DX2                !
 ! D297  D(46,43,59,58)       -140.5153         estimate D2E/DX2                !
 ! D298  D(46,43,59,65)          1.8689         estimate D2E/DX2                !
 ! D299  D(26,44,45,28)          0.3623         estimate D2E/DX2                !
 ! D300  D(26,44,45,48)       -143.5865         estimate D2E/DX2                !
 ! D301  D(46,44,45,28)        141.0782         estimate D2E/DX2                !
 ! D302  D(46,44,45,48)         -2.8706         estimate D2E/DX2                !
 ! D303  D(26,44,46,43)          1.7293         estimate D2E/DX2                !
 ! D304  D(26,44,46,61)        139.7319         estimate D2E/DX2                !
 ! D305  D(45,44,46,43)       -133.8379         estimate D2E/DX2                !
 ! D306  D(45,44,46,61)          4.1646         estimate D2E/DX2                !
 ! D307  D(28,45,48,47)         -2.4511         estimate D2E/DX2                !
 ! D308  D(28,45,48,62)       -141.9118         estimate D2E/DX2                !
 ! D309  D(44,45,48,47)        137.6407         estimate D2E/DX2                !
 ! D310  D(44,45,48,62)         -1.82           estimate D2E/DX2                !
 ! D311  D(43,46,61,62)        141.5223         estimate D2E/DX2                !
 ! D312  D(43,46,61,65)         -0.9223         estimate D2E/DX2                !
 ! D313  D(44,46,61,62)         -0.7966         estimate D2E/DX2                !
 ! D314  D(44,46,61,65)       -143.2412         estimate D2E/DX2                !
 ! D315  D(30,47,48,45)         -3.4863         estimate D2E/DX2                !
 ! D316  D(30,47,48,62)        139.8911         estimate D2E/DX2                !
 ! D317  D(50,47,48,45)       -148.7353         estimate D2E/DX2                !
 ! D318  D(50,47,48,62)         -5.358          estimate D2E/DX2                !
 ! D319  D(30,47,50,49)          3.8565         estimate D2E/DX2                !
 ! D320  D(30,47,50,63)       -139.7734         estimate D2E/DX2                !
 ! D321  D(48,47,50,49)        149.2564         estimate D2E/DX2                !
 ! D322  D(48,47,50,63)          5.6266         estimate D2E/DX2                !
 ! D323  D(45,48,62,61)          5.2034         estimate D2E/DX2                !
 ! D324  D(45,48,62,63)        146.7858         estimate D2E/DX2                !
 ! D325  D(47,48,62,61)       -138.5601         estimate D2E/DX2                !
 ! D326  D(47,48,62,63)          3.0224         estimate D2E/DX2                !
 ! D327  D(31,49,50,47)          2.0997         estimate D2E/DX2                !
 ! D328  D(31,49,50,63)        141.095          estimate D2E/DX2                !
 ! D329  D(54,49,50,47)       -137.2978         estimate D2E/DX2                !
 ! D330  D(54,49,50,63)          1.6975         estimate D2E/DX2                !
 ! D331  D(31,49,54,51)          1.2515         estimate D2E/DX2                !
 ! D332  D(31,49,54,56)       -140.5592         estimate D2E/DX2                !
 ! D333  D(50,49,54,51)        144.9457         estimate D2E/DX2                !
 ! D334  D(50,49,54,56)          3.1349         estimate D2E/DX2                !
 ! D335  D(47,50,63,62)         -3.7923         estimate D2E/DX2                !
 ! D336  D(47,50,63,64)        137.7483         estimate D2E/DX2                !
 ! D337  D(49,50,63,62)       -146.587          estimate D2E/DX2                !
 ! D338  D(49,50,63,64)         -5.0464         estimate D2E/DX2                !
 ! D339  D(34,51,52,36)         -1.7254         estimate D2E/DX2                !
 ! D340  D(34,51,52,53)       -137.1102         estimate D2E/DX2                !
 ! D341  D(54,51,52,36)        135.5314         estimate D2E/DX2                !
 ! D342  D(54,51,52,53)          0.1465         estimate D2E/DX2                !
 ! D343  D(34,51,54,49)          3.9328         estimate D2E/DX2                !
 ! D344  D(34,51,54,56)        145.1565         estimate D2E/DX2                !
 ! D345  D(52,51,54,49)       -138.085          estimate D2E/DX2                !
 ! D346  D(52,51,54,56)          3.1387         estimate D2E/DX2                !
 ! D347  D(36,52,53,37)         -2.2194         estimate D2E/DX2                !
 ! D348  D(36,52,53,55)       -143.3964         estimate D2E/DX2                !
 ! D349  D(51,52,53,37)        137.4969         estimate D2E/DX2                !
 ! D350  D(51,52,53,55)         -3.6802         estimate D2E/DX2                !
 ! D351  D(37,53,55,56)       -133.074          estimate D2E/DX2                !
 ! D352  D(37,53,55,60)          4.7977         estimate D2E/DX2                !
 ! D353  D(52,53,55,56)          3.9095         estimate D2E/DX2                !
 ! D354  D(52,53,55,60)        141.7812         estimate D2E/DX2                !
 ! D355  D(49,54,56,55)        133.9902         estimate D2E/DX2                !
 ! D356  D(49,54,56,64)         -4.652          estimate D2E/DX2                !
 ! D357  D(51,54,56,55)         -2.8993         estimate D2E/DX2                !
 ! D358  D(51,54,56,64)       -141.5415         estimate D2E/DX2                !
 ! D359  D(53,55,56,54)         -0.6681         estimate D2E/DX2                !
 ! D360  D(53,55,56,64)        142.7888         estimate D2E/DX2                !
 ! D361  D(60,55,56,54)       -142.9776         estimate D2E/DX2                !
 ! D362  D(60,55,56,64)          0.4794         estimate D2E/DX2                !
 ! D363  D(53,55,60,57)         -1.0178         estimate D2E/DX2                !
 ! D364  D(53,55,60,66)       -143.9087         estimate D2E/DX2                !
 ! D365  D(56,55,60,57)        141.1724         estimate D2E/DX2                !
 ! D366  D(56,55,60,66)         -1.7184         estimate D2E/DX2                !
 ! D367  D(54,56,64,63)          1.3159         estimate D2E/DX2                !
 ! D368  D(54,56,64,66)        144.1116         estimate D2E/DX2                !
 ! D369  D(55,56,64,63)       -141.8564         estimate D2E/DX2                !
 ! D370  D(55,56,64,66)          0.9393         estimate D2E/DX2                !
 ! D371  D(39,57,58,42)          0.4418         estimate D2E/DX2                !
 ! D372  D(39,57,58,59)       -141.3706         estimate D2E/DX2                !
 ! D373  D(60,57,58,42)        141.5923         estimate D2E/DX2                !
 ! D374  D(60,57,58,59)         -0.22           estimate D2E/DX2                !
 ! D375  D(39,57,60,55)         -3.9835         estimate D2E/DX2                !
 ! D376  D(39,57,60,66)        134.8057         estimate D2E/DX2                !
 ! D377  D(58,57,60,55)       -140.8225         estimate D2E/DX2                !
 ! D378  D(58,57,60,66)         -2.0333         estimate D2E/DX2                !
 ! D379  D(42,58,59,43)          3.2746         estimate D2E/DX2                !
 ! D380  D(42,58,59,65)       -134.9999         estimate D2E/DX2                !
 ! D381  D(57,58,59,43)        140.688          estimate D2E/DX2                !
 ! D382  D(57,58,59,65)          2.4135         estimate D2E/DX2                !
 ! D383  D(43,59,65,61)         -2.4448         estimate D2E/DX2                !
 ! D384  D(43,59,65,66)       -145.2406         estimate D2E/DX2                !
 ! D385  D(58,59,65,61)        140.4305         estimate D2E/DX2                !
 ! D386  D(58,59,65,66)         -2.3653         estimate D2E/DX2                !
 ! D387  D(55,60,66,64)          2.2916         estimate D2E/DX2                !
 ! D388  D(55,60,66,65)        145.3599         estimate D2E/DX2                !
 ! D389  D(57,60,66,64)       -140.9912         estimate D2E/DX2                !
 ! D390  D(57,60,66,65)          2.0771         estimate D2E/DX2                !
 ! D391  D(46,61,62,48)         -3.9323         estimate D2E/DX2                !
 ! D392  D(46,61,62,63)       -140.6034         estimate D2E/DX2                !
 ! D393  D(65,61,62,48)        134.1861         estimate D2E/DX2                !
 ! D394  D(65,61,62,63)         -2.485          estimate D2E/DX2                !
 ! D395  D(46,61,65,59)          2.0752         estimate D2E/DX2                !
 ! D396  D(46,61,65,66)        144.9574         estimate D2E/DX2                !
 ! D397  D(62,61,65,59)       -140.7392         estimate D2E/DX2                !
 ! D398  D(62,61,65,66)          2.1431         estimate D2E/DX2                !
 ! D399  D(48,62,63,50)          0.4606         estimate D2E/DX2                !
 ! D400  D(48,62,63,64)       -140.7787         estimate D2E/DX2                !
 ! D401  D(61,62,63,50)        141.7488         estimate D2E/DX2                !
 ! D402  D(61,62,63,64)          0.5096         estimate D2E/DX2                !
 ! D403  D(50,63,64,56)          3.5256         estimate D2E/DX2                !
 ! D404  D(50,63,64,66)       -135.0567         estimate D2E/DX2                !
 ! D405  D(62,63,64,56)        140.3964         estimate D2E/DX2                !
 ! D406  D(62,63,64,66)          1.8142         estimate D2E/DX2                !
 ! D407  D(56,64,66,60)         -1.9953         estimate D2E/DX2                !
 ! D408  D(56,64,66,65)       -145.0366         estimate D2E/DX2                !
 ! D409  D(63,64,66,60)        140.8841         estimate D2E/DX2                !
 ! D410  D(63,64,66,65)         -2.1572         estimate D2E/DX2                !
 ! D411  D(59,65,66,60)          0.1236         estimate D2E/DX2                !
 ! D412  D(59,65,66,64)        138.599          estimate D2E/DX2                !
 ! D413  D(61,65,66,60)       -138.3006         estimate D2E/DX2                !
 ! D414  D(61,65,66,64)          0.1747         estimate D2E/DX2                !
 --------------------------------------------------------------------------------
 Trust Radius=3.00D-01 FncErr=1.00D-07 GrdErr=1.00D-06 EigMax=2.50D+02 EigMin=1.00D-04
 Number of steps in this run=    414 maximum allowed number of steps=    414.
 GradGradGradGradGradGradGradGradGradGradGradGradGradGradGradGradGradGrad

 Leave Link  103 at Sat Jul 16 16:43:00 2022, MaxMem=  1342177280 cpu:               1.4 elap:               0.0
 (Enter /home/mkliu/g16/l202.exe)
 Stoichiometry    C66Cl3(2)
 Framework group  C1[X(C66Cl3)]
 Deg. of freedom   201
 Full point group                 C1      NOp   1
 Largest Abelian subgroup         C1      NOp   1
 Largest concise Abelian subgroup C1      NOp   1
                         Standard orientation:                         
 ---------------------------------------------------------------------
 Center     Atomic      Atomic             Coordinates (Angstroms)
 Number     Number       Type             X           Y           Z
 ---------------------------------------------------------------------
      1          6           0        3.428641   -1.982517    0.688394
      2          6           0        3.454154   -1.363419   -0.651224
      3          6           0        3.810234    0.098966   -0.673523
      4          6           0        3.258483   -0.718930    1.475930
      5          6           0        3.480090    0.439478    0.737214
      6          6           0        2.163063   -0.818414    2.308502
      7          6           0        2.121157   -2.673436    0.959272
      8          6           0        1.492755   -2.068305    2.052779
      9          6           0        1.303595   -3.196994   -0.060794
     10          6           0        2.455286   -1.622854   -1.537297
     11          6           0        1.486208   -2.669707   -1.388912
     12          6           0        2.695680    0.675921   -1.518901
     13          6           0        2.050280   -0.387334   -2.175268
     14          6           0        2.007730    1.840587   -1.247187
     15          6           0        2.786962    1.571981    1.054176
     16          6           0        2.385804    2.607288    0.014085
     17          6           0        1.430333    0.321452    2.697370
     18          6           0        1.849063    1.530904    2.105356
     19          6           0        0.060630    0.174250    3.138138
     20          6           0        0.126707   -2.212002    2.375047
     21          6           0       -0.589172   -1.114736    3.001917
     22          6           0        0.005930   -3.556093    0.336044
     23          6           0       -0.556784   -3.138597    1.576858
     24          6           0       -1.070900   -3.673341   -0.603448
     25          6           0        0.379707   -2.597376   -2.223447
     26          6           0       -0.889250   -3.192190   -1.883317
     27          6           0        0.836361   -0.231905   -2.822856
     28          6           0        0.086651   -1.417437   -3.003382
     29          6           0        0.767741    2.097616   -1.926664
     30          6           0        0.202538    1.062626   -2.760505
     31          6           0       -0.112404    3.072193   -1.407512
     32          6           0        1.176562    3.197092    0.662957
     33          6           0        0.954925    2.627792    1.948114
     34          6           0        0.078133    3.572532   -0.052276
     35          6           0       -0.727671    1.334225    3.154633
     36          6           0       -0.296799    2.550886    2.524354
     37          6           0       -2.154509    1.271073    3.009675
     38          6           0       -1.987686   -1.154689    2.930494
     39          6           0       -2.772712    0.046704    2.906926
     40          6           0       -1.978498   -3.087485    1.434765
[...]
     6 C(13)  Bbb    -0.0136    -1.820    -0.650    -0.607  0.7597 -0.3897 -0.5206
              Bcc     0.0296     3.971     1.417     1.325  0.5151 -0.1280  0.8475
 
              Baa    -0.0406    -5.448    -1.944    -1.817  0.2803  0.5255  0.8033
     7 C(13)  Bbb    -0.0281    -3.771    -1.346    -1.258  0.8071  0.3240 -0.4936
              Bcc     0.0687     9.219     3.290     3.075 -0.5197  0.7867 -0.3333
 
              Baa    -0.0201    -2.701    -0.964    -0.901  0.3443 -0.5447  0.7647
     8 C(13)  Bbb     0.0065     0.872     0.311     0.291  0.6500  0.7261  0.2245
              Bcc     0.0136     1.829     0.653     0.610  0.6775 -0.4197 -0.6040
 
              Baa    -0.0309    -4.151    -1.481    -1.385 -0.4654  0.8762  0.1256
     9 C(13)  Bbb     0.0139     1.862     0.665     0.621  0.5464  0.1728  0.8195
              Bcc     0.0171     2.289     0.817     0.764  0.6963  0.4500 -0.5592
 
              Baa    -0.1512   -20.292    -7.241    -6.769 -0.5419  0.4299  0.7222
    10 C(13)  Bbb     0.0631     8.463     3.020     2.823  0.1491  0.8948 -0.4207
              Bcc     0.0882    11.830     4.221     3.946  0.8271  0.1203  0.5491
 
              Baa    -0.0747   -10.019    -3.575    -3.342 -0.2371 -0.6236  0.7449
    11 C(13)  Bbb    -0.0727    -9.755    -3.481    -3.254  0.8442  0.2471  0.4756
              Bcc     0.1474    19.774     7.056     6.596 -0.4807  0.7416  0.4679
 
              Baa    -0.0901   -12.093    -4.315    -4.034 -0.5971 -0.3206  0.7353
    12 C(13)  Bbb     0.0351     4.714     1.682     1.572  0.7076  0.2211  0.6711
              Bcc     0.0550     7.379     2.633     2.461 -0.3777  0.9211  0.0948
 
              Baa    -0.1336   -17.925    -6.396    -5.979  0.2657  0.9609  0.0774
    13 C(13)  Bbb    -0.1298   -17.412    -6.213    -5.808  0.7999 -0.2646  0.5387
              Bcc     0.2633    35.337    12.609    11.787 -0.5381  0.0812  0.8389
 
              Baa    -0.0666    -8.933    -3.188    -2.980  0.7581 -0.0222  0.6517
    14 C(13)  Bbb    -0.0623    -8.363    -2.984    -2.789 -0.4569  0.6950  0.5552
              Bcc     0.1289    17.296     6.172     5.769  0.4652  0.7187 -0.5167
 
              Baa    -0.0087    -1.171    -0.418    -0.391  0.4813  0.8736  0.0716
    15 C(13)  Bbb     0.0002     0.025     0.009     0.008 -0.4779  0.1931  0.8569
              Bcc     0.0085     1.146     0.409     0.382  0.7348 -0.4467  0.5104
 
              Baa    -0.0016    -0.212    -0.076    -0.071  0.4562  0.6681 -0.5878
    16 C(13)  Bbb     0.0002     0.029     0.010     0.010  0.5706  0.2873  0.7694
              Bcc     0.0014     0.183     0.065     0.061 -0.6829  0.6864  0.2501
 
              Baa    -0.0051    -0.686    -0.245    -0.229  0.2250  0.3828  0.8960
    17 C(13)  Bbb     0.0011     0.147     0.053     0.049  0.4314  0.7854 -0.4439
              Bcc     0.0040     0.539     0.192     0.180  0.8737 -0.4864 -0.0116
 
              Baa    -0.0060    -0.808    -0.288    -0.269  0.0355  0.8590 -0.5107
    18 C(13)  Bbb    -0.0047    -0.625    -0.223    -0.208  0.8069 -0.3261 -0.4925
              Bcc     0.0107     1.433     0.511     0.478  0.5896  0.3946  0.7047
 
              Baa    -0.0197    -2.643    -0.943    -0.882  0.3123  0.9500  0.0035
    19 C(13)  Bbb    -0.0189    -2.531    -0.903    -0.844  0.9389 -0.3081 -0.1535
              Bcc     0.0386     5.174     1.846     1.726  0.1447 -0.0512  0.9881
 
              Baa    -0.0132    -1.776    -0.634    -0.592  0.3461  0.7822  0.5181
    20 C(13)  Bbb    -0.0116    -1.553    -0.554    -0.518  0.9382 -0.2861 -0.1948
              Bcc     0.0248     3.329     1.188     1.110  0.0041 -0.5535  0.8328
 
              Baa    -0.0133    -1.783    -0.636    -0.595  0.1636 -0.2828  0.9451
    21 C(13)  Bbb     0.0062     0.833     0.297     0.278 -0.0204  0.9568  0.2899
              Bcc     0.0071     0.950     0.339     0.317  0.9863  0.0667 -0.1508
 
              Baa    -0.0122    -1.643    -0.586    -0.548  0.0972  0.2006  0.9748
    22 C(13)  Bbb    -0.0100    -1.347    -0.481    -0.449  0.9919  0.0605 -0.1113
              Bcc     0.0223     2.990     1.067     0.997 -0.0813  0.9778 -0.1931
 
              Baa    -0.0186    -2.496    -0.891    -0.833 -0.1337  0.7977 -0.5880
    23 C(13)  Bbb     0.0085     1.136     0.406     0.379  0.0156  0.5950  0.8036
              Bcc     0.0101     1.360     0.485     0.454  0.9909  0.0983 -0.0919
 
              Baa    -0.0255    -3.417    -1.219    -1.140  0.0026  0.9917  0.1282
    24 C(13)  Bbb     0.0126     1.690     0.603     0.564 -0.2552 -0.1233  0.9590
              Bcc     0.0129     1.727     0.616     0.576  0.9669 -0.0352  0.2528
 
              Baa    -0.0834   -11.190    -3.993    -3.733 -0.3494  0.5647  0.7477
    25 C(13)  Bbb     0.0379     5.081     1.813     1.695  0.7945  0.6016 -0.0830
              Bcc     0.0455     6.109     2.180     2.038  0.4967 -0.5650  0.6588
 
              Baa    -0.0081    -1.088    -0.388    -0.363 -0.6660 -0.2769  0.6927
    26 C(13)  Bbb    -0.0070    -0.936    -0.334    -0.312  0.7451 -0.2932  0.5991
              Bcc     0.0151     2.024     0.722     0.675  0.0372  0.9151  0.4016
 
              Baa    -0.0850   -11.410    -4.072    -3.806 -0.3488 -0.0401  0.9363
    27 C(13)  Bbb     0.0382     5.129     1.830     1.711 -0.2347  0.9710 -0.0458
              Bcc     0.0468     6.282     2.242     2.095  0.9073  0.2357  0.3481
 
              Baa    -0.1232   -16.526    -5.897    -5.512  0.2763  0.9474 -0.1617
    28 C(13)  Bbb    -0.1177   -15.792    -5.635    -5.268  0.9111 -0.2046  0.3577
              Bcc     0.2408    32.318    11.532    10.780 -0.3058  0.2461  0.9197
 
              Baa    -0.0624    -8.369    -2.986    -2.791 -0.3963 -0.5750  0.7157
    29 C(13)  Bbb     0.0284     3.815     1.361     1.272  0.5275  0.4954  0.6901
              Bcc     0.0339     4.554     1.625     1.519  0.7514 -0.6511 -0.1070
 
              Baa    -0.0194    -2.607    -0.930    -0.870  0.6646  0.5647  0.4893
    30 C(13)  Bbb    -0.0172    -2.308    -0.824    -0.770 -0.6765  0.7328  0.0733
              Bcc     0.0366     4.915     1.754     1.640 -0.3172 -0.3797  0.8690
 
              Baa    -0.0714    -9.575    -3.417    -3.194 -0.5183  0.6414  0.5656
    31 C(13)  Bbb    -0.0691    -9.275    -3.310    -3.094  0.8075  0.1492  0.5708
              Bcc     0.1405    18.851     6.726     6.288  0.2817  0.7526 -0.5952
 
              Baa    -0.0212    -2.838    -1.013    -0.947  0.6769 -0.4316  0.5963
    32 C(13)  Bbb    -0.0186    -2.490    -0.889    -0.831 -0.6069  0.1312  0.7839
              Bcc     0.0397     5.329     1.901     1.777  0.4166  0.8924  0.1731
 
              Baa    -0.0164    -2.196    -0.784    -0.733  0.4691  0.6783  0.5656
    33 C(13)  Bbb     0.0069     0.927     0.331     0.309 -0.5053  0.7314 -0.4579
              Bcc     0.0095     1.270     0.453     0.423  0.7242  0.0710 -0.6859
 
              Baa    -0.0261    -3.496    -1.247    -1.166  0.2297  0.9365 -0.2650
    34 C(13)  Bbb     0.0109     1.465     0.523     0.489  0.9680 -0.2480 -0.0377
              Bcc     0.0151     2.031     0.725     0.678  0.1010  0.2479  0.9635
 
              Baa    -0.0129    -1.733    -0.618    -0.578  0.1513  0.2734  0.9499
    35 C(13)  Bbb     0.0057     0.764     0.272     0.255  0.8325  0.4829 -0.2715
              Bcc     0.0072     0.970     0.346     0.323 -0.5329  0.8319 -0.1546
 
              Baa    -0.0182    -2.440    -0.871    -0.814  0.9494  0.1828 -0.2553
    36 C(13)  Bbb    -0.0176    -2.356    -0.841    -0.786 -0.3022  0.7528 -0.5848
              Bcc     0.0357     4.797     1.712     1.600  0.0853  0.6324  0.7700
 
              Baa    -0.0062    -0.829    -0.296    -0.277  0.0656  0.9578 -0.2797
    37 C(13)  Bbb    -0.0057    -0.770    -0.275    -0.257  0.9481  0.0276  0.3169
              Bcc     0.0119     1.599     0.571     0.533 -0.3112  0.2860  0.9063
 
              Baa    -0.0073    -0.982    -0.350    -0.327  0.3488  0.8629  0.3657
    38 C(13)  Bbb    -0.0069    -0.926    -0.330    -0.309  0.9130 -0.4010  0.0755
              Bcc     0.0142     1.908     0.681     0.636 -0.2118 -0.3075  0.9277
 
              Baa    -0.0108    -1.452    -0.518    -0.484 -0.4301 -0.0686  0.9002
    39 C(13)  Bbb     0.0053     0.707     0.252     0.236 -0.1214  0.9924  0.0176
              Bcc     0.0056     0.745     0.266     0.249  0.8946  0.1017  0.4352
 
              Baa    -0.0071    -0.954    -0.341    -0.318 -0.2307  0.5945  0.7703
    40 C(13)  Bbb    -0.0066    -0.889    -0.317    -0.296  0.9298 -0.0986  0.3546
              Bcc     0.0137     1.843     0.658     0.615  0.2868  0.7980 -0.5300
 
              Baa    -0.0059    -0.788    -0.281    -0.263  0.3760  0.9115 -0.1666
    41 C(13)  Bbb     0.0026     0.354     0.126     0.118  0.8817 -0.4072 -0.2382
              Bcc     0.0032     0.435     0.155     0.145  0.2850  0.0573  0.9568
 
              Baa    -0.0113    -1.515    -0.541    -0.505 -0.3850 -0.5526  0.7392
    42 C(13)  Bbb     0.0055     0.737     0.263     0.246  0.8556  0.0866  0.5103
              Bcc     0.0058     0.778     0.278     0.260 -0.3460  0.8289  0.4395
 
              Baa    -0.0035    -0.470    -0.168    -0.157  0.7238  0.6692  0.1681
    43 C(13)  Bbb     0.0016     0.212     0.076     0.071 -0.0891 -0.1509  0.9845
              Bcc     0.0019     0.258     0.092     0.086 -0.6842  0.7276  0.0496
 
              Baa    -0.0116    -1.559    -0.556    -0.520 -0.2434 -0.6845  0.6872
    44 C(13)  Bbb    -0.0099    -1.330    -0.474    -0.444  0.8951 -0.4314 -0.1126
              Bcc     0.0215     2.889     1.031     0.964  0.3735  0.5877  0.7177
 
              Baa    -0.0681    -9.135    -3.260    -3.047  0.0511  0.2601  0.9642
    45 C(13)  Bbb     0.0282     3.780     1.349     1.261  0.3570  0.8969 -0.2609
              Bcc     0.0399     5.355     1.911     1.786  0.9327 -0.3576  0.0470
 
              Baa    -0.0219    -2.932    -1.046    -0.978  0.6088  0.5367  0.5842
    46 C(13)  Bbb     0.0103     1.377     0.491     0.459 -0.2936 -0.5317  0.7944
              Bcc     0.0116     1.555     0.555     0.519  0.7370 -0.6552 -0.1662
 
              Baa    -0.0646    -8.665    -3.092    -2.890 -0.0493 -0.3191  0.9464
    47 C(13)  Bbb     0.0311     4.180     1.491     1.394  0.9842 -0.1766 -0.0083
              Bcc     0.0334     4.485     1.600     1.496  0.1698  0.9311  0.3228
 
              Baa    -0.0696    -9.346    -3.335    -3.118  0.2033  0.9791 -0.0079
    48 C(13)  Bbb    -0.0652    -8.749    -3.122    -2.919  0.9565 -0.2003 -0.2122
              Bcc     0.1349    18.096     6.457     6.036  0.2093 -0.0356  0.9772
 
              Baa    -0.0402    -5.393    -1.924    -1.799 -0.0536  0.8201 -0.5697
    49 C(13)  Bbb     0.0165     2.208     0.788     0.736 -0.3341  0.5229  0.7842
              Bcc     0.0237     3.185     1.137     1.062  0.9410  0.2323  0.2460
 
              Baa    -0.0363    -4.871    -1.738    -1.625 -0.4113  0.6649  0.6234
    50 C(13)  Bbb    -0.0332    -4.459    -1.591    -1.487  0.8901  0.4403  0.1176
              Bcc     0.0695     9.330     3.329     3.112  0.1963 -0.6033  0.7730
 
              Baa    -0.0096    -1.286    -0.459    -0.429  0.9405  0.2204 -0.2586
    51 C(13)  Bbb    -0.0093    -1.247    -0.445    -0.416  0.3013 -0.1891  0.9346
              Bcc     0.0189     2.533     0.904     0.845 -0.1571  0.9569  0.2442
 
              Baa    -0.0089    -1.201    -0.428    -0.400 -0.0429  0.8707  0.4900
    52 C(13)  Bbb     0.0039     0.518     0.185     0.173  0.8359  0.2999 -0.4596
              Bcc     0.0051     0.682     0.243     0.228  0.5471 -0.3899  0.7407
 
              Baa    -0.0077    -1.039    -0.371    -0.346 -0.4277  0.5899  0.6849
    53 C(13)  Bbb     0.0036     0.480     0.171     0.160  0.5720  0.7633 -0.3004
              Bcc     0.0042     0.558     0.199     0.186  0.7000 -0.2633  0.6639
 
              Baa    -0.0068    -0.914    -0.326    -0.305 -0.4454 -0.1126  0.8882
    54 C(13)  Bbb    -0.0058    -0.774    -0.276    -0.258  0.7122  0.5566  0.4277
              Bcc     0.0126     1.688     0.602     0.563 -0.5426  0.8231 -0.1677
 
              Baa    -0.0023    -0.308    -0.110    -0.103  0.0549 -0.6121  0.7888
    55 C(13)  Bbb    -0.0021    -0.285    -0.102    -0.095  0.7106  0.5790  0.3998
              Bcc     0.0044     0.592     0.211     0.198  0.7014 -0.5386 -0.4668
 
              Baa    -0.0104    -1.398    -0.499    -0.466 -0.6848  0.7119 -0.1555
    56 C(13)  Bbb     0.0049     0.655     0.234     0.218 -0.4241 -0.2159  0.8795
              Bcc     0.0055     0.744     0.265     0.248  0.5926  0.6682  0.4497
 
              Baa    -0.0071    -0.954    -0.341    -0.318 -0.1378  0.9881 -0.0681
    57 C(13)  Bbb    -0.0069    -0.922    -0.329    -0.308  0.6127  0.1390  0.7780
              Bcc     0.0140     1.877     0.670     0.626  0.7782  0.0655 -0.6245
 
              Baa    -0.0014    -0.187    -0.067    -0.062  0.7541  0.5504 -0.3583
    58 C(13)  Bbb     0.0004     0.057     0.020     0.019  0.6148 -0.4000  0.6797
              Bcc     0.0010     0.130     0.046     0.043 -0.2308  0.7329  0.6400
 
              Baa    -0.0013    -0.175    -0.062    -0.058  0.1931  0.9646  0.1795
    59 C(13)  Bbb     0.0001     0.013     0.005     0.004 -0.0124 -0.1806  0.9835
              Bcc     0.0012     0.161     0.058     0.054  0.9811 -0.1922 -0.0229
 
              Baa    -0.0072    -0.962    -0.343    -0.321  0.8842 -0.2384 -0.4018
    60 C(13)  Bbb     0.0029     0.395     0.141     0.132  0.3325  0.9252  0.1827
              Bcc     0.0042     0.566     0.202     0.189  0.3282 -0.2951  0.8973
 
              Baa    -0.0229    -3.073    -1.097    -1.025 -0.1346  0.9600 -0.2457
    61 C(13)  Bbb    -0.0208    -2.789    -0.995    -0.930 -0.5992  0.1186  0.7918
              Bcc     0.0437     5.862     2.092     1.955  0.7892  0.2538  0.5592
 
              Baa    -0.0184    -2.472    -0.882    -0.824  0.4986  0.0021  0.8669
    62 C(13)  Bbb     0.0065     0.867     0.309     0.289 -0.0310  0.9994  0.0154
              Bcc     0.0120     1.605     0.573     0.535  0.8663  0.0345 -0.4983
 
              Baa    -0.0058    -0.777    -0.277    -0.259  0.1909  0.9752  0.1116
    63 C(13)  Bbb    -0.0045    -0.603    -0.215    -0.201 -0.4626 -0.0109  0.8865
              Bcc     0.0103     1.380     0.492     0.460  0.8658 -0.2208  0.4491
 
              Baa    -0.0096    -1.284    -0.458    -0.428  0.2545  0.7495  0.6112
    64 C(13)  Bbb    -0.0080    -1.076    -0.384    -0.359 -0.5556 -0.4040  0.7267
              Bcc     0.0176     2.360     0.842     0.787  0.7916 -0.5245  0.3136
 
              Baa    -0.0030    -0.397    -0.142    -0.132  0.7924  0.0258  0.6095
    65 C(13)  Bbb     0.0005     0.061     0.022     0.020  0.0596  0.9911 -0.1194
              Bcc     0.0025     0.336     0.120     0.112 -0.6071  0.1309  0.7837
 
              Baa    -0.0097    -1.305    -0.466    -0.435  0.1034  0.6711  0.7341
    66 C(13)  Bbb    -0.0093    -1.249    -0.446    -0.417  0.0794  0.7301 -0.6787
              Bcc     0.0190     2.554     0.911     0.852  0.9915 -0.1284 -0.0222
 
              Baa    -0.0902    -4.723    -1.685    -1.576  0.7172 -0.6462  0.2607
    67 Cl(35) Bbb    -0.0633    -3.313    -1.182    -1.105  0.0031  0.3772  0.9261
              Bcc     0.1536     8.037     2.868     2.681  0.6968  0.6634 -0.2725
 
              Baa    -0.0525    -2.748    -0.981    -0.917  0.1999 -0.5301  0.8240
    68 Cl(35) Bbb    -0.0439    -2.298    -0.820    -0.767  0.6338 -0.5714 -0.5213
              Bcc     0.0964     5.046     1.801     1.683  0.7472  0.6265  0.2218
 
              Baa    -0.1888    -9.882    -3.526    -3.296 -0.1288  0.6181  0.7755
    69 Cl(35) Bbb    -0.1718    -8.993    -3.209    -3.000  0.7121  0.6019 -0.3614
              Bcc     0.3606    18.875     6.735     6.296  0.6901 -0.5057  0.5177
 

 ---------------------------------------------------------------------------------

 No NMR shielding tensors so no spin-rotation constants.
 Leave Link  601 at Sat Jul 16 18:38:14 2022, MaxMem=  1342177280 cpu:             101.0 elap:               2.3
 (Enter /home/mkliu/g16/l9999.exe)
 1\1\GINC-NODE01\FOpt\UB3LYP\6-311G(d,p)\C66Cl3(2)\MKLIU\16-Jul-2022\0\
 \#P opt b3lyp/6-311G(d, p) empiricaldispersion=GD3\\force\\0,2\C,-1.32
 05446376,1.876426821,-3.8814990813\C,0.1469401511,2.0967287611,-3.7967
 74279\C,0.9340856868,0.8869768522,-4.2712425294\C,-1.3724321554,0.3655
 192696,-3.9863522324\C,-0.1148130494,-0.1909807337,-4.22746017\C,-2.23
 15048599,-0.1655232616,-3.0185955635\C,-2.0146065705,2.1128570599,-2.5
 604972186\C,-2.6962490028,0.9408134014,-2.1753033424\C,-1.487527699,2.
 9746347939,-1.5681524851\C,0.7217605075,2.6302133769,-2.6601452041\C,-
 0.041527565,3.2680062207,-1.6112508563\C,1.9190817353,0.6864134442,-3.
 1236160636\C,1.9075365565,1.8662479806,-2.3163599251\C,2.2630953356,-0
 .5295641298,-2.5899678913\C,0.1817789168,-1.417762859,-3.6762698877\C,
 1.59084162,-1.7798478651,-3.1964260227\C,-1.9770993794,-1.431237931,-2
 .441982295\C,-0.7833131851,-2.0881027822,-2.8945901649\C,-2.4878563406
 ,-1.7331563985,-1.1044420096\C,-3.1078917716,0.7070357359,-0.841183258
 9\C,-3.0993067505,-0.6581553391,-0.3079902162\C,-2.1014636826,2.901021
 4614,-0.299907499\C,-2.9671878436,1.8070652752,0.0422575814\C,-1.41828
 20666,3.3075868987,0.9109178817\C,0.6348159432,3.4755083424,-0.4076647
 66\C,-0.0620339463,3.5994223682,0.8592242996\C,2.455288744,1.880653435
 3,-1.0233005843\C,1.9191985598,2.849675134,-0.1289502687\C,2.899911558
 2,-0.5781222589,-1.2796909452\C,3.0515821674,0.6570289675,-0.509005537
 6\C,2.9288242691,-1.8086628494,-0.580297958\C,1.2944814649,-2.81116199
 18,-2.1318421854\C,-0.1132074802,-3.0463946159,-2.0555680406\C,2.04394
 84741,-2.9116449511,-0.9915079408\C,-1.9326430677,-2.8381779881,-0.420
 9708491\C,-0.7086520906,-3.4771942739,-0.8866228141\C,-1.9206639327,-2
 .9170250229,1.0105233869\C,-3.1438109904,-0.8044681924,1.0952756329\C,
 -2.5257029121,-1.9211534984,1.7590419355\C,-2.9077571814,1.6148066137,
 1.46865536\C,-1.9456609026,2.5479503394,2.021038733\C,-3.0174449807,0.
 3405993572,1.9851159302\C,-1.1153940937,2.1470101427,3.0638116231\C,0.
 8101015056,3.1407724486,1.9142609676\C,2.0358327953,2.6798722713,1.284
 2643419\C,0.3003431709,2.4545553911,3.0113892187\C,3.2471584494,0.5729
 504356,0.8910318748\C,2.7107564186,1.5784330159,1.7897208038\C,3.01605
 96576,-1.8526585439,0.8427489139\C,3.1976980728,-0.683350524,1.5741154
 155\C,1.4766621697,-3.4904997969,0.2033018359\C,0.1082613049,-3.791798
 8845,0.2531709105\C,-0.6504974602,-3.4829589827,1.4411882503\C,2.11242
 5064,-2.8816171881,1.3450926417\C,-0.0181767041,-2.9697416832,2.569252
 9292\C,1.4007914571,-2.6618461253,2.5193409809\C,-1.9158428515,-1.4580
 736582,2.9900291826\C,-2.2199828351,-0.0530209324,3.1299446568\C,-1.26
 35754959,0.8251414313,3.6419759294\C,-0.6670014645,-1.9497049578,3.369
 1548436\C,1.0252922179,1.3225897167,3.5622739689\C,2.2253557648,0.9125
 347368,2.9821060359\C,2.5257851917,-0.4960171526,2.8470364592\C,1.6204
 219151,-1.4528645788,3.2955374103\C,0.0563830193,0.3277850047,3.981077
 4416\C,0.3477598399,-1.030251311,3.8474733272\Cl,1.785909106,1.0850963
 79,-5.8772740648\Cl,2.6430929274,-2.4875950242,-4.5387777064\Cl,-2.150
 4303353,2.7716811521,-5.2713715726\\Version=ES64L-G16RevA.03\State=2-A
 \HF=-3896.0580867\S2=0.809891\S2-1=0.\S2A=0.752895\RMSD=7.516e-09\RMSF
 =3.674e-05\Dipole=-0.1795126,-0.1557782,1.6499214\Quadrupole=3.9841217
 ,4.3727839,-8.3569056,3.7588718,1.9653664,2.7574693\PG=C01 [X(C66Cl3)]
 \\@


 BULLDOZER: SOMEONE WHO SLEEPS THROUGH SPEECHES.
 Job cpu time:       3 days 19 hours 58 minutes 19.0 seconds.
 Elapsed time:       0 days  1 hours 55 minutes  8.4 seconds.
 File lengths (MBytes):  RWF=   1742 Int=      0 D2E=      0 Chk=    157 Scr=      1
 Normal termination of Gaussian 16 at Sat Jul 16 18:38:15 2022.
