108
 energy: -315.976010857102 gnorm: 4.520900399659 xtb: 6.4.1 (a3dbbd7)
C        -1.23626340000000    0.00000000000000    3.32997640000000
C        -0.38202640000000   -1.17575640000000    3.32997640000000
C         1.00015810000000   -0.72665740000000    3.32997640000000
C         1.00015810000000    0.72665740000000    3.32997640000000
C        -0.38202640000000    1.17575640000000    3.32997640000000
C         2.34433560000000   -2.60145750000000    0.59464210000000
C         3.19857260000000   -1.42570110000000    0.59464210000000
C         2.96246730000000   -0.69904370000000    1.83090550000000
C         1.96230920000000   -1.42570110000000    2.59495830000000
C         1.58028280000000   -2.60145750000000    1.83090550000000
C         3.19857260000000    1.42570110000000    0.59464210000000
C         2.34433560000000    2.60145750000000    0.59464210000000
C         1.58028280000000    2.60145750000000    1.83090550000000
C         1.96230920000000    1.42570110000000    2.59495830000000
C         2.96246730000000    0.69904370000000    1.83090550000000
C        -0.36750900000000    3.48258920000000    0.59464210000000
C        -1.74969350000000    3.03349030000000    0.59464210000000
C        -1.98579880000000    2.30683290000000    1.83090550000000
C        -0.74953540000000    2.30683290000000    2.59495830000000
C         0.25062270000000    3.03349030000000    1.83090550000000
C        -3.42570570000000    0.72665740000000    0.59464210000000
C        -3.42570570000000   -0.72665740000000    0.59464210000000
C        -2.80757400000000   -1.17575640000000    1.83090550000000
C        -2.42554760000000    0.00000000000000    2.59495830000000
C        -2.80757400000000    1.17575640000000    1.83090550000000
C        -1.74969350000000   -3.03349030000000    0.59464210000000
C        -0.36750900000000   -3.48258920000000    0.59464210000000
C         0.25062270000000   -3.03349030000000    1.83090550000000
C        -0.74953540000000   -2.30683290000000    2.59495830000000
C        -1.98579880000000   -2.30683290000000    1.83090550000000
C        -0.25062270000000   -3.03349030000000   -1.83090550000000
C         0.74953540000000   -2.30683290000000   -2.59495830000000
C         1.98579880000000   -2.30683290000000   -1.83090550000000
C         1.74969350000000   -3.03349030000000   -0.59464210000000
C         0.36750900000000   -3.48258920000000   -0.59464210000000
C         2.80757400000000   -1.17575640000000   -1.83090550000000
C         2.42554760000000    0.00000000000000   -2.59495830000000
C         2.80757400000000    1.17575640000000   -1.83090550000000
C         3.42570570000000    0.72665740000000   -0.59464210000000
C         3.42570570000000   -0.72665740000000   -0.59464210000000
C         1.98579880000000    2.30683290000000   -1.83090550000000
C         0.74953540000000    2.30683290000000   -2.59495830000000
C        -0.25062270000000    3.03349030000000   -1.83090550000000
C         0.36750900000000    3.48258920000000   -0.59464210000000
C         1.74969350000000    3.03349030000000   -0.59464210000000
C        -1.58028280000000    2.60145750000000   -1.83090550000000
C        -1.96230920000000    1.42570110000000   -2.59495830000000
C        -2.96246730000000    0.69904370000000   -1.83090550000000
C        -3.19857260000000    1.42570110000000   -0.59464210000000
C        -2.34433560000000    2.60145750000000   -0.59464210000000
C        -2.96246730000000   -0.69904370000000   -1.83090550000000
C        -1.96230920000000   -1.42570110000000   -2.59495830000000
C        -1.58028280000000   -2.60145750000000   -1.83090550000000
C        -2.34433560000000   -2.60145750000000   -0.59464210000000
C        -3.19857260000000   -1.42570110000000   -0.59464210000000
C        -1.00015810000000   -0.72665740000000   -3.32997640000000
C        -1.00015810000000    0.72665740000000   -3.32997640000000
C         0.38202640000000    1.17575640000000   -3.32997640000000
C         1.23626340000000    0.00000000000000   -3.32997640000000
C         0.38202640000000   -1.17575640000000   -3.32997640000000
C        -1.76086815247998    0.00000000000000    4.78849957557021
F        -0.76911826531252    0.00000000000000    5.67468926254662
F        -2.50968386795825   -1.06794314680471    5.04863888333743
F        -2.50968386795825    1.06794314680471    5.04863888333743
C        -0.54413818249354   -1.67468516033722    4.78849957845317
F        -0.23767107904745   -0.73147481112462    5.67468925997942
F        -1.79120914301982   -2.05683909935453    5.04863874564184
F         0.24013968171955   -2.71686350152345    5.04863903502921
C         1.42457227037960   -1.03501233722714    4.78849957248258
F         0.62223011468481   -0.45207589682711    5.67468926529602
F         1.40265511061956   -2.33913928186680    5.04863905501621
F         2.65809836182651   -0.61117154425495    5.04863869666890
C         0.53602450593361   -4.99908416128281   -0.86730591619822
F         1.22448605650957   -5.23152837615597   -1.98125850960180
F        -0.63540201352706   -5.61404743764837   -1.00324736766175
F         1.18149064144157   -5.61404773804446    0.11965571789346
C         4.03961820246674   -1.67468514775899   -2.62817407948106
F         4.96930660042402   -0.73147479244130   -2.75037763231443
F         3.71458666614023   -2.05683907990834   -3.85992603200073
F         4.62303373288713   -2.71686348978893   -2.04303253910982
C         2.82790274436383   -2.05459160758554    3.71645040671519
F         3.82797483682855   -2.78118494419178    3.22571836876305
F         3.37293748548841   -1.13053297859378    4.50255013394648
F         2.11749631416700   -2.85850222732984    4.50254863174647
C         1.08016271022039    3.32439912180418   -3.71645041587937
F         1.46215754230407    4.50005299330749   -3.22571838851551
F         2.06425285383526    2.89718320022386   -4.50255037491024
F         0.03290491502765    3.55721032900471   -4.50254840735999
C         4.58877084110522    2.05459160147071    0.86730597290559
F         4.59709252483521    2.78118520641283    1.98125951001435
F         4.97417519512416    2.85850196315549   -0.11965482382298
F         5.53562669678859    1.13053295630600    1.00324569798425
C        -4.25247495652193    1.01957928511255   -2.62817407757680
F        -4.45020405360863    2.32910962270744   -2.75037677428969
F        -4.21414295278388    0.51936236815955   -3.85992636334025
F        -5.33704498641440    0.51936149478958   -2.04303305824604
C        -2.50473491433418    4.35941144902977    0.86730593917895
F        -2.08438487052912    4.95213043104453    1.98125838386969
F        -2.34400857369757    5.23632280881804   -0.11965581818547
F        -3.81390519137296    4.16837996597314    1.00324768478856
C        -4.25247495652193   -1.01957928511255   -2.62817407757680
F        -4.45020405360858   -2.32910962270745   -2.75037677428972
F        -4.21414295278388   -0.51936236815950   -3.85992636334023
F        -5.33704498641440   -0.51936149478961   -2.04303305824600
C         1.76086815247998    0.00000000000000   -4.78849957557021
F         0.76911826531252    0.00000000000000   -5.67468926254662
F         2.50968386795825    1.06794314680471   -5.04863888333743
F         2.50968386795825   -1.06794314680471   -5.04863888333743
108
 energy: -318.637228528674 gnorm: 3.669357772436 xtb: 6.4.1 (a3dbbd7)
C        -1.23787495361715    0.00371433910659    3.31920549050632
C        -0.38405273056002   -1.17887486985235    3.31124115317923
C         0.99435792532827   -0.71578381502915    3.30662226956491
C         1.00164244671440    0.72834704532844    3.33441243111462
C        -0.38191593086111    1.18001585906506    3.33229848820303
C         2.34559614970642   -2.59944287383013    0.59363165577905
C         3.19742078689038   -1.42750105014128    0.59519794370582
C         2.96398951194594   -0.69843244014213    1.82687134569498
C         1.96111647832487   -1.42472101786180    2.57470667161162
C         1.58123538670866   -2.60421828671573    1.82733884189049
C         3.20760012634759    1.43122053107405    0.59766908147900
C         2.33761734080421    2.60353887924768    0.59722056871903
C         1.58155195364588    2.60090256981919    1.82870852715702
C         1.96548977521332    1.42600529501951    2.59059155098705
C         2.95704311253876    0.69828410024390    1.83491015085009
C        -0.36053876113402    3.47922491469116    0.59650945489117
C        -1.75386161859183    3.04320614060598    0.59769187228115
C        -1.98390306748041    2.30056682763402    1.83437248491906
C        -0.75039825652525    2.30771489341979    2.59081230047831
C         0.24907515375441    3.03355434487422    1.82923185154048
C        -3.42581245206355    0.72406787094761    0.59760118974072
C        -3.42520319687208   -0.72399220344510    0.59755771087538
C        -2.80691361159380   -1.17508618673041    1.82894913928882
C        -2.43177739252113   -0.00000174128327    2.58939982598010
C        -2.80592715982918    1.17451053652641    1.82941206529648
C        -1.74772931314368   -3.03242841220718    0.59581910511761
C        -0.37251401221575   -3.48441502065414    0.60451914989583
C         0.24699588266454   -3.03271200494657    1.82701540119434
C        -0.75223698891830   -2.31160441221617    2.58892624250221
C        -1.98617811616931   -2.30732681880201    1.82888473244229
C        -0.25299589722335   -3.02786985026861   -1.83420737136124
C         0.74855563666680   -2.30708759956119   -2.59238166011781
C         1.97719654025317   -2.31231714032675   -1.83008298172914
C         1.75303649420367   -3.02651641521179   -0.59778909884624
C         0.36958411827228   -3.48715818582758   -0.59740557425663
C         2.81666959476230   -1.17681557535938   -1.83219873135419
C         2.42887587956275    0.00661127539497   -2.58715145461742
C         2.80414010479232    1.17160900656541   -1.83078708168875
C         3.42256141959470    0.71743628195221   -0.60186356968497
C         3.42431524372401   -0.72022765469464   -0.58910983418855
C         1.98869588259109    2.31007917562322   -1.82416101864685
C         0.75175268379968    2.31252344232526   -2.60019549288080
C        -0.25395440571377    3.03393852714899   -1.82390111467813
C         0.36733206634687    3.48148019330200   -0.59491982751883
C         1.74858872178523    3.03165609811869   -0.59586049328580
C        -1.57984134999197    2.60096428528812   -1.82846688062364
C        -1.96151206579579    1.42981061896675   -2.59700028847788
C        -2.95023954444369    0.70602976586955   -1.82427215260335
C        -3.19583780220659    1.42941458759997   -0.59218981947223
C        -2.34532884089937    2.59435152250960   -0.60321833227434
C        -2.95014195829559   -0.70638683367499   -1.82365686162896
C        -1.96021522625225   -1.42961591365146   -2.59624393441243
C        -1.57878018635833   -2.60096107361413   -1.82970498464643
C        -2.34365410971615   -2.60101634762582   -0.59463242637478
C        -3.19761537577400   -1.43007545443450   -0.59203674835873
C        -0.99522257014267   -0.72679631723689   -3.33040722043028
C        -0.99408311582735    0.72599637242714   -3.33136019515485
C         0.37210067614655    1.16968997277158   -3.33056974572865
C         1.23640576453614   -0.00050476599210   -3.33186301127471
C         0.37590988145513   -1.17863532601420   -3.33062707916172
C        -1.79718249267625    0.01287530767150    4.75799903657166
F        -0.83472583686534    0.08854527596946    5.71997216392898
F        -2.60466127785645   -0.95712919420512    5.05338541009291
F        -2.51403860344128    1.07770576033933    5.05102988530425
C        -0.55271542485456   -1.69952160389030    4.75355260585996
F        -0.26510428103281   -0.79557691512528    5.73857572363286
F        -1.72104549135549   -2.17767098217151    5.05446939813256
F         0.09963923878988   -2.79005787966967    5.06174307904009
C         1.44735850889933   -1.06904789597287    4.70165682200914
F         0.69915404195054   -0.38107978493351    5.74495817147900
F         1.49332101939891   -2.31552384637352    5.10003219266997
F         2.66089176045755   -0.55129473550680    5.09728879932773
C         0.53669975728900   -4.99948736757371   -0.86843471943163
F         1.22532171641669   -5.23345137699390   -1.98272214207211
F        -0.63678748317831   -5.61593013095396   -1.00344125498036
F         1.18227467899992   -5.61588674005164    0.12099492866427
C         4.04076466343700   -1.67443067159395   -2.62875398722059
F         4.97143056473851   -0.73111727459226   -2.75095673390476
F         3.71996410234699   -2.06200539103641   -3.85685320067393
F         4.62457935356584   -2.71833068214163   -2.04246304619222
C         2.83336270149829   -2.05305315488174    3.67928907407243
F         3.83205993839677   -2.78396045169155    3.22560224169708
F         3.44676907965720   -1.13456826322899    4.49267392975760
F         2.16069656096109   -2.92693633454115    4.49033425391935
C         1.08123064702786    3.32581503389749   -3.71678914570562
F         1.46256941075998    4.50257407265511   -3.22607748724028
F         2.06393060161100    2.90489169051423   -4.50225419319179
F         0.03137019702850    3.55816848230147   -4.50439422026039
C         4.58978593973928    2.05584634363994    0.86606698252645
F         4.59865168539868    2.78265723777625    1.98376449562118
F         4.97561355449387    2.85974693092394   -0.12021559381306
F         5.53785650542851    1.12967348963115    1.00423966684029
C        -4.22618779475143    1.03511793485960   -2.61343182087090
F        -4.45321209261311    2.33202160148779   -2.75201079510578
F        -4.21380201345529    0.56056119442245   -3.90471747886653
F        -5.37792646423778    0.56224072727914   -2.02274009386250
C        -2.50435982030104    4.36103673870099    0.86737714822043
F        -2.08473593577553    4.95428189529909    1.98323640182832
F        -2.34463413382211    5.23846023019569   -0.12071333435723
F        -3.81655890995360    4.16903992510353    1.00356243989401
C        -4.22593949520081   -1.03352905371242   -2.61221919921880
F        -4.45359796481335   -2.33240414732835   -2.75235470315720
F        -4.21348341121201   -0.56108927432903   -3.90427786514430
F        -5.37753300335794   -0.56245235918624   -2.02240202959348
C         1.76122090781889   -0.00021123455445   -4.78942737104442
F         0.76751611043749    0.00007076631520   -5.67758088971112
F         2.51266073401635    1.06156327484756   -5.05211208602991
F         2.50585396028958   -1.06582842040174   -5.05496636642300
108
 energy: -321.328747435360 gnorm: 2.577450129765 xtb: 6.4.1 (a3dbbd7)
C        -1.24127610637266    0.00908413014436    3.32316716401548
C        -0.38712571610316   -1.18341359975074    3.30809522954041
C         0.99442063312233   -0.70999171729518    3.31038680338594
C         0.99950676440466    0.73412376788549    3.33306993507963
C        -0.37738040960694    1.18474268699348    3.32832471981863
C         2.34660580403166   -2.59632533565334    0.59397067962729
C         3.19580284505955   -1.42899857841027    0.59639669208671
C         2.96609832891613   -0.69735380815507    1.82087969128241
C         1.96744754641051   -1.42963648958223    2.56305605024069
C         1.58178308883951   -2.60784046699334    1.82209731002830
C         3.21885006790774    1.43789644245467    0.60257517836312
C         2.32960394484823    2.60585752025121    0.59983230307165
C         1.58351161459445    2.60018279906201    1.82479634968480
C         1.96779367236121    1.42494802186258    2.58590851944796
C         2.95004933824507    0.69712293607285    1.83993158632469
C        -0.35252582462545    3.47616770626231    0.59828959656447
C        -1.75892246949856    3.05480928917658    0.60256630634021
C        -1.98153573849386    2.29498442686071    1.83946713179972
C        -0.75166418919452    2.30674123037509    2.58723250533915
C         0.24710309466255    3.03435611619611    1.82644036503915
C        -3.42578283868142    0.72130849150629    0.59988180219962
C        -3.42413090504021   -0.72131822565392    0.59976383614828
C        -2.80612073800781   -1.17343460872050    1.82743631197077
C        -2.43962877357843    0.00034210293429    2.58100663455300
C        -2.80402569831421    1.17211370556950    1.82793764447799
C        -1.74498228686570   -3.03146621672343    0.59808793902655
C        -0.37850772044085   -3.47725127841542    0.61443114057859
C         0.24282814830103   -3.03089470872364    1.82221734096611
C        -0.75488617133453   -2.31807578969693    2.58281710279628
C        -1.98556796750547   -2.30690379002435    1.82672537217816
C        -0.25550523314343   -3.02183751630981   -1.83829347207305
C         0.74752624094859   -2.30703077398213   -2.58880742611059
C         1.96687205946581   -2.31895778962465   -1.82388748661766
C         1.75643923532003   -3.01832001241982   -0.60114533075619
C         0.37219615425061   -3.50081957754928   -0.60210228426688
C         2.82790341081461   -1.17838115356753   -1.83846606381180
C         2.43165906005061    0.01437700188939   -2.57880799675012
C         2.80110551819694    1.16636843122171   -1.83007159515218
C         3.41954911944454    0.70666718758477   -0.60894320651055
C         3.42188128514001   -0.71223245481020   -0.58406235323363
C         1.99152196391681    2.30979387571240   -1.81720331866534
C         0.75446294925944    2.32271247983583   -2.60627069347593
C        -0.25835652543079    3.03436603201461   -1.81686470710959
C         0.36713426218312    3.47944468913371   -0.59566993748794
C         1.74761000771680    3.02943834780562   -0.59845225681967
C        -1.57880705436523    2.59882640727381   -1.82590392799695
C        -1.95950936413420    1.43409127182757   -2.59867459714037
C        -2.94982097165237    0.71609762117270   -1.82600408604506
C        -3.19123617318628    1.43482547810513   -0.58730440401299
C        -2.34715334568875    2.58618903146811   -0.61178142510542
C        -2.95143093001693   -0.71648830798727   -1.82503944478140
C        -1.95568100280756   -1.43387842001493   -2.59751127987767
C        -1.57703130383350   -2.59913691837964   -1.82871405706718
C        -2.34448661926570   -2.59914795019791   -0.59505041320705
C        -3.19449917370472   -1.43585035552854   -0.58727968789394
C        -0.99033183563302   -0.72755498727973   -3.32904950585948
C        -0.98676262218613    0.72599018180184   -3.32841427658523
C         0.36000836186138    1.16273246695240   -3.32822031995499
C         1.23741209642442   -0.00085514296917   -3.34620141096132
C         0.36883209699357   -1.18151993182792   -3.32629756090436
C        -1.82440572935773    0.01372300868856    4.73068979493109
F        -0.90775136817556    0.22099776193113    5.74825523673742
F        -2.65505774384170   -0.89716020375455    5.05779231411991
F        -2.51438620285237    1.08104016531673    5.05144170969963
C        -0.55460801740514   -1.71673396732523    4.72315517843513
F        -0.31233964520447   -0.94770100584591    5.77508963452160
F        -1.68433591029850   -2.24565063062800    5.05701558690791
F         0.02428639003627   -2.83092614892650    5.06247143253978
C         1.46042236067759   -1.10111385279686    4.63169921580122
F         0.80836752305776   -0.28353159583009    5.81598901204690
F         1.53362967033193   -2.25900131410723    5.15827773351763
F         2.58850168448273   -0.47345590444232    5.17926855405180
C         0.53747575960045   -5.00132363760818   -0.86972190215344
F         1.22614676022461   -5.23498802187429   -1.98410687966800
F        -0.63797478573270   -5.61737171127871   -1.00367448585231
F         1.18307583584803   -5.61734836537441    0.12219508696435
C         4.04296318196925   -1.67462151010602   -2.63020232145037
F         4.97329411875453   -0.73050637847979   -2.75143862815670
F         3.72550042310182   -2.06719032034436   -3.85315181678307
F         4.62591626925764   -2.71972509739592   -2.04179085877053
C         2.83773091899677   -2.04322914032845    3.64464399818456
F         3.83451492144439   -2.78827207816921    3.22734441300669
F         3.55664388497853   -1.18320105243008    4.43904563330467
F         2.19641024870012   -3.01134267363897    4.46468382820695
C         1.08251367646507    3.32774274478315   -3.71765082327188
F         1.46285250552031    4.50469829616243   -3.22620669509598
F         2.06300840641054    2.91303371369925   -4.50111438871999
F         0.02998269403461    3.55885782325206   -4.50569466189637
C         4.59146518056062    2.05736030399401    0.86531328859455
F         4.59976635499719    2.78393352115372    1.98578877874764
F         4.97661944243800    2.86080347102202   -0.12073022914214
F         5.53950993756967    1.12889233035807    1.00494959903752
C        -4.20142839976020    1.05478275402551   -2.60133024364462
F        -4.45672136835758    2.33666543532689   -2.75391522321899
F        -4.21475101877219    0.66319739941409   -3.93161091130000
F        -5.40622568967326    0.66787884999269   -2.01048314964579
C        -2.50445677641048    4.36293931408052    0.86775870228658
F        -2.08500743657371    4.95584298012886    1.98475508635831
F        -2.34505571607473    5.24002927137495   -0.12158902781004
F        -3.81871471509822    4.16934006971069    1.00382749121653
C        -4.20128559910762   -1.05153788085552   -2.59828394169272
F        -4.45739255241066   -2.33758512763131   -2.75465196002069
F        -4.21365850455125   -0.66375303629828   -3.93352219995924
F        -5.40515631182593   -0.66887283149375   -2.00909378586682
C         1.76262176870995   -0.00000613038315   -4.79241474694479
F         0.76593599067827    0.00016065803391   -5.68005927216551
F         2.51571811710902    1.05485237389081   -5.05546119473014
F         2.50150519899065   -1.06315018684836   -5.06128787257301
108
 energy: -322.822572385148 gnorm: 1.273275447434 xtb: 6.4.1 (a3dbbd7)
C        -1.24746569541288    0.01305933495608    3.34035724052528
C        -0.39054398900160   -1.18944292109961    3.32141234151772
C         0.99581046245147   -0.70686250141890    3.32276661848365
C         0.99198503285119    0.74600058275598    3.32574485799607
C        -0.36701056866210    1.18823958717107    3.32273586052591
C         2.34537991141580   -2.59404290374879    0.59849179061274
C         3.19508455219940   -1.42738503175119    0.59988180047816
C         2.96877461299574   -0.69156180446649    1.80979773616705
C         1.98282284728574   -1.44145076282300    2.57138302387919
C         1.57957442504373   -2.61218041041104    1.80800364847501
C         3.23201739828522    1.44559814516395    0.60702674996688
C         2.32153918083697    2.60729878880583    0.60334529835808
C         1.58632078552145    2.59901848142067    1.82177500273541
C         1.96763621637932    1.42567853700180    2.58421223741594
C         2.94261167442701    0.69259708277840    1.84287653980068
C        -0.34498664481025    3.47243889347421    0.60116778361365
C        -1.76483139256266    3.06710350799607    0.60711345020646
C        -1.97687345709421    2.28776138225377    1.84338293696172
C        -0.75280353844834    2.30878302639830    2.58332046011356
C         0.24392321229444    3.03477568459124    1.82273631280596
C        -3.42559747647276    0.71887362099629    0.59938522932566
C        -3.42299532953988   -0.71923769066334    0.60106752003782
C        -2.80565671336100   -1.16931867338954    1.82625385405697
C        -2.44864425682125    0.00116791081321    2.56653540791894
C        -2.80356978486599    1.16834467612617    1.82821625084230
C        -1.74099169499032   -3.03275877266426    0.59997301332193
C        -0.38674743249941   -3.47344725166971    0.62075340459516
C         0.23831696639947   -3.02855367532408    1.81963592108598
C        -0.75864266630858   -2.32724696170840    2.56812400287439
C        -1.98146963966120   -2.30784445297778    1.82582712916171
C        -0.25694552488920   -3.01518014074031   -1.84212293553886
C         0.74336411423552   -2.30622090145943   -2.58622938664241
C         1.95769427928625   -2.32409659946353   -1.81603032426448
C         1.75872261043208   -3.00935848946236   -0.60743180606271
C         0.37436192234624   -3.51429803775268   -0.60688798707962
C         2.84098351749470   -1.18095118611349   -1.84398224524951
C         2.43284433299505    0.02326184845794   -2.56733799249341
C         2.79823736893875    1.15956155628295   -1.83049278942012
C         3.41517464774382    0.69642950738308   -0.61449886643943
C         3.41921527844552   -0.70469566863988   -0.57804578114126
C         1.99288239171322    2.31221681958089   -1.80907804337876
C         0.75736175573423    2.33186648538023   -2.61196675221499
C        -0.25992133007542    3.03632382671988   -1.80848467760998
C         0.36537790146857    3.47662741938867   -0.59787671263175
C         1.74684323719609    3.02673158234581   -0.60166117522770
C        -1.57971716779414    2.59325830072974   -1.82641784865159
C        -1.94880638173280    1.44063583015888   -2.59811145730418
C        -2.96689900294386    0.72547003262011   -1.83626555027788
C        -3.18235041945045    1.43890856598981   -0.57821111561307
C        -2.34926856173901    2.57525226256183   -0.61770836468556
C        -2.96781356597459   -0.72660960138177   -1.83513126443865
C        -1.94289356565695   -1.43835908017456   -2.59640007388050
C        -1.57597168555936   -2.59512998253330   -1.83019202170429
C        -2.34686273223168   -2.59426057258371   -0.59477526496970
C        -3.18616142304919   -1.44328753531111   -0.57908406215424
C        -0.98818866548263   -0.73083775492091   -3.32661055109687
C        -0.98235502433590    0.72740455507883   -3.32648365531006
C         0.34864946733262    1.15705057513522   -3.32507424221114
C         1.23965462435587   -0.00179454886622   -3.36060562401483
C         0.36276784171378   -1.18597179029602   -3.32213190389626
C        -1.83536350702034    0.02879603834033    4.73304654682326
F        -0.96638889099607    0.32382287518477    5.75294059143358
F        -2.70408927706873   -0.84170463298145    5.05989868517261
F        -2.52435923771268    1.09654828210327    5.04512724419044
C        -0.56626145443768   -1.73564504991171    4.71832027580338
F        -0.33703350078555   -1.07937492677308    5.79586801204289
F        -1.66947969205269   -2.30561232257101    5.05323066667905
F        -0.03451674376043   -2.86815770138181    5.06232076341730
C         1.47206751963761   -1.10021898901735    4.62564556802010
F         0.87939680522635   -0.22073328618742    5.85236063153394
F         1.54757932746987   -2.15987615853565    5.23867789752239
F         2.52985748922074   -0.41652615175924    5.22724175065478
C         0.53824107248150   -5.00729377299565   -0.87133282061998
F         1.22715675628156   -5.23627677584543   -1.98521501395216
F        -0.63857566809934   -5.61846177875664   -1.00385138716182
F         1.18389249333719   -5.61821928563414    0.12301956738469
C         4.04915749449548   -1.67613474786868   -2.63293377644923
F         4.97541727525818   -0.72964849340270   -2.75179977084542
F         3.73245236906061   -2.07386124904722   -3.84828777676436
F         4.62717896263721   -2.72062250802140   -2.04043603346019
C         2.86574241283594   -2.05022847369746    3.63328882298540
F         3.84056818323659   -2.79363530912166    3.21557432405197
F         3.62222975636809   -1.24116357977263    4.38448730008906
F         2.27010189845315   -3.10254141659729    4.39009893918810
C         1.08402299243392    3.33308988738282   -3.72154457684441
F         1.46267512207775    4.50712055213461   -3.22594849795205
F         2.06224744882830    2.92339713710015   -4.49962608242323
F         0.02912521783320    3.55921337663351   -4.50592845434246
C         4.59769446495290    2.06088974426796    0.86668952060716
F         4.60070670944127    2.78516469966420    1.98713668244977
F         4.97729969891890    2.86191425141113   -0.12136775777380
F         5.54060764157208    1.12846655086272    1.00533850515490
C        -4.20897860756503    1.07287159289386   -2.60439013109459
F        -4.45236401356518    2.34824718566178   -2.75126277833464
F        -4.21629707895311    0.78530993799259   -3.93139834924134
F        -5.40511675779660    0.78874265117031   -2.01258779909305
C        -2.50793060549848    4.36835630296903    0.86939363370859
F        -2.08542251164352    4.95736969811490    1.98590181262149
F        -2.34520358952673    5.24064086087762   -0.12204384141024
F        -3.82006704082922    4.16946837166700    1.00402572405612
C        -4.20930764873968   -1.07040166422170   -2.60185662028717
F        -4.45263634176907   -2.34920847063734   -2.75212654362659
F        -4.21537116122838   -0.78649964586159   -3.93327005324625
F        -5.40341758398650   -0.78981092544040   -2.01142187061474
C         1.76369076477716   -0.00035281764368   -4.79939218280530
F         0.76427776710659    0.00063474940262   -5.68238409571962
F         2.52009652344192    1.04680906207369   -5.05942328974089
F         2.49625824570118   -1.06075796762120   -5.06921810561712
108
 energy: -323.433263298461 gnorm: 0.707687356859 xtb: 6.4.1 (a3dbbd7)
C        -1.26051528133934    0.01955993391282    3.36601793078844
C        -0.39819241964957   -1.20073015715017    3.35050191632325
C         1.00192668912673   -0.70617598636733    3.34876533010376
C         0.98402256866288    0.76060570262974    3.31191450336614
C        -0.35887812463925    1.19341130397427    3.30918699157071
C         2.34602990006813   -2.58943877279411    0.60019146364866
C         3.19276214855738   -1.42627782021988    0.60117027768947
C         2.96401613507153   -0.68238609505459    1.79359342164474
C         2.00564444323864   -1.45690972211721    2.58618070849819
C         1.57242545032072   -2.61191371356120    1.78779555731826