156
 energy: -487.270440466068 gnorm: 9.585606076889 xtb: 6.4.1 (a3dbbd7)
C        -1.23626340000000    0.00000000000000    3.32997640000000
C        -0.38202640000000   -1.17575640000000    3.32997640000000
C         1.00015810000000   -0.72665740000000    3.32997640000000
C         1.00015810000000    0.72665740000000    3.32997640000000
C        -0.38202640000000    1.17575640000000    3.32997640000000
C         2.34433560000000   -2.60145750000000    0.59464210000000
C         3.19857260000000   -1.42570110000000    0.59464210000000
C         2.96246730000000   -0.69904370000000    1.83090550000000
C         1.96230920000000   -1.42570110000000    2.59495830000000
C         1.58028280000000   -2.60145750000000    1.83090550000000
C         3.19857260000000    1.42570110000000    0.59464210000000
C         2.34433560000000    2.60145750000000    0.59464210000000
C         1.58028280000000    2.60145750000000    1.83090550000000
C         1.96230920000000    1.42570110000000    2.59495830000000
C         2.96246730000000    0.69904370000000    1.83090550000000
C        -0.36750900000000    3.48258920000000    0.59464210000000
C        -1.74969350000000    3.03349030000000    0.59464210000000
C        -1.98579880000000    2.30683290000000    1.83090550000000
C        -0.74953540000000    2.30683290000000    2.59495830000000
C         0.25062270000000    3.03349030000000    1.83090550000000
C        -3.42570570000000    0.72665740000000    0.59464210000000
C        -3.42570570000000   -0.72665740000000    0.59464210000000
C        -2.80757400000000   -1.17575640000000    1.83090550000000
C        -2.42554760000000    0.00000000000000    2.59495830000000
C        -2.80757400000000    1.17575640000000    1.83090550000000
C        -1.74969350000000   -3.03349030000000    0.59464210000000
C        -0.36750900000000   -3.48258920000000    0.59464210000000
C         0.25062270000000   -3.03349030000000    1.83090550000000
C        -0.74953540000000   -2.30683290000000    2.59495830000000
C        -1.98579880000000   -2.30683290000000    1.83090550000000
C        -0.25062270000000   -3.03349030000000   -1.83090550000000
C         0.74953540000000   -2.30683290000000   -2.59495830000000
C         1.98579880000000   -2.30683290000000   -1.83090550000000
C         1.74969350000000   -3.03349030000000   -0.59464210000000
C         0.36750900000000   -3.48258920000000   -0.59464210000000
C         2.80757400000000   -1.17575640000000   -1.83090550000000
C         2.42554760000000    0.00000000000000   -2.59495830000000
C         2.80757400000000    1.17575640000000   -1.83090550000000
C         3.42570570000000    0.72665740000000   -0.59464210000000
C         3.42570570000000   -0.72665740000000   -0.59464210000000
C         1.98579880000000    2.30683290000000   -1.83090550000000
C         0.74953540000000    2.30683290000000   -2.59495830000000
C        -0.25062270000000    3.03349030000000   -1.83090550000000
C         0.36750900000000    3.48258920000000   -0.59464210000000
C         1.74969350000000    3.03349030000000   -0.59464210000000
C        -1.58028280000000    2.60145750000000   -1.83090550000000
C        -1.96230920000000    1.42570110000000   -2.59495830000000
C        -2.96246730000000    0.69904370000000   -1.83090550000000
C        -3.19857260000000    1.42570110000000   -0.59464210000000
C        -2.34433560000000    2.60145750000000   -0.59464210000000
C        -2.96246730000000   -0.69904370000000   -1.83090550000000
C        -1.96230920000000   -1.42570110000000   -2.59495830000000
C        -1.58028280000000   -2.60145750000000   -1.83090550000000
C        -2.34433560000000   -2.60145750000000   -0.59464210000000
C        -3.19857260000000   -1.42570110000000   -0.59464210000000
C        -1.00015810000000   -0.72665740000000   -3.32997640000000
C        -1.00015810000000    0.72665740000000   -3.32997640000000
C         0.38202640000000    1.17575640000000   -3.32997640000000
C         1.23626340000000    0.00000000000000   -3.32997640000000
C         0.38202640000000   -1.17575640000000   -3.32997640000000
C        -1.76086815247998    0.00000000000000    4.78849957557021
F        -0.76911826531252    0.00000000000000    5.67468926254662
F        -2.50968386795825   -1.06794314680471    5.04863888333743
F        -2.50968386795825    1.06794314680471    5.04863888333743
C        -0.54413818249354   -1.67468516033722    4.78849957845317
F        -0.23767107904745   -0.73147481112462    5.67468925997942
F        -1.79120914301982   -2.05683909935453    5.04863874564184
F         0.24013968171955   -2.71686350152345    5.04863903502921
C         1.42457227037960   -1.03501233722714    4.78849957248258
F         0.62223011468481   -0.45207589682711    5.67468926529602
F         1.40265511061956   -2.33913928186680    5.04863905501621
F         2.65809836182651   -0.61117154425495    5.04863869666890
C         4.58877084110522   -2.05459160147071    0.86730597290559
F         4.59709252483521   -2.78118520641283    1.98125951001435
F         4.97417519512416   -2.85850196315549   -0.11965482382298
F         5.53562669678859   -1.13053295630600    1.00324569798425
C         2.82790274436383   -2.05459160758554    3.71645040671519
F         3.82797483682855   -2.78118494419178    3.22571836876305
F         3.37293748548841   -1.13053297859378    4.50255013394648
F         2.11749631416700   -2.85850222732984    4.50254863174647
C         2.28376457660886   -3.72927671755932    2.62817408867206
F         3.59030321655004   -3.51265997057976    2.75037870097715
F         2.14318168460923   -4.91533956626619    2.04303190988612
F         1.79618325340524   -3.84739782561575    3.85992562899767
C         2.28376457660886    3.72927671755932    2.62817408867206
F         3.59030321655004    3.51265997057976    2.75037870097715
F         2.14318168460923    4.91533956626619    2.04303190988612
F         1.79618325340524    3.84739782561575    3.85992562899767
C        -0.53602450593361    4.99908416128281    0.86730591619822
F        -1.22448605650957    5.23152837615597    1.98125850960180
F        -1.18149064144157    5.61404773804446   -0.11965571789346
F         0.63540201352706    5.61404743764837    1.00324736766175
C         0.34440953624153    4.35941144868709    2.62817404748705
F        -0.83992598883967    4.95213069234126    2.75037577510431
F         1.15529636597892    5.23632261667420    2.04303359185445
F         0.80829780400759    4.16837989546168    3.85992670963205
C        -3.49548004549360    0.00000000000000    3.71645041414084
F        -4.73163621497510    0.00000000000000    3.22571838476757
F        -3.39327517264965   -1.06794314680471    4.50254938956302
F        -3.39327517264965    1.06794314680471    4.50254938956303
C        -4.03961820246674    1.67468514775899    2.62817407948106
F        -4.96930660042401    0.73147479244129    2.75037763231445
F        -4.62303373288714    2.71686348978891    2.04303253910981
F        -3.71458666614023    2.05683907990836    3.85992603200072
C        -0.53602450593361   -4.99908416128281    0.86730591619822
F        -1.22448605650957   -5.23152837615597    1.98125850960180
F        -1.18149064144157   -5.61404773804446   -0.11965571789346
F         0.63540201352706   -5.61404743764837    1.00324736766175
C        -1.08016271022039   -3.32439912180418    3.71645041587937
F        -1.46215754230407   -4.50005299330749    3.22571838851551
F        -0.03290491502764   -3.55721032900471    4.50254840735999
F        -2.06425285383526   -2.89718320022386    4.50255037491024
C         2.84103082519036   -3.32439911178427   -2.62817407941587
F         2.23127406184888   -4.50005340761388   -2.75037746012495
F         3.10404037880944   -2.89718378306489   -3.85992609894426
F         4.01248672303643   -3.55720929213529   -2.04303264409737
C         0.53602450593361   -4.99908416128281   -0.86730591619822
F         1.22448605650957   -5.23152837615597   -1.98125850960180
F        -0.63540201352706   -5.61404743764837   -1.00324736766175
F         1.18149064144157   -5.61404773804446    0.11965571789346
C         4.92005227074660   -1.03501232949151   -0.86730592957069
F         5.35386609588658   -0.45207588830481   -1.98125865327758
F         5.14292645153878   -2.33913927311179   -1.00324714649869
F         5.70437742108406   -0.61117153086585    0.11965558739362
C         2.84103082519036    3.32439911178427   -2.62817407941587
F         2.23127406184888    4.50005340761388   -2.75037746012491
F         3.10404037880940    2.89718378306489   -3.85992609894427
F         4.01248672303644    3.55720929213525   -2.04303264409737
C         1.08016271022039    3.32439912180418   -3.71645041587937
F         1.46215754230407    4.50005299330749   -3.22571838851551
F         2.06425285383526    2.89718320022386   -4.50255037491024
F         0.03290491502764    3.55721032900471   -4.50254840735999
C        -4.25247495652193    1.01957928511255   -2.62817407757680
F        -4.45020405360863    2.32910962270744   -2.75037677428969
F        -4.21414295278388    0.51936236815955   -3.85992636334025
F        -5.33704498641440    0.51936149478958   -2.04303305824604
C        -4.58877084110522    2.05459160147071   -0.86730597290559
F        -4.59709252483521    2.78118520641283   -1.98125951001435
F        -5.53562669678859    1.13053295630600   -1.00324569798425
F        -4.97417519512416    2.85850196315549    0.11965482382298
C        -2.82790274436383   -2.05459160758554   -3.71645040671519
F        -3.82797483682855   -2.78118494419178   -3.22571836876305
F        -3.37293748548841   -1.13053297859378   -4.50255013394648
F        -2.11749631416700   -2.85850222732984   -4.50254863174647
C        -3.37204091334889   -3.72927672645244   -0.86730596148276
F        -4.06564647311728   -3.51265957144659   -1.98125763710228
F        -2.78580317558591   -4.91533944031226   -1.00324916143779
F        -4.25569947457670   -3.84739838595791    0.11965645964809
C        -4.58877084110522   -2.05459160147071   -0.86730597290559
F        -4.59709252483521   -2.78118520641283   -1.98125951001435
F        -5.53562669678859   -1.13053295630600   -1.00324569798425
F        -4.97417519512416   -2.85850196315549    0.11965482382298
C         0.54413818249354    1.67468516033722   -4.78849957845317
F         0.23767107904745    0.73147481112462   -5.67468925997942
F        -0.24013968171955    2.71686350152345   -5.04863903502921
F         1.79120914301982    2.05683909935453   -5.04863874564184
156
 energy: -494.487747899756 gnorm: 7.832831289030 xtb: 6.4.1 (a3dbbd7)
C        -1.22916970667873   -0.00000436136337    3.31724535971085
C        -0.37908541382463   -1.16815889300142    3.31076449412930
C         0.99588674433971   -0.72026226807722    3.31689243352154
C         0.99982806849134    0.72781766430303    3.33222314679989
C        -0.38119176387767    1.17578945775311    3.33235205756861
C         2.34631428672461   -2.60140746504774    0.59689333614639
C         3.19206888836735   -1.42567529282261    0.59757730407751
C         2.96319393853920   -0.69946683556378    1.83160079463926
C         1.95946582695679   -1.42109039383386    2.58620970359475
C         1.57735268665835   -2.59934554563759    1.82535451057832
C         3.19766644813794    1.42566035608012    0.59646527884489
C         2.34633528184037    2.60077325050471    0.59505095956879
C         1.58233053442258    2.59316519749782    1.82705176793785
C         1.96489434668174    1.42522060496061    2.59396183270927
C         2.96330665783154    0.70265946584801    1.83067532276505
C        -0.36850536715712    3.47743804743116    0.59057608959311
C        -1.75106317091318    3.03312785906112    0.59591518256672
C        -1.98439313493331    2.30981142280476    1.83055868393971
C        -0.75060462081324    2.30941313373572    2.59478292843274
C         0.24708140361445    3.02559142766528    1.82756929357754
C        -3.42671587376664    0.72614179459085    0.59539054517476
C        -3.42752896937467   -0.72678230559317    0.59661400336146
C        -2.80852509177003   -1.17539240134527    1.83128145209406
C        -2.42056384260066   -0.00126966735931    2.58508362098532
C        -2.80360588228856    1.17622660270448    1.82530785149931
C        -1.74954563231105   -3.03447585938773    0.59648905884302
C        -0.36990258119602   -3.47647444254450    0.59666019003968
C         0.24949003819584   -3.03460828576146    1.83099500605347
C        -0.75006148349853   -2.30469771284861    2.58610821821601
C        -1.98613637726253   -2.30793344826119    1.83132460613191
C        -0.24836712928959   -3.03265659277339   -1.83255695917374
C         0.74684084909321   -2.30739156341484   -2.59542689361586
C         1.98603476339863   -2.30758902017315   -1.83168452121211
C         1.74912321124518   -3.03594777645838   -0.59599488336959
C         0.36949274310925   -3.47574697760211   -0.59812839363013
C         2.80863127292890   -1.17185732817555   -1.83276569753128
C         2.42560663824559    0.00053048565813   -2.59291367970098
C         2.80899938263264    1.17214612450069   -1.83206643260600
C         3.42663985870427    0.72758344280831   -0.59523716107783
C         3.41939354539886   -0.72217068965197   -0.59780466350611
C         1.98580779703435    2.30405046269773   -1.82547961672400
C         0.74629416028790    2.30376840069152   -2.58788817812148
C        -0.25108265978526    3.03452981592984   -1.83092800855655
C         0.36942508643865    3.48353236777138   -0.59694737757267
C         1.74880463405214    3.03532682611184   -0.59431637046848
C        -1.58154342311813    2.60048770469085   -1.83071780709092
C        -1.96208950933155    1.42872416463137   -2.59562707815995
C        -2.95925140297029    0.69814488618724   -1.83150462352054
C        -3.19532566017724    1.42573926038562   -0.59216665171634
C        -2.34360271711972    2.60225565595961   -0.59665495433581
C        -2.96292622594863   -0.69994485148815   -1.83072950423073
C        -1.96316771284816   -1.42679076521566   -2.59572490620094
C        -1.58099122748723   -2.60295556383395   -1.83053344249228
C        -2.34017087171706   -2.60018543307820   -0.59475342055121
C        -3.19603768367328   -1.42231689177397   -0.59388577998279
C        -0.99578711776361   -0.72444176958292   -3.33006614483846
C        -1.00053400783788    0.72416194677209   -3.33133360954497
C         0.37964024284824    1.16851100336945   -3.32412299417111
C         1.23651130077568   -0.00170872289882   -3.33107818326948
C         0.38110642179640   -1.17514423376281   -3.33011099218237
C        -1.76640356987550    0.00700989699556    4.74537272823011
F        -0.78613098394017    0.05119587145294    5.71198788961971
F        -2.52893604235375   -1.03583373116130    5.09576322778548
F        -2.48375594155121    1.08395664170569    5.08261720909533
C        -0.54190661140046   -1.66117663733125    4.74703002145975
F        -0.24978478873151   -0.77183854900760    5.71178150527606
F        -1.76813692411194   -2.09554256452338    5.09567113743083
F         0.19925196208603   -2.73851111173928    5.09379973482339
C         1.42682431098188   -1.04146225209180    4.74607630218295
F         0.67091907822380   -0.41319078774869    5.71111380168935
F         1.44318549126356   -2.31505828665772    5.09792348188980
F         2.64985384480826   -0.57462874994225    5.08299353060325
C         4.56837444163932   -2.04503643550702    0.85984755182365
F         4.62672627523850   -2.78023648234360    1.96469128615544
F         4.97263302158047   -2.90036547037606   -0.09953854159776
F         5.54761190140209   -1.13505372745812    1.05317174952064
C         2.78990256995067   -2.04551657001346    3.70497599889868
F         3.86475757241213   -2.75618707509568    3.26283921933179
F         3.43013731750091   -1.13152199905458    4.49373913983857
F         2.17840416298769   -2.84005464954251    4.52526491895309
C         2.26840059870731   -3.72248260354686    2.62527330817550
F         3.58608712482041   -3.56554212740010    2.73355264510611
F         2.14758132715608   -4.92185851967377    2.04224433846784
F         1.77072860783582   -3.92368779605820    3.82408714759999
C         2.28395577936380    3.71135951540322    2.61763249238825
F         3.59434507662593    3.51431312503206    2.75226891777202
F         2.18838883877471    4.92442617456942    2.03204862936008
F         1.83675531909463    3.83323134889656    3.88605679801588
C        -0.52661825606344    4.98984733892957    0.85661217517848
F        -1.26393841236447    5.25626118749876    1.94705379492990
F        -1.18532830193540    5.61815387924475   -0.12230139584805
F         0.60715774581134    5.64748800653500    0.92901255162704
C         0.36550690088672    4.33471525996532    2.59809884249191
F        -0.84853639145644    4.95303140014166    2.81290533833939
F         1.15872219079637    5.24251028596719    2.10306629890231
F         0.76637186189238    4.17986641707829    3.89562271600941
C        -3.46024112614906    0.00543664331496    3.70373878501808
F        -4.75252078131801   -0.04484557875144    3.24916581430537
F        -3.45647210053384   -1.08905239620078    4.48469650553133
F        -3.41474382516028    1.02985136171645    4.53610804299865
C        -4.02505326579823    1.68046431128029    2.62442389958933
F        -5.00239318154381    0.76788334454267    2.71930906928355
F        -4.62670795181510    2.72012537446920    2.04487330635121
F        -3.73604569772255    2.13323168447562    3.82424318920389
C        -0.53839245832501   -4.98101343383962    0.86703295545316
F        -1.22263115677994   -5.25162200016503    1.96096814638259
F        -1.21473106748091   -5.62572026963517   -0.09844315012658
F         0.63175776160218   -5.62681676180732    1.04436864261036
C        -1.07980466469121   -3.31372364651679    3.69719925098979
F        -1.46933293991742   -4.49287068653686    3.25201792171233
F        -0.02824980000160   -3.61173846197320    4.48921852900363
F        -2.10152352895204   -2.93820374414034    4.48494888626871
C         2.83959173333093   -3.32205088919107   -2.62926509357535
F         2.25209564295650   -4.48867472548477   -2.76744697125282
F         3.10558970719874   -2.89695255367336   -3.86202205697348
F         4.01444875052796   -3.56060410194938   -2.04384554225864
C         0.53559667980958   -4.98103872207542   -0.87366167660388
F         1.20598300681989   -5.24983502818071   -1.96824564812431
F        -0.63227680756237   -5.62506576674602   -1.04261137997602
F         1.21851565383991   -5.62680992269813    0.09965914030366
C         4.90521098182129   -1.02632120261466   -0.87209699342987
F         5.35688348574032   -0.45147248466893   -1.98366087268851
F         5.15712941912618   -2.33560824938299   -1.04290032312568
F         5.72588936409557   -0.57965428602254    0.09229187173661
C         2.84226173625286    3.30773959720726   -2.62551516413762
F         2.27510129251957    4.52125451631772   -2.71970202696814
F         3.18171422133573    2.89430219669912   -3.82385939991928
F         4.01677691540607    3.56046330310005   -2.04142985789722
C         1.08285483672025    3.28096762782507   -3.70651233309953
F         1.41789264549423    4.54041688962032   -3.24790690268669
F         2.02394207256327    2.92750403750195   -4.53570276272730
F         0.01696505692178    3.60828981352282   -4.49502358877368
C        -4.24854274359620    1.00655400356478   -2.62747816099023
F        -4.44390647469357    2.31313903669930   -2.80389676327738
F        -4.21608867083364    0.52176305540421   -3.86278367818952
F        -5.32822787308145    0.48119592590074   -2.11277820462481
C        -4.58709131347154    2.04756535815768   -0.85595084624206
F        -4.60866126731871    2.82004698627724   -1.94238361545515
F        -5.55309766621287    1.16945151075456   -0.93547916808488
F        -4.97662581490253    2.86199780019947    0.11855309478643
C        -2.82333331125667   -2.05190503977916   -3.71839727321948
F        -3.82027527735236   -2.77575048129798   -3.25776913067369
F        -3.37295309121450   -1.13250643836538   -4.50595104038807
F        -2.11718149034834   -2.86011883022506   -4.50438310410981
C        -3.36495059992956   -3.73000148797588   -0.85747038484621
F        -4.04518904521334   -3.56491420578795   -1.97653742687347
F        -2.78706473824566   -4.91926764440464   -1.00606606990348
F        -4.21207618393162   -3.91484799318039    0.12253263544737
C        -4.58818225222949   -2.04640041939510   -0.85682914003512
F        -4.64070046465238   -2.74618931994683   -1.97713370731402
F        -5.53930167541260   -1.13147526551134   -1.00258681082531
F        -5.02450822475544   -2.79631524472372    0.12238395931084
C         0.53728414103740    1.65972847338041   -4.77668217117795
F         0.23761234349085    0.73100045883082   -5.67786452501247
F        -0.26791872934896    2.69600683431405   -5.07997079507697
F         1.80319977633584    2.02689621168786   -5.08027420721361
156
 energy: -501.661349074410 gnorm: 7.031376531182 xtb: 6.4.1 (a3dbbd7)
C        -1.22367357593088    0.00564392216430    3.30917161970862
C        -0.37743014848970   -1.16245494205097    3.30619651238268
C         0.99538151376681   -0.71351329356378    3.31096426881123
C         1.00064761673187    0.72799891096666    3.33289360494010
C        -0.38148403567636    1.17493229448846    3.33413224428638
C         2.34795239413843   -2.60235262712861    0.59881359430067
C         3.18961965602808   -1.42701448342261    0.60086428159987
C         2.96429748358267   -0.69930170936031    1.83287170279906
C         1.96111047561625   -1.41870597727935    2.58047850875861
C         1.57540408526829   -2.59798585280505    1.81988818928656
C         3.19604298380724    1.42587159164522    0.59752432450887
C         2.34829738266769    2.59815620796830    0.59437877906754
C         1.58728796857631    2.58867607466656    1.82520862531046
C         1.96745746397975    1.42284223770299    2.59193517001852
C         2.96189481972240    0.70632685294360    1.83005105488274
C        -0.37037842090019    3.47515530483839    0.58716045457115
C        -1.75268262868321    3.03179285059652    0.59678385682030
C        -1.98278429201203    2.31289670265799    1.82931453307799
C        -0.75201294861758    2.31148771429935    2.59506463915193
C         0.24395849618558    3.02214912536269    1.82789215022573
C        -3.42796264174787    0.72546662140468    0.59629143733428
C        -3.42899603269681   -0.72658393310213    0.59906127149704
C        -2.80897356855898   -1.17547122889838    1.83055620843654
C        -2.41952157845209   -0.00356679948928    2.57789653251286
C        -2.80114288343627    1.17692481260903    1.82030069206041
C        -1.74985555910822   -3.03475903654618    0.59882487099277
C        -0.37246918658903   -3.47525994112978    0.59936497790625
C         0.24874551837427   -3.03543445421937    1.83088292958714
C        -0.75187358666366   -2.30542012538966    2.57901411614337
C        -1.98585662571354   -2.30761182544542    1.83081090204314
C        -0.24674815530123   -3.02886061378492   -1.83473163935360
C         0.74276457631585   -2.30683990409077   -2.59501090740872
C         1.98725340824095   -2.31153888022609   -1.83416788612720
C         1.74780238526271   -3.03764457889624   -0.59743997851883
C         0.37256475443213   -3.47367638494771   -0.60115405874548
C         2.80909238267032   -1.16718679746974   -1.83400458567215
C         2.42484509325405    0.00068979632791   -2.59027818633769
C         2.81081008472970    1.16843119060475   -1.83201422711015
C         3.42628812666968    0.72941344236365   -0.59533844921637
C         3.41801259510089   -0.71906132977170   -0.60165290862396
C         1.98743604349886    2.30259270211962   -1.82201200878818
C         0.74450460925034    2.30569431043435   -2.58545788752157
C        -0.25212942005730    3.03583454486648   -1.83047356946256
C         0.37159152584177    3.48331759813623   -0.59970263927094
C         1.74779847346023    3.03683076058263   -0.59290828297634
C        -1.58224955392914    2.59827690886430   -1.82982304974586
C        -1.96131509199970    1.43202327098357   -2.59597894793387
C        -2.95648421804764    0.69778918883208   -1.83269814749373
C        -3.19254330011682    1.42664805892686   -0.58984024223509
C        -2.34214261802355    2.60391445187024   -0.59833109022602
C        -2.96318133775331   -0.70077257674592   -1.83059259709864
C        -1.96514892305429   -1.42840449557179   -2.59788387344436
C        -1.57973528346971   -2.60423763841951   -1.83075141591658
C        -2.33681083374592   -2.60004861000681   -0.59530318596368
C        -3.19394372653128   -1.41889898007061   -0.59367850981026
C        -0.99067224903055   -0.72125935568856   -3.33156747921444
C        -1.00071689520518    0.72082821136776   -3.32988877618404
C         0.37760282695966    1.16192459562571   -3.32490318325257
C         1.23719829799898   -0.00452374441494   -3.33124966333633
C         0.37988041198709   -1.17390341959522   -3.32865581709321
C        -1.78071052591857   -0.01326583481756    4.69959617671269
F        -0.80122768440333    0.12678031177197    5.75364400210712
F        -2.51197525428806   -0.98095861308234    5.15267784346161
F        -2.43334500686197    1.10810243196923    5.12760452281866
C        -0.53698585384068   -1.63333594158124    4.70018612475524
F        -0.27518494363109   -0.84899233479867    5.72382261575982
F        -1.73556892038534   -2.11400107084083    5.16191643860891
F         0.16756109343303   -2.73683202888598    5.15892535600207
C         1.43364225738931   -1.05929342276626    4.70115304511874
F         0.72772867955589   -0.36099226747571    5.75280437618349
F         1.46324999471927   -2.27390074382168    5.14834237460650
F         2.59992714515356   -0.52693977019497    5.13492777538086
C         4.55677853294541   -2.03857598741841    0.85674980772917
F         4.65450346546172   -2.77709943323890    1.94382610289983
F         4.96496355220666   -2.94562601808719   -0.04892034050928
F         5.54420243041771   -1.16824246199596    1.12858001368328
C         2.74835693931214   -2.03483303482653    3.69804840602959
F         3.89878113773650   -2.74440820379368    3.29385506016425
F         3.50742824853339   -1.16258904050358    4.45962365484781
F         2.24215402986301   -2.83765052601937    4.52434202435525
C         2.25627038932015   -3.71816089837779    2.62345572101055
F         3.57880347756418   -3.60459935079239    2.72599115537033
F         2.15193763125893   -4.92391655771305    2.04346787107122
F         1.75456342626402   -3.97251418101619    3.80000517623502
C         2.27507674407625    3.69314510710358    2.61217480304264
F         3.59990314610247    3.51700426771849    2.75403308641283
F         2.24446420005338    4.93252350284263    2.01290539643920
F         1.91129188891519    3.80712414795741    3.90748849823636
C        -0.51632810795215    4.98211785259704    0.84771107599427
F        -1.29149832096098    5.27383631763607    1.92572452788575
F        -1.18766482593558    5.62081251518305   -0.12326920143466
F         0.59085724844604    5.66749700219672    0.88252038932134
C         0.39351027891130    4.31218456419575    2.56852215390192
F        -0.86943306059488    4.96049725893154    2.86315811916177
F         1.13708230629781    5.25079039299873    2.15322447237938
F         0.69198055079059    4.20659114453456    3.91484764104692
C        -3.42008359134390    0.02048261472168    3.69931259414249
F        -4.78330386615796   -0.08713069483306    3.26153808426811
F        -3.53461063312213   -1.11144478187368    4.44481381604722
F        -3.46151480636303    0.98804992104651    4.54255440193918
C        -4.01134910684261    1.68662312658605    2.62340411370465
F        -5.02800060474120    0.78969206454483    2.69856891007259
F        -4.62868549387912    2.72143644168425    2.04808165607549
F        -3.74903323311181    2.18173530682263    3.80059466548352
C        -0.53925701012775   -4.97132411310859    0.86889760357919
F        -1.22121926573916   -5.26945207124317    1.94176379559627
F        -1.25810770309198   -5.63332095794006   -0.03703339790124
F         0.59257220906289   -5.63407956093873    1.11495656996353
C        -1.08171929989529   -3.30170966475078    3.68072213621808
F        -1.47515027352342   -4.48385449570224    3.27742985402616
F        -0.02596451295870   -3.68340905869281    4.45913760725577
F        -2.14486717879622   -2.99048478753711    4.44989876453130
C         2.83780164550353   -3.32054399930640   -2.63012980686604
F         2.27103209943780   -4.47777479932529   -2.78308230186774
F         3.10687348320196   -2.89664803981443   -3.86400840496621
F         4.01522363950977   -3.56414295770631   -2.04498097686285
C         0.53965372023759   -4.97187437979941   -0.87706283072408
F         1.18857608696385   -5.26679772596897   -1.95698005841112
F        -0.60103315004431   -5.63196093624057   -1.11090589910762
F         1.26713586109194   -5.63227862069261    0.03476855358200
C         4.89757143465299   -1.02060381681007   -0.87539859919351
F         5.35936374494909   -0.45038679967318   -1.98686060606099
F         5.17505050198208   -2.30696810185314   -1.10080482216110
F         5.74586123188228   -0.53693203681182    0.02642477900447
C         2.84444633803395    3.29163745621561   -2.62430840514058
F         2.30434894247415    4.53700663063472   -2.69956707584119
F         3.22915767646879    2.89167583707039   -3.80115003300371
F         4.01882422958946    3.56279063267004   -2.04069749163563
C         1.08614145304869    3.23462590863364   -3.70205630073538
F         1.38813110693243    4.58548722132753   -3.25907167575684
F         1.99325275940715    2.97014127721365   -4.54705029519951
F         0.02530739269704    3.68074542701159   -4.46442177545419