62
 energy: -137.470485530889 gnorm: 0.172464812902 xtb: 6.4.1 (a3dbbd7)
C        -1.23626340000000    0.00000000000000    3.32997640000000
C        -0.38202640000000   -1.17575640000000    3.32997640000000
C         1.00015810000000   -0.72665740000000    3.32997640000000
C         1.00015810000000    0.72665740000000    3.32997640000000
C        -0.38202640000000    1.17575640000000    3.32997640000000
C         2.34433560000000   -2.60145750000000    0.59464210000000
C         3.19857260000000   -1.42570110000000    0.59464210000000
C         2.96246730000000   -0.69904370000000    1.83090550000000
C         1.96230920000000   -1.42570110000000    2.59495830000000
C         1.58028280000000   -2.60145750000000    1.83090550000000
C         3.19857260000000    1.42570110000000    0.59464210000000
C         2.34433560000000    2.60145750000000    0.59464210000000
C         1.58028280000000    2.60145750000000    1.83090550000000
C         1.96230920000000    1.42570110000000    2.59495830000000
C         2.96246730000000    0.69904370000000    1.83090550000000
C        -0.36750900000000    3.48258920000000    0.59464210000000
C        -1.74969350000000    3.03349030000000    0.59464210000000
C        -1.98579880000000    2.30683290000000    1.83090550000000
C        -0.74953540000000    2.30683290000000    2.59495830000000
C         0.25062270000000    3.03349030000000    1.83090550000000
C        -3.42570570000000    0.72665740000000    0.59464210000000
C        -3.42570570000000   -0.72665740000000    0.59464210000000
C        -2.80757400000000   -1.17575640000000    1.83090550000000
C        -2.42554760000000    0.00000000000000    2.59495830000000
C        -2.80757400000000    1.17575640000000    1.83090550000000
C        -1.74969350000000   -3.03349030000000    0.59464210000000
C        -0.36750900000000   -3.48258920000000    0.59464210000000
C         0.25062270000000   -3.03349030000000    1.83090550000000
C        -0.74953540000000   -2.30683290000000    2.59495830000000
C        -1.98579880000000   -2.30683290000000    1.83090550000000
C        -0.25062270000000   -3.03349030000000   -1.83090550000000
C         0.74953540000000   -2.30683290000000   -2.59495830000000
C         1.98579880000000   -2.30683290000000   -1.83090550000000
C         1.74969350000000   -3.03349030000000   -0.59464210000000
C         0.36750900000000   -3.48258920000000   -0.59464210000000
C         2.80757400000000   -1.17575640000000   -1.83090550000000
C         2.42554760000000    0.00000000000000   -2.59495830000000
C         2.80757400000000    1.17575640000000   -1.83090550000000
C         3.42570570000000    0.72665740000000   -0.59464210000000
C         3.42570570000000   -0.72665740000000   -0.59464210000000
C         1.98579880000000    2.30683290000000   -1.83090550000000
C         0.74953540000000    2.30683290000000   -2.59495830000000
C        -0.25062270000000    3.03349030000000   -1.83090550000000
C         0.36750900000000    3.48258920000000   -0.59464210000000
C         1.74969350000000    3.03349030000000   -0.59464210000000
C        -1.58028280000000    2.60145750000000   -1.83090550000000
C        -1.96230920000000    1.42570110000000   -2.59495830000000
C        -2.96246730000000    0.69904370000000   -1.83090550000000
C        -3.19857260000000    1.42570110000000   -0.59464210000000
C        -2.34433560000000    2.60145750000000   -0.59464210000000
C        -2.96246730000000   -0.69904370000000   -1.83090550000000
C        -1.96230920000000   -1.42570110000000   -2.59495830000000
C        -1.58028280000000   -2.60145750000000   -1.83090550000000
C        -2.34433560000000   -2.60145750000000   -0.59464210000000
C        -3.19857260000000   -1.42570110000000   -0.59464210000000
C        -1.00015810000000   -0.72665740000000   -3.32997640000000
C        -1.00015810000000    0.72665740000000   -3.32997640000000
C         0.38202640000000    1.17575640000000   -3.32997640000000
C         1.23626340000000    0.00000000000000   -3.32997640000000
C         0.38202640000000   -1.17575640000000   -3.32997640000000
Cl       -1.84886636902500    0.00000000000000    5.03315507598844
Cl        1.84886636902500    0.00000000000000   -5.03315507598844
62
 energy: -137.508376952030 gnorm: 0.106840835677 xtb: 6.4.1 (a3dbbd7)
C        -1.24865542684098   -0.00000000000000    3.35872847350089
C        -0.36234934673036   -1.18280977493127    3.32829553043840
C         1.00202808224155   -0.72494448626711    3.31460440804980
C         1.00202808224155    0.72494448626711    3.31460440804980
C        -0.36234934673036    1.18280977493127    3.32829553043840
C         2.33694126981187   -2.58952255773040    0.59217415882811
C         3.19048800748356   -1.42103025157761    0.59721683376764
C         2.95409669390173   -0.69580128772418    1.82464384341060
C         1.96112765284666   -1.42276645084185    2.58259667929390
C         1.58116430964796   -2.59071500304662    1.82155782344201
C         3.19048800748356    1.42103025157761    0.59721683376764
C         2.33694126981187    2.58952255773040    0.59217415882811
C         1.58116430964795    2.59071500304662    1.82155782344201
C         1.96112765284666    1.42276645084184    2.58259667929389
C         2.95409669390173    0.69580128772418    1.82464384341060
C        -0.36311078726002    3.46101720520653    0.59311810194685
C        -1.73981450291884    3.01537701856788    0.59430778800317
C        -1.97190328810960    2.29476683582085    1.81912147137268
C        -0.73305561464762    2.29387694644218    2.58137589852125
C         0.25625507245204    3.02288412085496    1.82363774988933
C        -3.41952318087225    0.72326574709085    0.58025558509567
C        -3.41952318087225   -0.72326574709085    0.58025558509567
C        -2.79385328028099   -1.16698042363729    1.80540251062790
C        -2.43154365772021   -0.00000000000000    2.54838003740455
C        -2.79385328028099    1.16698042363729    1.80540251062790
C        -1.73981450291884   -3.01537701856788    0.59430778800317
C        -0.36311078726002   -3.46101720520653    0.59311810194685
C         0.25625507245204   -3.02288412085496    1.82363774988933
C        -0.73305561464762   -2.29387694644218    2.58137589852125
C        -1.97190328810960   -2.29476683582085    1.81912147137268
C        -0.25625516131900   -3.02288481968899   -1.82364074123966
C         0.73305440260506   -2.29387716367436   -2.58138099651822
C         1.97189836901426   -2.29476178111812   -1.81912378105721
C         1.73981250772551   -3.01537552250706   -0.59430916998054
C         0.36311085231937   -3.46101595235131   -0.59311969296369
C         2.79386166878444   -1.16698599278163   -1.80541074103215
C         2.43152993610082   -0.00000000000000   -2.54836521421075
C         2.79386166878444    1.16698599278163   -1.80541074103215
C         3.41952567275370    0.72326680315609   -0.58026307853518
C         3.41952567275371   -0.72326680315609   -0.58026307853519
C         1.97189836901427    2.29476178111812   -1.81912378105721
C         0.73305440260506    2.29387716367436   -2.58138099651822
C        -0.25625516131900    3.02288481968899   -1.82364074123966
C         0.36311085231937    3.46101595235131   -0.59311969296369
C         1.73981250772551    3.01537552250706   -0.59430916998054
C        -1.58116391892074    2.59071750257170   -1.82156065784352
C        -1.96112765385845    1.42276722754406   -2.58259975340132
C        -2.95409426090400    0.69580213203481   -1.82464926778275
C        -3.19048690679295    1.42103311848802   -0.59722320910267
C        -2.33694507441777    2.58952652013051   -0.59217923528644
C        -2.95409426090400   -0.69580213203481   -1.82464926778275
C        -1.96112765385845   -1.42276722754406   -2.58259975340132
C        -1.58116391892074   -2.59071750257170   -1.82156065784352
C        -2.33694507441777   -2.58952652013051   -0.59217923528644
C        -3.19048690679295   -1.42103311848802   -0.59722320910267
C        -1.00202895518350   -0.72494468579167   -3.31460656351183
C        -1.00202895518350    0.72494468579167   -3.31460656351183
C         0.36234558693495    1.18281074063795   -3.32829699568560
C         1.24864270632578   -0.00000000000000   -3.35870273723563
C         0.36234558693495   -1.18281074063795   -3.32829699568560
Cl       -1.87968184363738   -0.00000000000000    5.10573612175041
Cl        1.87971185315878   -0.00000000000000   -5.10566567870252
62
 energy: -137.526413452790 gnorm: 0.076544432219 xtb: 6.4.1 (a3dbbd7)
C        -1.28603964819495   -0.00000000000000    3.47259762542820
C        -0.34389500602770   -1.18392042443529    3.28569892844664
C         0.99399508015284   -0.72171920956993    3.27946799864902
C         0.99399508015284    0.72171920956993    3.27946799864902
C        -0.34389500602770    1.18392042443528    3.28569892844664
C         2.33076813748045   -2.57788020282091    0.59257547045024
C         3.17928545404423   -1.41459345277885    0.59855251867093
C         2.94386096146630   -0.69267058511264    1.81805631824876
C         1.95746223129768   -1.42077250458728    2.56542950611607
C         1.57948475302077   -2.57898575353677    1.80947293164894
C         3.17928545404424    1.41459345277885    0.59855251867093
C         2.33076813748045    2.57788020282091    0.59257547045024
C         1.57948475302077    2.57898575353677    1.80947293164894
C         1.95746223129768    1.42077250458728    2.56542950611607
C         2.94386096146630    0.69267058511264    1.81805631824876
C        -0.36108756612685    3.44326125506305    0.58952274800643
C        -1.73248847744692    2.99714640992855    0.59273953531116
C        -1.96555193698400    2.28756810122210    1.80462221027882
C        -0.72057547024656    2.27824758656943    2.55142574027578
C         0.25739276846828    3.01253725518976    1.81058892654346
C        -3.40924954484558    0.71836950484455    0.56860335423745
C        -3.40924954484558   -0.71836950484456    0.56860335423745
C        -2.77489078174130   -1.15136079523945    1.78577803491650
C        -2.44085127248280   -0.00000000000000    2.51577853073116
C        -2.77489078174130    1.15136079523945    1.78577803491650
C        -1.73248847744692   -2.99714640992855    0.59273953531116
C        -0.36108756612685   -3.44326125506304    0.58952274800643
C         0.25739276846828   -3.01253725518975    1.81058892654346
C        -0.72057547024656   -2.27824758656943    2.55142574027578
C        -1.96555193698399   -2.28756810122209    1.80462221027881
C        -0.25739352295331   -3.01253591306463   -1.81058520043736
C         0.72057573206694   -2.27824168742073   -2.55141874970332
C         1.96555929181785   -2.28758130203006   -1.80462596720630
C         1.73249059658510   -2.99715000556491   -0.59273957806306
C         0.36108652873915   -3.44326239374165   -0.58952118605243
C         2.77487959139585   -1.15135625207235   -1.78577036636309
C         2.44086144907687   -0.00000000000000   -2.51580037451684
C         2.77487959139585    1.15135625207234   -1.78577036636309
C         3.40924709547209    0.71836882091761   -0.56859575580144
C         3.40924709547208   -0.71836882091762   -0.56859575580144
C         1.96555929181786    2.28758130203007   -1.80462596720631
C         0.72057573206694    2.27824168742073   -2.55141874970332
C        -0.25739352295331    3.01253591306464   -1.81058520043736
C         0.36108652873915    3.44326239374165   -0.58952118605243
C         1.73249059658510    2.99715000556492   -0.59273957806306
C        -1.57948732693372    2.57898658061094   -1.80947199323039
C        -1.95746428993308    1.42077182595090   -2.56542431894011
C        -2.94386630785023    0.69266972316580   -1.81804992386769
C        -3.17928801105637    1.41459017787372   -0.59854528159148
C        -2.33076324991937    2.57787346735620   -0.59257076583218
C        -2.94386630785022   -0.69266972316580   -1.81804992386769
C        -1.95746428993307   -1.42077182595090   -2.56542431894011
C        -1.57948732693372   -2.57898658061095   -1.80947199323039
C        -2.33076324991937   -2.57787346735620   -0.59257076583218
C        -3.17928801105637   -1.41459017787372   -0.59854528159148
C        -0.99399670741158   -0.72171832397203   -3.27946184731643
C        -0.99399670741158    0.72171832397203   -3.27946184731643
C         0.34389686627077    1.18391746627845   -3.28570227708973
C         1.28605105346201   -0.00000000000000   -3.47262869901213
C         0.34389686627077   -1.18391746627845   -3.28570227708974
Cl       -1.93209235150523   -0.00000000000000    5.26888542428530
Cl        1.93209699204060   -0.00000000000000   -5.26893452752603
62
 energy: -137.532326881431 gnorm: 0.037613796157 xtb: 6.4.1 (a3dbbd7)
C        -1.28625768400087   -0.00000000000000    3.48330469536932
C        -0.35871708251887   -1.18103481420912    3.31692349175138
C         0.98877985695909   -0.72181051947739    3.29398787366998
C         0.98877985695909    0.72181051947739    3.29398787366998
C        -0.35871708251887    1.18103481420912    3.31692349175138
C         2.33333346695295   -2.57922691955495    0.59323417303669
C         3.18263494885774   -1.41469912786814    0.59798244041615
C         2.94728611768639   -0.69361272098517    1.82231112497589
C         1.95478941264775   -1.41795205782714    2.57271901301382
C         1.57863209113294   -2.57730558799712    1.81374436361728
C         3.18263494885774    1.41469912786814    0.59798244041616
C         2.33333346695295    2.57922691955495    0.59323417303669
C         1.57863209113294    2.57730558799712    1.81374436361728
C         1.95478941264775    1.41795205782714    2.57271901301383
C         2.94728611768640    0.69361272098517    1.82231112497590
C        -0.36192863639869    3.44127416702788    0.59046966115389
C        -1.73475809282782    2.99662408297372    0.59403512678594
C        -1.96795991806784    2.28654679417816    1.81248353224360
C        -0.72854359338060    2.27713096595882    2.56907530479084
C         0.25408808552694    3.00380978701790    1.81466747026533
C        -3.40933837181741    0.71892389829447    0.57604384793405
C        -3.40933837181741   -0.71892389829447    0.57604384793405
C        -2.77792739896555   -1.15177487884604    1.80062178816416
C        -2.43615365990076    0.00000000000000    2.54651778029176
C        -2.77792739896555    1.15177487884604    1.80062178816416
C        -1.73475809282782   -2.99662408297372    0.59403512678594
C        -0.36192863639869   -3.44127416702788    0.59046966115389
C         0.25408808552694   -3.00380978701790    1.81466747026533
C        -0.72854359338060   -2.27713096595882    2.56907530479084
C        -1.96795991806784   -2.28654679417816    1.81248353224359
C        -0.25408810065386   -3.00380779634936   -1.81466764174352
C         0.72854300962682   -2.27712959783751   -2.56907732915578
C         1.96795923794247   -2.28654748345753   -1.81248553740513
C         1.73475748732618   -2.99662419284324   -0.59403601718395
C         0.36192832687994   -3.44127342754526   -0.59046995880800
C         2.77792839238145   -1.15177673255682   -1.80062316493328
C         2.43614739390278   -0.00000000000000   -2.54650994837669
C         2.77792839238145    1.15177673255681   -1.80062316493328
C         3.40933804321263    0.71892433302151   -0.57604639142978
C         3.40933804321263   -0.71892433302152   -0.57604639142978
C         1.96795923794247    2.28654748345754   -1.81248553740513
C         0.72854300962682    2.27712959783750   -2.56907732915578
C        -0.25408810065385    3.00380779634936   -1.81466764174352
C         0.36192832687994    3.44127342754526   -0.59046995880800
C         1.73475748732618    2.99662419284324   -0.59403601718395
C        -1.57863281682329    2.57730596128212   -1.81374602368712
C        -1.95478994071671    1.41795243086440   -2.57272145522269
C        -2.94728581241273    0.69361291892382   -1.82231378262222
C        -3.18263559829330    1.41469937409742   -0.59798503273394
C        -2.33333464131970    2.57922715718575   -0.59323599570467
C        -2.94728581241273   -0.69361291892382   -1.82231378262221
C        -1.95478994071671   -1.41795243086440   -2.57272145522269
C        -1.57863281682329   -2.57730596128212   -1.81374602368712
C        -2.33333464131970   -2.57922715718574   -0.59323599570467
C        -3.18263559829330   -1.41469937409742   -0.59798503273394
C        -0.98878017721292   -0.72181052485184   -3.29398848474901
C        -0.98878017721293    0.72181052485184   -3.29398848474901
C         0.35871566258158    1.18103538073881   -3.31692563309897
C         1.28625237207701   -0.00000000000000   -3.48329459045462
C         0.35871566258158   -1.18103538073882   -3.31692563309897
Cl       -1.93293693960589   -0.00000000000000    5.26347074620693
Cl        1.93296060091659   -0.00000000000000   -5.26344220971859
62
 energy: -137.534094665490 gnorm: 0.023171096136 xtb: 6.4.1 (a3dbbd7)
C        -1.29229254630975    0.00000000000000    3.50951336110155
C        -0.36895418401425   -1.17745576281633    3.32949886864404
C         0.98279517773035   -0.72154833007973    3.29733890697259
C         0.98279517773035    0.72154833007973    3.29733890697259
C        -0.36895418401425    1.17745576281633    3.32949886864404
C         2.33421306570313   -2.57982662133341    0.59307522328528
C         3.18252060460011   -1.41437930402972    0.59632682414942
C         2.94616239302929   -0.69411457638266    1.82228655736838
C         1.95134944239207   -1.41581124568848    2.57496582727605
C         1.57685860585224   -2.57553627438671    1.81524954621685
C         3.18252060460011    1.41437930402972    0.59632682414942
C         2.33421306570313    2.57982662133341    0.59307522328528
C         1.57685860585224    2.57553627438671    1.81524954621685
C         1.95134944239207    1.41581124568848    2.57496582727605
C         2.94616239302929    0.69411457638266    1.82228655736838
C        -0.36281587196474    3.43882773542216    0.59035468535905
C        -1.73644438668086    2.99661097390525    0.59476786630414
C        -1.97008728044785    2.28686499487734    1.81624992223621
C        -0.73328913633103    2.27419927725551    2.57614402477334
C         0.25145308559016    2.99625074721356    1.81574530909451
C        -3.40584561361756    0.71825528250521    0.58145014284073
C        -3.40584561361756   -0.71825528250521    0.58145014284073
C        -2.77720590252824   -1.15031080687010    1.81077038810902
C        -2.43006573010476    0.00000000000000    2.56541402104568
C        -2.77720590252823    1.15031080687010    1.81077038810902
C        -1.73644438668086   -2.99661097390525    0.59476786630414
C        -0.36281587196474   -3.43882773542216    0.59035468535905
C         0.25145308559016   -2.99625074721356    1.81574530909451
C        -0.73328913633103   -2.27419927725551    2.57614402477335
C        -1.97008728044785   -2.28686499487734    1.81624992223622
C        -0.25145481624617   -2.99625305651666   -1.81575058301916
C         0.73328679829055   -2.27420137316223   -2.57614976533544
C         1.97008038391852   -2.28685772725331   -1.81625045501060
C         1.73644068989504   -2.99660929719296   -0.59477013038832
C         0.36281417553537   -3.43882712694002   -0.59035799255614
C         2.77721436707984   -1.15031607250234   -1.81077552592713
C         2.43005095087551    0.00000000000000   -2.56539094463755
C         2.77721436707984    1.15031607250234   -1.81077552592713
C         3.40585135581247    0.71825657633201   -0.58145696103077
C         3.40585135581247   -0.71825657633200   -0.58145696103077
C         1.97008038391852    2.28685772725330   -1.81625045501059
C         0.73328679829055    2.27420137316223   -2.57614976533544
C        -0.25145481624617    2.99625305651665   -1.81575058301916
C         0.36281417553537    3.43882712694002   -0.59035799255614
C         1.73644068989504    2.99660929719296   -0.59477013038832
C        -1.57685956825042    2.57553870456004   -1.81525426547023
C        -1.95135080013569    1.41581257808501   -2.57497216071972
C        -2.94616004792135    0.69411542117968   -1.82229354299561
C        -3.18251835746464    1.41438167274425   -0.59633389476317
C        -2.33421839386044    2.57983192525770   -0.59308178958894
C        -2.94616004792135   -0.69411542117968   -1.82229354299562
C        -1.95135080013570   -1.41581257808501   -2.57497216071972
C        -1.57685956825042   -2.57553870456004   -1.81525426547023
C        -2.33421839386044   -2.57983192525770   -0.59308178958894
C        -3.18251835746464   -1.41438167274425   -0.59633389476317
C        -0.98279716292525   -0.72154881999460   -3.29734447585876
C        -0.98279716292525    0.72154881999460   -3.29734447585876
C         0.36894965724989    1.17745707093257   -3.32949885902785
C         1.29228038292270    0.00000000000000   -3.50948326046035
C         0.36894965724989   -1.17745707093256   -3.32949885902785
Cl       -1.94229997356989    0.00000000000000    5.27694328415622
Cl        1.94235035560511    0.00000000000000   -5.27686384308113
62
 energy: -137.534904661621 gnorm: 0.013478619802 xtb: 6.4.1 (a3dbbd7)
C        -1.29777274630376   -0.00000000000000    3.53237198877267
C        -0.37510281271108   -1.17427879287327    3.32929774359178
C         0.97864012476241   -0.72140298399079    3.29478742258645
C         0.97864012476241    0.72140298399079    3.29478742258645
C        -0.37510281271108    1.17427879287327    3.32929774359178
C         2.33489446089771   -2.58107825633006    0.59264398996944
C         3.18185823375286   -1.41461986500941    0.59486436430736
C         2.94446990071537   -0.69449933030547    1.82061318705024
C         1.94906354659163   -1.41494745090356    2.57453555295408
C         1.57560010422337   -2.57572821692281    1.81564679197067
C         3.18185823375286    1.41461986500941    0.59486436430736
C         2.33489446089771    2.58107825633006    0.59264398996944
C         1.57560010422337    2.57572821692281    1.81564679197067
C         1.94906354659163    1.41494745090356    2.57453555295408
C         2.94446990071537    0.69449933030547    1.82061318705024
C        -0.36375413138619    3.43950391956471    0.58979644707352
C        -1.73806495719137    2.99896575307165    0.59479678517017
C        -1.97207537488269    2.28880226588304    1.81722945981971
C        -0.73587490355767    2.27287237797380    2.57702553702275
C         0.25009110244942    2.99282237528144    1.81544054510331
C        -3.40256724430436    0.71737444856133    0.58462551422344
C        -3.40256724430436   -0.71737444856133    0.58462551422344
C        -2.77566485965684   -1.14922639667866    1.81633114827436
C        -2.42367753582418   -0.00000000000000    2.57450502232084
C        -2.77566485965684    1.14922639667866    1.81633114827436
C        -1.73806495719137   -2.99896575307166    0.59479678517017
C        -0.36375413138619   -3.43950391956471    0.58979644707352
C         0.25009110244942   -2.99282237528144    1.81544054510331
C        -0.73587490355767   -2.27287237797380    2.57702553702275
C        -1.97207537488270   -2.28880226588304    1.81722945981971
C        -0.25009504392688   -2.99282840446511   -1.81544883632065
C         0.73587072234538   -2.27287569170330   -2.57703233556629
C         1.97206362142615   -2.28879017326976   -1.81722827747402
C         1.73805836195810   -2.99896330113959   -0.59479908225537
C         0.36375003967607   -3.43950441804585   -0.58980124359382
C         2.77567548243047   -1.14923167643248   -1.81633520551741
C         2.42366226749180    0.00000000000000   -2.57447943870143
C         2.77567548243047    1.14923167643249   -1.81633520551741
C         3.40257803479844    0.71737621619847   -0.58463103945711
C         3.40257803479844   -0.71737621619846   -0.58463103945711
C         1.97206362142614    2.28879017326975   -1.81722827747402
C         0.73587072234538    2.27287569170330   -2.57703233556629
C        -0.25009504392688    2.99282840446510   -1.81544883632065
C         0.36375003967607    3.43950441804584   -0.58980124359382
C         1.73805836195810    2.99896330113959   -0.59479908225537
C        -1.57560222839165    2.57573210493943   -1.81565238686205
C        -1.94906604547648    1.41494892139926   -2.57454206142650
C        -2.94446665300181    0.69450042642192   -1.82061912468600
C        -3.18185446994185    1.41462323318318   -0.59487059983546
C        -2.33490222258615    2.58108581850730   -0.59265160252348
C        -2.94446665300181   -0.69450042642192   -1.82061912468600
C        -1.94906604547649   -1.41494892139926   -2.57454206142650
C        -1.57560222839165   -2.57573210493943   -1.81565238686205
C        -2.33490222258615   -2.58108581850730   -0.59265160252348
C        -3.18185446994186   -1.41462323318318   -0.59487059983546
C        -0.97864385269168   -0.72140358566784   -3.29479598264090
C        -0.97864385269168    0.72140358566784   -3.29479598264090
C         0.37509639135754    1.17427947899085   -3.32929843564309
C         1.29776394022532   -0.00000000000000   -3.53234704817383
C         0.37509639135754   -1.17427947899085   -3.32929843564309
Cl       -1.94988849496066    0.00000000000000    5.28525063878181
Cl        1.94996191401507   -0.00000000000000   -5.28515771363029
62
 energy: -137.535147456805 gnorm: 0.007941385599 xtb: 6.4.1 (a3dbbd7)
C        -1.29962675197240   -0.00000000000000    3.54030335020560
C        -0.37607289495603   -1.17307259216467    3.32367083324078
C         0.97764365853422   -0.72142679071323    3.29139039203759
C         0.97764365853422    0.72142679071323    3.29139039203758
C        -0.37607289495603    1.17307259216466    3.32367083324078
C         2.33517975689549   -2.58184140821042    0.59232851697861
C         3.18145921756128   -1.41492967556063    0.59435821753834
C         2.94373200534206   -0.69459320738435    1.81934299323144
C         1.94853079259560   -1.41509206135550    2.57323070208243
C         1.57533213650605   -2.57673590558104    1.81532742621356
C         3.18145921756128    1.41492967556064    0.59435821753834
C         2.33517975689549    2.58184140821042    0.59232851697861
C         1.57533213650605    2.57673590558104    1.81532742621357
C         1.94853079259560    1.41509206135550    2.57323070208242
C         2.94373200534206    0.69459320738434    1.81934299323144
C        -0.36418686094004    3.44133198304803    0.58944056891408
C        -1.73880352557840    3.00100411610249    0.59464616025950
C        -1.97298236570290    2.29028058827361    1.81665723001673
C        -0.73621175142185    2.27347611796761    2.57533074607350
C         0.25005216575245    2.99335658413099    1.81482934626670
C        -3.40160404156762    0.71694562425795    0.58507778722741
C        -3.40160404156762   -0.71694562425795    0.58507778722741
C        -2.77478804163841   -1.14894465935121    1.81670209530357
C        -2.42086869990410   -0.00000000000000    2.57414172281527
C        -2.77478804163841    1.14894465935121    1.81670209530357
C        -1.73880352557841   -3.00100411610249    0.59464616025950
C        -0.36418686094004   -3.44133198304804    0.58944056891408
C         0.25005216575245   -2.99335658413099    1.81482934626670
C        -0.73621175142185   -2.27347611796761    2.57533074607350
C        -1.97298236570290   -2.29028058827361    1.81665723001673
C        -0.25005521258906   -2.99336051279896   -1.81483379388789
C         0.73620905172790   -2.27347717456684   -2.57533377071556
C         1.97297525469525   -2.29027487793221   -1.81665702433118
C         1.73879912379379   -3.00100290474656   -0.59464718645703
C         0.36418360779577   -3.44133314597152   -0.58944330122321
C         2.77479114433272   -1.14894605101889   -1.81670276577189
C         2.42086278595997   -0.00000000000000   -2.57413445378683
C         2.77479114433272    1.14894605101889   -1.81670276577189
C         3.40160942143016    0.71694635680532   -0.58507828406256
C         3.40160942143016   -0.71694635680532   -0.58507828406256
C         1.97297525469525    2.29027487793221   -1.81665702433117
C         0.73620905172790    2.27347717456685   -2.57533377071557
C        -0.25005521258906    2.99336051279896   -1.81483379388789
C         0.36418360779577    3.44133314597153   -0.58944330122321
C         1.73879912379379    3.00100290474656   -0.59464718645703
C        -1.57533395002117    2.57673816417030   -1.81532954306575
C        -1.94853270594806    1.41509208593590   -2.57323139834389
C        -2.94373153854616    0.69459365886476   -1.81934309747402
C        -3.18145848723040    1.41493154819085   -0.59435887542748
C        -2.33518369417554    2.58184438087152   -0.59233126355068
C        -2.94373153854617   -0.69459365886476   -1.81934309747402
C        -1.94853270594806   -1.41509208593590   -2.57323139834390
C        -1.57533395002117   -2.57673816417030   -1.81532954306575
C        -2.33518369417555   -2.58184438087152   -0.59233126355068
C        -3.18145848723039   -1.41493154819085   -0.59435887542748
C        -0.97764652491692   -0.72142687138401   -3.29139430078839
C        -0.97764652491692    0.72142687138401   -3.29139430078839
C         0.37606899690340    1.17307234562006   -3.32367369876173
C         1.29962841135608   -0.00000000000000   -3.54030627864810
C         0.37606899690340   -1.17307234562006   -3.32367369876173
Cl       -1.95048976361372    0.00000000000000    5.28202146382584
Cl        1.95054454090708   -0.00000000000000   -5.28197522745773
62
 energy: -137.535239292764 gnorm: 0.004336544660 xtb: 6.4.1 (a3dbbd7)
C        -1.29994802278917    0.00000000000000    3.54168033078130
C        -0.37528135185430   -1.17297787855062    3.31961709634688
C         0.97783959024055   -0.72149305576027    3.28957019708806
C         0.97783959024055    0.72149305576027    3.28957019708806
C        -0.37528135185430    1.17297787855062    3.31961709634688