62
 energy: -137.471557718924 gnorm: 0.171796729712 xtb: 6.4.1 (a3dbbd7)
C        -1.23626340000000    0.00000000000000    3.32997640000000
C        -0.38202640000000   -1.17575640000000    3.32997640000000
C         1.00015810000000   -0.72665740000000    3.32997640000000
C         1.00015810000000    0.72665740000000    3.32997640000000
C        -0.38202640000000    1.17575640000000    3.32997640000000
C         2.34433560000000   -2.60145750000000    0.59464210000000
C         3.19857260000000   -1.42570110000000    0.59464210000000
C         2.96246730000000   -0.69904370000000    1.83090550000000
C         1.96230920000000   -1.42570110000000    2.59495830000000
C         1.58028280000000   -2.60145750000000    1.83090550000000
C         3.19857260000000    1.42570110000000    0.59464210000000
C         2.34433560000000    2.60145750000000    0.59464210000000
C         1.58028280000000    2.60145750000000    1.83090550000000
C         1.96230920000000    1.42570110000000    2.59495830000000
C         2.96246730000000    0.69904370000000    1.83090550000000
C        -0.36750900000000    3.48258920000000    0.59464210000000
C        -1.74969350000000    3.03349030000000    0.59464210000000
C        -1.98579880000000    2.30683290000000    1.83090550000000
C        -0.74953540000000    2.30683290000000    2.59495830000000
C         0.25062270000000    3.03349030000000    1.83090550000000
C        -3.42570570000000    0.72665740000000    0.59464210000000
C        -3.42570570000000   -0.72665740000000    0.59464210000000
C        -2.80757400000000   -1.17575640000000    1.83090550000000
C        -2.42554760000000    0.00000000000000    2.59495830000000
C        -2.80757400000000    1.17575640000000    1.83090550000000
C        -1.74969350000000   -3.03349030000000    0.59464210000000
C        -0.36750900000000   -3.48258920000000    0.59464210000000
C         0.25062270000000   -3.03349030000000    1.83090550000000
C        -0.74953540000000   -2.30683290000000    2.59495830000000
C        -1.98579880000000   -2.30683290000000    1.83090550000000
C        -0.25062270000000   -3.03349030000000   -1.83090550000000
C         0.74953540000000   -2.30683290000000   -2.59495830000000
C         1.98579880000000   -2.30683290000000   -1.83090550000000
C         1.74969350000000   -3.03349030000000   -0.59464210000000
C         0.36750900000000   -3.48258920000000   -0.59464210000000
C         2.80757400000000   -1.17575640000000   -1.83090550000000
C         2.42554760000000    0.00000000000000   -2.59495830000000
C         2.80757400000000    1.17575640000000   -1.83090550000000
C         3.42570570000000    0.72665740000000   -0.59464210000000
C         3.42570570000000   -0.72665740000000   -0.59464210000000
C         1.98579880000000    2.30683290000000   -1.83090550000000
C         0.74953540000000    2.30683290000000   -2.59495830000000
C        -0.25062270000000    3.03349030000000   -1.83090550000000
C         0.36750900000000    3.48258920000000   -0.59464210000000
C         1.74969350000000    3.03349030000000   -0.59464210000000
C        -1.58028280000000    2.60145750000000   -1.83090550000000
C        -1.96230920000000    1.42570110000000   -2.59495830000000
C        -2.96246730000000    0.69904370000000   -1.83090550000000
C        -3.19857260000000    1.42570110000000   -0.59464210000000
C        -2.34433560000000    2.60145750000000   -0.59464210000000
C        -2.96246730000000   -0.69904370000000   -1.83090550000000
C        -1.96230920000000   -1.42570110000000   -2.59495830000000
C        -1.58028280000000   -2.60145750000000   -1.83090550000000
C        -2.34433560000000   -2.60145750000000   -0.59464210000000
C        -3.19857260000000   -1.42570110000000   -0.59464210000000
C        -1.00015810000000   -0.72665740000000   -3.32997640000000
C        -1.00015810000000    0.72665740000000   -3.32997640000000
C         0.38202640000000    1.17575640000000   -3.32997640000000
C         1.23626340000000    0.00000000000000   -3.32997640000000
C         0.38202640000000   -1.17575640000000   -3.32997640000000
Cl       -1.84886636902500    0.00000000000000    5.03315507598844
Cl       -1.49576432476586   -1.08673639121363   -5.03315507238288
62
 energy: -137.509220059362 gnorm: 0.108327297560 xtb: 6.4.1 (a3dbbd7)
C        -1.25216874510256   -0.00095439655575    3.35942476781793
C        -0.36565505233127   -1.18359790238454    3.32977516620914
C         0.99884028936946   -0.72630784986364    3.31484269779048
C         0.99891892539668    0.72296738977382    3.31534380736498
C        -0.36530649356979    1.18117974690887    3.32946679760251
C         2.33505560576482   -2.58768074127950    0.58923444993564
C         3.18517436991361   -1.41773256973785    0.58968564271228
C         2.95084614235161   -0.69691041343153    1.82007298402197
C         1.95823104642101   -1.42375283748469    2.58115534044321
C         1.57907018237414   -2.59008789848744    1.82110148053750
C         3.18563952372895    1.41841814629470    0.59215657232976
C         2.33631168549291    2.58871156783812    0.59333624975716
C         1.57984422289689    2.58853600091585    1.82446009535647
C         1.95958650343140    1.42076540332942    2.58355123321259
C         2.95084916921149    0.69489310211085    1.82147925827448
C        -0.36080185928306    3.46230553705593    0.59519278885660
C        -1.73740124519182    3.01602756244804    0.59328832042218
C        -1.97201491454167    2.29448553521224    1.81757090879334
C        -0.73559426458688    2.29190838686335    2.58204182821040
C         0.25587567028655    3.02092832499840    1.82560686488787
C        -3.42034079801144    0.72360073513445    0.57970788530779
C        -3.42653339795351   -0.72353945805990    0.58536995777534
C        -2.79734421836797   -1.16789570982231    1.80787052309993
C        -2.43352019381738    0.00000113203040    2.54758127131638
C        -2.79567507803993    1.16696792167478    1.80321167157396
C        -1.74175230588888   -3.01991947835839    0.60095529475563
C        -0.36361538621562   -3.46283035699756    0.59505109305657
C         0.25398209052697   -3.02206764277434    1.82316752899248
C        -0.73567319880777   -2.29394894034728    2.58311345867729
C        -1.97437735454317   -2.29507904098066    1.82263779377253
C        -0.24670513427288   -3.01761665949509   -1.81785332232906
C         0.75321699644572   -2.29035387722514   -2.58301860673063
C         1.98219890314522   -2.29243435081408   -1.82461130635472
C         1.74280031239302   -3.01378141607819   -0.59502768743470
C         0.36677089560674   -3.46256818529628   -0.59309159038839
C         2.79995139682583   -1.16551674186711   -1.82458719401008
C         2.42038413171171    0.00267405025841   -2.58355027387651
C         2.79560865948305    1.17214495675245   -1.82141835413106
C         3.41084701234572    0.72479304973326   -0.59203639537764
C         3.41121228817358   -0.72106150175275   -0.59325577162918
C         1.97707730411821    2.29769928798914   -1.82047355359646
C         0.74573759965019    2.30153878534208   -2.58086792368621
C        -0.24561256348327    3.02399848879178   -1.82116255607060
C         0.36870434413596    3.46453059877909   -0.58913077901859
C         1.74403207519264    3.01860544988236   -0.58993542201972
C        -1.57162128167523    2.59445406760881   -1.82295326512399
C        -1.94717085210075    1.42494822240325   -2.58361149784994
C        -2.94733567589024    0.69728036189222   -1.82226414366286
C        -3.18524043497992    1.42162214653321   -0.60096623711541
C        -2.33086148497897    2.59071574338261   -0.59506639290307
C        -2.94806385158691   -0.69833440399697   -1.80893071204218
C        -1.96502030096837   -1.43027184950978   -2.54714860976768
C        -1.57599205673802   -2.58979220785748   -1.80384757299127
C        -2.34144927486371   -2.59205131622131   -0.57966744010478
C        -3.19715532989418   -1.42575152974390   -0.58614711545541
C        -1.00716977811312   -0.73581487679823   -3.35824686855452
C        -0.99834532215312    0.74245265094673   -3.33125242511484
C         0.37711630394276    1.17344421723841   -3.31412437287165
C         1.23277320616695    0.00226737419667   -3.31497792705602
C         0.40244688690435   -1.17240126518344   -3.32994086718644
Cl       -1.89049166988695   -0.00100326068500    5.10434606691063
Cl       -1.52772491936062   -1.11054365644322   -5.10263361171583
62
 energy: -137.527350232535 gnorm: 0.079941674175 xtb: 6.4.1 (a3dbbd7)
C        -1.28698185242884   -0.00037656285518    3.47429889431646
C        -0.34354626569540   -1.18465414733704    3.28830149422891
C         0.99313118641539   -0.72189794802990    3.27803815306301
C         0.99324607285695    0.72037575468705    3.27820320167975
C        -0.34318182337258    1.18336802167141    3.28695670113659
C         2.32660489817310   -2.57364566077395    0.58603299280420
C         3.17247108745134   -1.40936517159987    0.58579816478685
C         2.94009569080500   -0.69306189706022    1.80692010343790
C         1.95542001062195   -1.42208908734023    2.56059950678763
C         1.57826130526942   -2.57803810243686    1.81019836202090
C         3.17346352753508    1.41251764802114    0.58871022166064
C         2.32886402024621    2.57677046446741    0.59018539583020
C         1.57895701261904    2.57752704578989    1.81259806594460
C         1.95828569466769    1.42048260169930    2.56367592425353
C         2.94040152393327    0.69316555698061    1.80925877188321
C        -0.35681856474798    3.44439721690159    0.59088698858434
C        -1.72809065083405    2.99727836007972    0.59227722077996
C        -1.96375644664937    2.28750647810045    1.80354717581588
C        -0.72195142090374    2.27541506683845    2.55147759586881
C         0.25870075757348    3.01042033789624    1.81100255410063
C        -3.41133019005833    0.71769827310808    0.57092588843043
C        -3.41640683761376   -0.71985844943685    0.57811735454308
C        -2.77777099154917   -1.15341532501049    1.79227125095743
C        -2.44010457140622   -0.00008993910412    2.51340535660228
C        -2.77566318452355    1.15059185482881    1.78173561987142
C        -1.73461231162955   -3.00471413120802    0.60510856879046
C        -0.36220668847566   -3.44710731718944    0.59472702527750
C         0.25524912071171   -3.01090666310848    1.80847902339953
C        -0.72134658416067   -2.27726009395930    2.55538915582080
C        -1.96690995876235   -2.28827563212077    1.81329061206694
C        -0.24426832469382   -3.00624353186375   -1.80366749351688
C         0.75390685077102   -2.26807296855251   -2.55210549601790
C         1.97823313232343   -2.28232979626493   -1.81039769720903
C         1.73561347163205   -2.99650716582901   -0.59078042192748
C         0.36357889450444   -3.44212292804278   -0.59242328344176
C         2.79276007404309   -1.15730285370540   -1.81294805781688
C         2.41920800245279    0.00229785802069   -2.56366027697638
C         2.78610989236584    1.16732709646814   -1.80898745683850
C         3.39755179501253    0.72234907272946   -0.58843840411777
C         3.39813861697543   -0.71576841880556   -0.59012874888665
C         1.97117444060454    2.28860213791518   -1.80726628956751
C         0.74534087852378    2.29901117291627   -2.56060746038149
C        -0.23885838602902    3.01390017498511   -1.81030284159996
C         0.36997318780771    3.44864137188996   -0.58589558821407
C         1.73845806320087    3.00447545958494   -0.58602418321487
C        -1.56356478986028    2.58624372605703   -1.80858544150628
C        -1.92439527567790    1.41935237373295   -2.55526878938461
C        -2.93698129337252    0.69580278574958   -1.81291549684418
C        -3.17000820121392    1.41254083609371   -0.60497315421355
C        -2.32025542538150    2.57806380538492   -0.59512126133632
C        -2.92414181697181   -0.69888866274807   -1.79322815162583
C        -1.97191883684016   -1.43436817212540   -2.51355716227026
C        -1.56978844366696   -2.56435381420382   -1.78198737450466
C        -2.33803572400370   -2.58324765498405   -0.57061515525124
C        -3.18653683616294   -1.42368029898109   -0.57877500746550
C        -1.03571473057079   -0.75702939155077   -3.47314901773863
C        -0.97989594492737    0.75596601728540   -3.28929026837967
C         0.37632955385704    1.16742557068708   -3.27782637045970
C         1.22673545851099    0.00155356135900   -3.27776648519900
C         0.42060978235824   -1.15983523718950   -3.28658117807086
Cl       -1.94448020573682    0.00006848043172    5.26919237408602
Cl       -1.57198211969352   -1.14336555015760   -5.26833570124690
62
 energy: -137.533672431327 gnorm: 0.038953099257 xtb: 6.4.1 (a3dbbd7)
C        -1.28581424179619    0.00004292002967    3.48380610697036
C        -0.35765969382337   -1.18146280084495    3.31928430202534
C         0.98927259208399   -0.72151960024647    3.29219832957397
C         0.98953953137449    0.72095558451012    3.29260977854470
C        -0.35704323966039    1.18079082175195    3.31767539327805
C         2.33093003751720   -2.57476682448914    0.58657422459888
C         3.17949495227381   -1.40964681222748    0.58625597666009
C         2.94433566250549   -0.69270085691724    1.81066258109889
C         1.95379183071381   -1.41784494579442    2.56658196921239
C         1.57888703434020   -2.57615974350715    1.81334792997920
C         3.18163229063799    1.41542771438954    0.59056354245418
C         2.33555923495593    2.58143275808647    0.59276038167695
C         1.58095999110424    2.57783703589347    1.81720893518371
C         1.95678776475140    1.41788090841399    2.57055204221839
C         2.94529246221541    0.69470848759237    1.81362447092461
C        -0.35535214486762    3.44489053960795    0.59277205528498
C        -1.72733160486422    2.99630608878836    0.59301398868453
C        -1.96450910540942    2.28712224601468    1.81137936629223
C        -0.72807800253979    2.27556736628557    2.56903062746213
C         0.25751068723589    3.00352869593082    1.81568140600215
C        -3.40781850005150    0.71854206310668    0.57664463915002
C        -3.41187724475874   -0.72005544322401    0.58317529223551
C        -2.78014349007610   -1.15420377661773    1.80772900273789
C        -2.43441429314187    0.00022184092756    2.54555099392114
C        -2.77615270112637    1.15149616881945    1.79642325359835
C        -1.73496395867337   -3.00253551438310    0.60534570630692
C        -0.36178863860261   -3.44507284776860    0.59591668073759
C         0.25355427140203   -3.00293853792415    1.81346165421477
C        -0.72858653103128   -2.27743364109461    2.57377983206161
C        -1.96969707545232   -2.28922999185795    1.82251308853872
C        -0.24510009357692   -3.00643394703193   -1.81156114939798
C         0.74902649126428   -2.27157762719633   -2.56958337188906
C         1.97334983950096   -2.27786930231012   -1.81506261105699
C         1.73722240620945   -2.99620950663257   -0.59258005620413
C         0.36362735203140   -3.44055394644771   -0.59304725339102
C         2.79441725222478   -1.15640091357717   -1.81743982036917
C         2.41636892584876    0.00337258881208   -2.57045531713088
C         2.79097024173482    1.16899477864136   -1.81347508367791
C         3.40589085301998    0.72481994220694   -0.59041911793108
C         3.40646435624339   -0.71565527527111   -0.59277149585306
C         1.97439918623480    2.29057589019966   -1.81095853016644
C         0.74614293838988    2.29448129034497   -2.56641485405281
C        -0.23749521022460    3.01260962482922   -1.81336802424876
C         0.37260927618236    3.45209102903018   -0.58644696299874
C         1.74378831610789    3.00873864328137   -0.58648547539912
C        -1.56058094486306    2.57896264742269   -1.81358542593216
C        -1.93029467271753    1.41530370790677   -2.57401479910834
C        -2.93996638015016    0.69514708482193   -1.82231268737848
C        -3.16933414803638    1.41078290141755   -0.60531118606401
C        -2.31877019591179    2.57657899918681   -0.59617138064590
C        -2.92657251179180   -0.69947029544628   -1.80865907430608
C        -1.96739793005675   -1.43120325954334   -2.54555825685433
C        -1.56951371289043   -2.56501766365643   -1.79670546109166
C        -2.33456690635920   -2.58179599357224   -0.57644870368488
C        -3.18312474717777   -1.42073905190520   -0.58386361692816
C        -1.03542252339422   -0.75661741948686   -3.48283936573505
C        -0.98839236804948    0.74516710920636   -3.32019083186089
C         0.37355804458130    1.16461757730376   -3.29174255719078
C         1.22388193621629   -0.00134037198276   -3.29195160873535
C         0.40737613762388   -1.16605754318711   -3.31720526522667
Cl       -1.94358406207736    0.00084657686567    5.26128158702804
Cl       -1.56992571716435   -1.14406456869545   -5.26077579054083
62
 energy: -137.535473497597 gnorm: 0.025015110914 xtb: 6.4.1 (a3dbbd7)
C        -1.28984789195751    0.00030069726176    3.50753873018053
C        -0.36606812740101   -1.17812904024151    3.32944354776367
C         0.98492276789313   -0.72056123574782    3.29472097386782
C         0.98509990958371    0.72134686991338    3.29478858604896
C        -0.36547596075568    1.17793551027298    3.32792616239725
C         2.33301214153337   -2.57527335954646    0.58696820390089
C         3.18306230663533   -1.41009258899534    0.58719621689862
C         2.94542755804415   -0.69206713347471    1.81211761491085
C         1.95193962043401   -1.41466998436862    2.56809855552625
C         1.57890548737079   -2.57474945869401    1.81472023288438
C         3.18611656505214    1.41758808987581    0.59116699709701
C         2.33917045442079    2.58447954190768    0.59299828849851
C         1.58159056165818    2.57828402198294    1.81793035393725
C         1.95462037345876    1.41655708173185    2.57140843856120
C         2.94676716297781    0.69613381136417    1.81478791440238
C        -0.35507565874617    3.44377464986924    0.59292882482453
C        -1.72733849947926    2.99514957586186    0.59303372757921
C        -1.96563754773716    2.28768075311308    1.81504111587240
C        -0.73119327657229    2.27411950182677    2.57518319725093
C         0.25645206532416    2.99845571722099    1.81631607471651
C        -3.40218961560230    0.71790793065945    0.58121745538654
C        -3.40341641921759   -0.71906858919647    0.58600910051690
C        -2.77748975897118   -1.15294301857137    1.81710435576652
C        -2.42757458680876   -0.00011295731588    2.56439777173179
C        -2.77335528866113    1.14990486864520    1.80604684166228
C        -1.73506152715139   -3.00056591415250    0.60439414090525
C        -0.36178504453732   -3.44256398575805    0.59638980181229
C         0.25277922749685   -2.99718033114092    1.81520107561622
C        -0.73202631267529   -2.27610594536750    2.58055662486036
C        -1.97149816935567   -2.29150058617981    1.82608694659698
C        -0.24571541386048   -3.00706243537490   -1.81518561973026
C         0.74539595827490   -2.27130896278130   -2.57549062693641
C         1.96964785522856   -2.27479510315721   -1.81591413178313
C         1.73686862065889   -2.99505776246106   -0.59276070448600
C         0.36298216246500   -3.43917986920215   -0.59306639294921
C         2.79503612183142   -1.15640896726165   -1.81808335235231
C         2.41379495259817    0.00303459003186   -2.57127623225426
C         2.79309692140999    1.16876289097204   -1.81471507196103
C         3.41084983952766    0.72573409910900   -0.59110649431646
C         3.41133691396607   -0.71604314112862   -0.59305131154654
C         1.97557393171455    2.29067418906028   -1.81226376010599
C         0.74670446345561    2.29108121703051   -2.56790411912259
C        -0.23657606340972    3.01131576906413   -1.81466711425579
C         0.37383845502812    3.45407761451377   -0.58687545273076
C         1.74627769641542    3.01127979093175   -0.58735986539112
C        -1.55778592253356    2.57379379063247   -1.81535395807831
C        -1.93164651423382    1.41192593623208   -2.58086554489385
C        -2.94268755540707    0.69575493737068   -1.82601632034907
C        -3.16813217258576    1.40872050646908   -0.60437242131042
C        -2.31702022880576    2.57387515342012   -0.59656464768746
C        -2.92407122977227   -0.69912795227496   -1.81775078600851
C        -1.96305455020054   -1.42690777204263   -2.56451719867972
C        -1.56809354728547   -2.56136129268421   -1.80619589576055
C        -2.33040850512768   -2.57877853304764   -0.58105021885162
C        -3.17582648955534   -1.41717393724179   -0.58646880905482
C        -1.04033350012015   -0.75901844338938   -3.50696040546289
C        -0.99151060202521    0.73766057968785   -3.33003157633016
C         0.37140921681741    1.16141964590287   -3.29424310263153
C         1.22047247369558   -0.00436750109387   -3.29407970794177
C         0.39781670284556   -1.16827376887711   -3.32726563885298
Cl       -1.94626151446912    0.00147315056908    5.27245772315156
Cl       -1.57144168658529   -1.14648930294895   -5.27271910970477
62
 energy: -137.536423201861 gnorm: 0.015188113899 xtb: 6.4.1 (a3dbbd7)
C        -1.29427771574174    0.00054306099024    3.53049674241181
C        -0.37150567450414   -1.17501487115348    3.32752339470417
C         0.98148712117246   -0.71982342780379    3.29159545183666
C         0.98151344225148    0.72168800351018    3.29138762916853
C        -0.37093830107541    1.17520227240232    3.32610726721344
C         2.33472614659384   -2.57699657759905    0.58732669221373
C         3.18513098472640   -1.41127345749961    0.58811141250230
C         2.94571381571553   -0.69189364568591    1.81262712685462
C         1.95081231320053   -1.41307084797802    2.56767784308936
C         1.57885553586702   -2.57533668103232    1.81528310922638
C         3.18858731696524    1.41929549015820    0.59117332028793
C         2.34117769445263    2.58695017463969    0.59226095882768
C         1.58148617218141    2.57967315574736    1.81701696572806
C         1.95294987414183    1.41621281721857    2.56978980576426
C         2.94724496096501    0.69720014032937    1.81466893045667
C        -0.35606196759421    3.44434807809687    0.59221156176625
C        -1.72903762656156    2.99673321805313    0.59252995265390
C        -1.96782149344364    2.28975396242920    1.81634770376358
C        -0.73332063422078    2.27395400615927    2.57576216907799
C         0.25543422039556    2.99634826004415    1.81512394192383
C        -3.39796033362424    0.71722487726125    0.58467042112518
C        -3.39633221113954   -0.71784844914511    0.58757910733600
C        -2.77380949741134   -1.15141932416129    1.82223869026529
C        -2.42091102706462   -0.00051561533349    2.57506045469679
C        -2.77094036113011    1.14865736561354    1.81230538558292
C        -1.73577648351325   -3.00134049935125    0.60308067893967
C        -0.36220054371376   -3.44295631642203    0.59655484309550
C         0.25263395997128   -2.99501867557915    1.81569392525666
C        -0.73394331476056   -2.27603509724561    2.58169464776911
C        -1.97324237502889   -2.29484583072690    1.82632146459826
C        -0.24627454194574   -3.00933968979485   -1.81639322275515
C         0.74328149912132   -2.27120657223685   -2.57578665512821
C         1.96774000794996   -2.27402206179371   -1.81500696444232
C         1.73645426669831   -2.99592963670841   -0.59212439004640
C         0.36256416004617   -3.44092040473683   -0.59254051230592
C         2.79563639247376   -1.15753706467153   -1.81707983098722
C         2.41225459491679    0.00219351920009   -2.56969593112976
C         2.79419691358884    1.16826634610308   -1.81468865952898
C         3.41389314961022    0.72588572364758   -0.59120904719849
C         3.41457328376111   -0.71685478362339   -0.59234244035457
C         1.97608858687338    2.29089836228065   -1.81264999095991
C         0.74724218152997    2.28961434790494   -2.56757837531776
C        -0.23668853826580    3.01159354294484   -1.81520743809000
C         0.37409720459976    3.45698043118858   -0.58729816138985
C         1.74720353660976    3.01369579227352   -0.58819772237967
C        -1.55634733255524    2.57173106864966   -1.81579902647574
C        -1.93216892165901    1.41026013721976   -2.58190916754772
C        -2.94573361551048    0.69704324221060   -1.82632705167600
C        -3.16876674976872    1.40823465478661   -0.60304486956336
C        -2.31706215588930    2.57295913889549   -0.59660051813735
C        -2.92071893035626   -0.69859178420739   -1.82243957307972
C        -1.95899192982886   -1.42263921425424   -2.57524942015377
C        -1.56674807047459   -2.55812497062433   -1.81230405163737
C        -2.32743300577410   -2.57692670320739   -0.58455590111543
C        -3.16954622208925   -1.41497721215974   -0.58768216520781
C        -1.04593892705764   -0.76149264797447   -3.53029211278008
C        -0.99199958529210    0.73214947838684   -3.32772899525293
C         0.37025224114933    1.15910624449867   -3.29132133321649
C         1.21788358821912   -0.00686021429237   -3.29086943886890
C         0.39062635310665   -1.16874796245680   -3.32544688173640
Cl       -1.94425493834838    0.00237005115720    5.28077663683394
Cl       -1.56961918730228   -1.14594311575576   -5.28162838290163
62
 energy: -137.536725760353 gnorm: 0.008748005182 xtb: 6.4.1 (a3dbbd7)
C        -1.29605374044530    0.00063735806850    3.53935910178469
C        -0.37239068345736   -1.17383483217811    3.32108600984065
C         0.98051209958512   -0.71970353791058    3.28797244360196
C         0.98042188571377    0.72180284410815    3.28763583438128
C        -0.37180581091635    1.17409311696784    3.31951444161177
C         2.33515810480019   -2.57819555129014    0.58746304740939
C         3.18515979185910   -1.41201006933773    0.58840771978801
C         2.94538870252075   -0.69205481863985    1.81244515039793
C         1.95060897691380   -1.41323743188754    2.56672332878055
C         1.57870738730858   -2.57660872659025    1.81515423560815
C         3.18849680527896    1.41965826419778    0.59093260655276
C         2.34112059242912    2.58752755575222    0.59163510502375
C         1.58097789329638    2.58066170775210    1.81598780142411
C         1.95243311946723    1.41653932557663    2.56813947198892
C         2.94695685419013    0.69742934987897    1.81414227535513
C        -0.35712846895615    3.44558419856260    0.59156458614002
C        -1.73063569694058    2.99875304188698    0.59217557758091
C        -1.96938961962642    2.29121647480874    1.81590090712645
C        -0.73389471005092    2.27486093806257    2.57388500566716
C         0.25495476627982    2.99698107125660    1.81387168154464
C        -3.39724603098762    0.71695226544888    0.58542987723655
C        -3.39447191259889   -0.71727934114489    0.58763188713599
C        -2.77202509641166   -1.15064135038498    1.82226212868090
C        -2.41860327023213   -0.00074176319801    2.57542212999946
C        -2.77048416292230    1.14839135547592    1.81312002562135
C        -1.73639666973422   -3.00300176241790    0.60259970967710
C        -0.36263816592377   -3.44478835894374    0.59650543720617
C         0.25277369607868   -2.99596438129272    1.81537179947381
C        -0.73413754470491   -2.27694535447765    2.58008896915641
C        -1.97399458079724   -2.29651787532352    1.82499104920352
C        -0.24663485341507   -3.01108641652670   -1.81587987897788
C         0.74327245024562   -2.27164163386084   -2.57381176653357
C         1.96782420070530   -2.27488409289752   -1.81390599982465
C         1.73632194094640   -2.99744976506501   -0.59155405658463
C         0.36246187872203   -3.44320009819549   -0.59215845838114
C         2.79580402625454   -1.15855138826642   -1.81600109514825
C         2.41211252842892    0.00157117185344   -2.56814126074156
C         2.79411287299371    1.16796070305188   -1.81420409559882
C         3.41402561550617    0.72561386046561   -0.59100389416515
C         3.41493302882225   -0.71731188090317   -0.59169999436357
C         1.97598330225889    2.29107179743251   -1.81244079549477
C         0.74736004518411    2.28992982685046   -2.56672064858344
C        -0.23732639333315    3.01245724512859   -1.81511590741398
C         0.37372598156584    3.45846025544061   -0.58748133317535
C         1.74684335455970    3.01451225848183   -0.58844430037610
C        -1.55653202128101    2.57238149808993   -1.81539682738033
C        -1.93227157070198    1.41056897842492   -2.58015864878894
C        -2.94699493317347    0.69766411811930   -1.82500251389567
C        -3.16992279740753    1.40881183539182   -0.60256223167690
C        -2.31814329336102    2.57364027417097   -0.59646947445193
C        -2.91907113735346   -0.69844989852689   -1.82219399070032
C        -1.95758551758354   -1.42105009673548   -2.57552359553722
C        -1.56643211097956   -2.55733257471943   -1.81307545765058
C        -2.32703161503036   -2.57696402785411   -0.58538050298231
C        -3.16781178399572   -1.41495372016605   -0.58753906877343
C        -1.04837136718804   -0.76235031449762   -3.53924322009403
C        -0.99098868379103    0.73080232801985   -3.32108889094689
C         0.37023798568489    1.15861199127406   -3.28790794069439
C         1.21730051714976   -0.00766192531664   -3.28747263442970
C         0.38887527501052   -1.16818525703905   -3.31912011041505
Cl       -1.93811198138212    0.00319523729627    5.27870316306564
Cl       -1.56497014886828   -1.14248039292216   -5.27942391067899
62
 energy: -137.536830955786 gnorm: 0.004281161139 xtb: 6.4.1 (a3dbbd7)
C        -1.29644431550064    0.00065816177812    3.54086110335576
C        -0.37161542834407   -1.17380588538702    3.31705407166673
C         0.98061638598385   -0.71982891818679    3.28626159162589
C         0.98051156405516    0.72179792402279    3.28590329067671
C        -0.37097525835128    1.17399427212980    3.31522216152225