156
 energy: -517.827324501428 gnorm: 0.643265252644 xtb: 6.4.1 (a3dbbd7)
C        -1.24874473908084    0.03364273507825    3.45834462986660
C        -0.39797807146874   -1.21705805992251    3.46644843543005
C         1.03088429089855   -0.70795740181210    3.46058381724064
C         0.98317241949800    0.76591273259820    3.25676441454914
C        -0.34693684973306    1.19463218176841    3.27044757941516
C         2.28476159000809   -2.54977671308066    0.54059494923359
C         3.31062084515608   -1.48474888883694    0.62900401779766
C         2.93141530377433   -0.64952933087040    1.78604219870809
C         2.06639203786624   -1.46401815446112    2.66153362709522
C         1.63032772861016   -2.68040870908553    1.86528913129305
C         3.19501333345244    1.44429673295400    0.59195645540641
C         2.33988990955309    2.55109108076280    0.56538670013128
C         1.67760184920914    2.67187014754405    1.89275286887863
C         1.96302188078744    1.38809341025681    2.57276929241781
C         2.94269957053574    0.69573694199908    1.80115532954871
C        -0.39378587947385    3.60455268064594    0.59950103424396
C        -1.74212470008796    2.97426077953031    0.58431779587366
C        -1.92585724457685    2.31017446120812    1.79082654419102
C        -0.77017997705671    2.25963189114512    2.54438950030377
C         0.23906517734067    3.14129962922677    1.90382252062895
C        -3.36711816386275    0.67406621010012    0.58883598055372
C        -3.35676122541396   -0.67529171201813    0.61386221624422
C        -2.79766023608001   -1.17758774800135    1.78479280553990
C        -2.52659799719256   -0.01230392522846    2.66410898758326
C        -2.90063752551268    1.22357371263384    1.86909313745943
C        -1.72990663788746   -2.96818665562944    0.61979053661370
C        -0.39655405096274   -3.59184061009284    0.63081648925041
C         0.22968816986736   -2.97947322346253    1.78958441520621
C        -0.79502903040947   -2.40087209671840    2.63967676817798
C        -1.97427329316968   -2.26914230363797    1.75190743444365
C        -0.24526575722669   -2.95454679144178   -1.83048554400235
C         0.72160003942937   -2.29157027585604   -2.60123722178828
C         2.03675613925804   -2.37841710675987   -1.90764350511642
C         1.72452665102711   -2.95547143013973   -0.57184719872155
C         0.39853357390998   -3.60772852708182   -0.65408367083927
C         2.76463987390531   -1.12436509058222   -1.83606864453305
C         2.40782913738542   -0.01086930359381   -2.55919093490073
C         2.80071309418820    1.12429731130466   -1.78572589048520
C         3.37227057059715    0.75325922995691   -0.60588203294811
C         3.53975764359202   -0.72534137296291   -0.65187934307934
C         2.06604213966685    2.38492773051097   -1.87432259449819
C         0.76799911954318    2.40393953872561   -2.67125818293643
C        -0.25271552138493    3.01465033341302   -1.77276026859008
C         0.38276550589526    3.40890668634342   -0.62577766465626
C         1.71640736311159    2.99891964248233   -0.56113881751644
C        -1.57744861738656    2.58048893117262   -1.81353438860300
C        -1.91218562047472    1.44890667087551   -2.57770444985414
C        -3.03346135973384    0.72930772231476   -1.90601497851981
C        -3.30590014699321    1.49213874381484   -0.61392040976039
C        -2.29887714457593    2.59200164400931   -0.59578318584418
C        -2.90171812458332   -0.69960626391217   -1.80433528193843
C        -2.01482475678623   -1.47589139945810   -2.66673866434645
C        -1.52437494081901   -2.57739855783557   -1.81013284257697
C        -2.41183269363899   -2.70442158664801   -0.62914220101780
C        -3.30186077589904   -1.45519463507553   -0.62726221899511
C        -0.95622652573952   -0.68235235526568   -3.31556709788587
C        -1.00101736151507    0.68899253808539   -3.27145786805213
C         0.39309237180692    1.17253286766065   -3.45657327489574
C         1.24121102319639   -0.04091237140883   -3.30937049277354
C         0.38770335718806   -1.15430411422388   -3.31137671564523
C        -1.72349098568908    0.21423252843989    4.91194680845578
F        -0.83220565540699    0.62449663446903    5.87244547594947
F        -2.46836886398408   -0.59119602387928    5.53232294738435
F        -2.25347678850884    1.40621563045106    5.18531732693438
C        -0.59823307821203   -1.79648847191689    4.89302591880520
F        -0.37183880658974   -1.13040232291290    5.93532735562663
F        -1.69704728767104   -2.22843840179210    5.48164645916288
F         0.00720296785940   -2.81839343334301    5.47060886634184
C         1.51734412750223   -0.83806852051801    4.91391582348965
F         1.00966565182191    0.02959333199941    5.87875724134026
F         1.56666140602383   -1.92150266654987    5.55700404680051
F         2.60451890452726   -0.19668130625057    5.24929206343847
C         4.67060076997060   -2.12248738580555    0.91734947784498
F         4.85095043679615   -2.88865306497003    1.89623147285185
F         4.92010375964541   -3.16159494154437    0.11618693930499
F         5.54053222074945   -1.24238474079272    1.39776502083037
C         3.02492437135779   -1.99582059554465    3.75345756018545
F         4.18947551420567   -2.61222423538156    3.55700710114082
F         3.81834999670047   -1.10182058998821    4.30436492806337
F         2.70875362575176   -2.95676217494197    4.54758989813600
C         2.24317941305150   -3.90933937204317    2.57431638237242
F         3.49756230783151   -4.04227174783890    2.64209753863198
F         2.13194182296801   -5.01422455492740    1.90281959839956
F         1.68550213294558   -4.23694710886280    3.68446776081294
C         2.48131475415281    3.72679957093862    2.64756181004055
F         3.76331646523897    3.39907702181210    2.69565180696972
F         2.63548673533771    4.83890474447373    1.93739404333593
F         2.30214849929602    3.70607272861252    3.94302931534460
C        -0.58849067898813    5.10382853061762    0.71535034451278
F        -1.49336827254170    5.44859517143449    1.56601514292302
F        -1.22508075832265    5.60956513290292   -0.32360955808306
F         0.57461957928718    5.73826499504963    0.63162066045195
C         0.25024727838260    4.36226341541510    2.80877287063958
F        -0.99333377076172    4.88560167746298    3.23380298333651
F         0.84571554170214    5.44449177218564    2.48959225210976
F         0.45521208993057    4.17292326025657    4.06870382748628
C        -3.60754018896779   -0.15466000479481    3.72465118082059
F        -4.96409806109789   -0.47778354832752    3.27974037336398
F        -3.70944663085342   -1.32857810562290    4.26562227942009
F        -3.95479870891830    0.73868774284881    4.55442072817181
C        -4.09729460378108    1.84249395797457    2.59698648385491
F        -5.17960265627353    1.14611342012852    2.48079547477145
F        -4.58728256522448    2.90537433862839    2.05873938068999
F        -3.73210095331443    2.42302108563619    3.72719340459940
C        -0.61210603825234   -5.09561063992874    0.94271935970626
F        -1.35121706553922   -5.42845982169450    1.91854923492851
F        -1.42515889838917   -5.76589861601573    0.19812282663891
F         0.40314726340153   -5.74018135975979    1.38691243931298
C        -1.19439074079616   -3.47108527888737    3.69571221665857
F        -1.67610335949159   -4.59529664686280    3.40168247427385
F        -0.13168981123541   -4.08238618803610    4.19782220153662
F        -2.45999684522380   -3.20130487812928    4.14896407451685
C         2.92460776536654   -3.32070605607369   -2.70174821272804
F         2.44172045640894   -4.44698698859347   -3.00882583464966
F         3.14999245385638   -2.81537037994394   -3.90191163711416
F         4.01735075167601   -3.61282063228659   -2.05800251794116
C         0.58560327442809   -5.08453929082870   -0.98009771716834
F         1.16457030052303   -5.38487705476821   -2.08557337920240
F        -0.50682965223756   -5.67000709815345   -1.44380616813894
F         1.49399313343479   -5.65939096246334   -0.22882100916307
C         5.01038465150632   -0.93528363292691   -1.02326694841798
F         5.30629275353743   -0.30869737040358   -2.15964108997312
F         5.34107525351533   -2.10944953358498   -1.43160196941059
F         5.85396204392269   -0.30880820351069   -0.26549635835259
C         3.02491432380565    3.33083477466234   -2.57676635302949
F         2.69478773735307    4.57108396633303   -2.48831027970058
F         3.46166088509885    2.80777072316597   -3.71672127357961
F         4.15782310032221    3.48037915910352   -1.91764529826204
C         0.95449756396970    3.47480006614259   -3.73091956279353
F         1.07717316765779    4.84039860752082   -3.29721891649079
F         1.89863315096864    3.44634977828280   -4.58739382181700
F        -0.09322065542251    3.91661153979954   -4.33850837220358
C        -4.27565771531749    0.98146808786662   -2.78482745984942
F        -4.38702431356602    2.20792515762954   -3.22897584916295
F        -4.18629118258076    0.47654165708605   -3.97630171471063
F        -5.36033910482365    0.40775268135834   -2.37842737796751
C        -4.66819225714456    2.14617049429562   -0.77457327908451
F        -4.69906997096453    3.13024113033520   -1.65458833803769
F        -5.65131775312635    1.27578489277418   -0.71965381835048
F        -5.00606362713913    2.93402639210098    0.18673763813134
C        -2.80490966671293   -2.07019760956654   -3.83682204975481
F        -3.81985249951825   -2.77446640965369   -3.53302243939258
F        -3.29243669173229   -1.16747000971530   -4.62286491253186
F        -2.04116610707124   -2.87674465966796   -4.54296926558234
C        -3.33790053347085   -3.89099271636266   -0.84144546874889
F        -3.95217861450869   -4.00169050169352   -1.97076411044574
F        -2.70434175853606   -5.00687937240267   -1.03774935519602
F        -4.08907392680695   -4.15456152175786    0.19497011269469
C        -4.73676721289441   -1.96638286139643   -0.81778125849585
F        -5.04414432502739   -2.47797144141906   -1.96124620531877
F        -5.61767186440740   -1.00258421186870   -0.87354593909977
F        -5.20540164491664   -2.62539667496649    0.20591236467583
C         0.51660117895385    1.54403362550234   -4.93577529495805
F         0.18917241634746    0.52662921393207   -5.71749603068847
F        -0.42565579270154    2.34054793607473   -5.37739728977414
F         1.78792606274732    1.62464193498356   -5.31768533697553
