156
 energy: -518.142752145286 gnorm: 0.551755545015 xtb: 6.4.1 (a3dbbd7)
C        -1.28276314534806    0.01855344082418    3.45068022101146
C        -0.39802145054728   -1.22393284423957    3.49020305416676
C         1.03791569845474   -0.71923235914253    3.47497237206609
C         0.96967755591802    0.75219709536537    3.24893009310638
C        -0.37789047093243    1.18809221595218    3.27456344785175
C         2.41195357455324   -2.72307925812862    0.61128002605489
C         3.30895337107131   -1.47667276886369    0.60864848377366
C         2.90220122834363   -0.70966190571339    1.77862635624932
C         2.04494429860652   -1.49590500978023    2.65682439677417
C         1.51671625692991   -2.57413587296718    1.78294610396835
C         3.31853988537994    1.50216757982375    0.62064275140205
C         2.26668790671314    2.54107472559759    0.55492921755452
C         1.67069969959279    2.68492043793918    1.90259977008389
C         1.90575870495089    1.39025156388256    2.56295384994559
C         3.04132604690082    0.72026051792611    1.90010616361895
C        -0.41217126046606    3.62413123895823    0.62599429432080
C        -1.74947979779124    2.96770345209218    0.61298257552284
C        -1.93046494808835    2.29548573502573    1.77806093218720
C        -0.76309383664001    2.25096168718925    2.55720903143034
C         0.23265842232757    3.15587147565373    1.92386105765422
C        -3.56533908339419    0.72967155712735    0.62749342836171
C        -3.35954957764851   -0.74651674856139    0.57850446324745
C        -2.77913422458981   -1.15476548915972    1.82550800164692
C        -2.40419852453352   -0.05024235063600    2.51437397302068
C        -2.89995906384410    1.20585841864181    1.90664213101808
C        -1.69871800934380   -2.99166867953396    0.62872682712423
C        -0.35919052749683   -3.47212064289918    0.56777060116862
C         0.26574694510194   -3.00131305542740    1.76874177450066
C        -0.78629568165852   -2.42700667575211    2.65909897471140
C        -1.96671308108153   -2.30364406676458    1.76726547605460
C        -0.19306241756696   -3.00103806626072   -1.82930929117519
C         0.74692978609218   -2.32521206183221   -2.57534542646223
C         1.98190755952699   -2.33854384117044   -1.81393812885357
C         1.71586030407364   -3.00670777633103   -0.64810268571980
C         0.36217012797817   -3.45932568243425   -0.60937196526207
C         2.80430935740579   -1.17871112169634   -1.80787032071246
C         2.42266053627142    0.00366069260963   -2.57317820632467
C         2.74221375136561    1.10524915532667   -1.85179434167864
C         3.53056225238183    0.72373297087796   -0.65744905246910
C         3.34457860712075   -0.74345254429861   -0.64914669255788
C         2.04780385751598    2.39270527008389   -1.90388535961718
C         0.70384811015933    2.28813538021107   -2.52468129739540
C        -0.22778079332288    2.95997686248646   -1.83528622925310
C         0.40036467338341    3.61340356039281   -0.65284468994448
C         1.72559153201273    2.95245990970350   -0.56491707103798
C        -1.57514199708537    2.59982272735084   -1.77719407880565
C        -2.01258287797338    1.47332977082538   -2.65336914152693
C        -2.92499692388642    0.71116514353382   -1.81095821324177
C        -3.29845729334291    1.50209918782292   -0.64819888803807
C        -2.27802956826115    2.58777017362858   -0.61277571034082
C        -3.03242668480856   -0.72741882257780   -1.87040170916611
C        -1.93850352805983   -1.41995882629260   -2.54568981533930
C        -1.63152226885762   -2.69454546846082   -1.90846454428281
C        -2.44118495187548   -2.70141628761724   -0.60531739497824
C        -3.14203180020255   -1.39257215420030   -0.55057180785925
C        -1.00490652662879   -0.73798157117878   -3.41110075008760
C        -0.96686818513241    0.71364822325082   -3.29703362256984
C         0.40252465676715    1.19596812386403   -3.45537109515860
C         1.22773994678993   -0.05128456638818   -3.30836657204000
C         0.43159909416210   -1.15650540829108   -3.28746990326028
C        -1.89249858552431    0.13885863653759    4.86205942098501
F        -1.00002154417500    0.60159730171020    5.74544449002891
F        -2.88457980415670   -0.75326178116079    4.97757734469522
F        -2.60233090704097    1.18582189509474    5.06767384597309
C        -0.57888529313540   -1.77016520071672    4.94677732177331
F        -0.39738391699256   -1.14960670468450    6.10183916805388
F        -1.73756168310250   -2.12141373470519    5.41360520066436
F         0.00922340591630   -2.80615369243122    5.45279491824469
C         1.52070973692219   -0.81970943292717    4.93715131697038
F         0.97251337788032    0.04948239890887    5.80276606212117
F         1.65038997756057   -1.94078404627249    5.53488922417823
F         2.63039247425457   -0.21155397182299    5.24296304921986
C         3.30680523518134   -3.93110404475833    0.81305804280904
F         3.94601399001606   -4.09054783436816    1.90614364247760
F         4.07926970898169   -4.17675665309619   -0.21359123098217
F         2.58353249433064   -5.04085104554458    0.92964385187109
C         4.74519307420971   -1.99099299300354    0.81346167095576
F         5.07103740041650   -2.55316278100560    1.92014636463590
F         5.21133453779984   -2.63024790664247   -0.23220849046822
F         5.65015291346486   -1.08640729677068    0.94683319666280
C         2.93939413541226   -2.18549143151027    3.73640160087894
F         3.93107076470740   -2.91400401165624    3.40619433107918
F         3.77226864150599   -1.41810930559077    4.38115481032892
F         2.29280088337897   -3.24030285778198    4.24020750287431
C         4.64695507909310    2.27051899530092    0.84251085378804
F         4.90745310671872    3.16479195921393    1.75169373489050
F         4.85281336574119    3.24042413046609   -0.02451276773358
F         5.73933550258940    1.62857466808649    1.09167670472382
C         2.41401499959854    3.78258008574948    2.68224702297086
F         3.64287169964883    3.73658942438067    2.94013706075219
F         2.59159528580111    4.84583909352821    1.85801943752241
F         2.20980599044990    3.67214542780183    4.00794848780410
C         4.29384036902762    0.91648236349094    2.79503285352177
F         4.59021427007474    2.07464585750497    3.22734722259209
F         5.33687985121541    0.27253423810225    2.38390493791439
F         4.15018476363543    0.46485936761187    3.99736139185503
C        -0.76166985898569    5.10135194113773    0.84248260267042
F        -1.69806048151537    5.39788723118635    1.76477361771785
F        -1.64178719138962    5.63091771071068    0.01430952624513
F         0.11726687311113    6.01083406986926    1.01157118347367
C         0.24059421373241    4.37047745058786    2.85769492979604
F        -0.95197862538259    4.84137882650399    3.27607235237815
F         0.89991504993029    5.43646790689195    2.62352121457703
F         0.41297644346490    4.13598515793271    4.14297084371749
C        -5.06454323597084    0.86349982150927    0.85774425530746
F        -5.67558894571889    0.01940353369317    1.86417393532216
F        -5.84882938300276    0.23576192647031    0.05511337607584
F        -5.62287494539349    1.96890149393022    1.16215587102507
C        -4.01663153523109    1.79047759757148    2.78185352696730
F        -4.79620048252728    0.88028825163770    3.25217940235257
F        -4.44677081258398    2.95002061181869    2.29439716378751
F        -3.65366249129409    2.26972573519634    3.92175595007382
C        -1.15451615094480   -3.55472212943233    3.63215480438692
F        -1.52687533584664   -4.65198473091245    3.01131846123627
F        -0.02392391048553   -4.10796761618107    4.11287713748766
F        -2.39359287338532   -3.34864188498948    4.16254987607432
C         5.01482041521759    0.92838940557032   -1.06158775993141
F         5.28860829484613    0.28741475438056   -2.19487135050988
F         5.35185972659810    2.09946204590863   -1.47568220224143
F         5.90298220977867    0.33589571658979   -0.34696792980841
C         2.93847629366943    3.33007348526595   -2.69395252399075
F         2.45046473643098    4.45315098853117   -3.02996903286443
F         3.26165225174765    2.84106014823499   -3.85785704058876
F         4.02073244835020    3.63162591393754   -2.04246321257011
C         0.61188330344140    5.08823127394753   -0.99920373359737
F         1.17316566466495    5.40111289337185   -2.10532413209992
F        -0.49639115127000    5.67990406243802   -1.46313846197739
F         1.58511970342047    5.58624940182886   -0.22633221239171
C        -2.82090102127280    2.09368922996145   -3.82308503591286
F        -3.75708999150996    2.89211367110280   -3.52345339727350
F        -2.10786099872167    2.89920602965869   -4.55134837383866
F        -3.37380777880338    1.21626992272642   -4.58545447329126
C        -4.64209326477537    2.19986671373711   -0.94654243070610
F        -4.69926658417556    2.99833649731902   -1.94754365389689
F        -5.58391737390191    1.42204433955385   -1.42836326137574
F        -4.87477639269816    3.24640519087915   -0.11972641234614
C        -4.34444278794378   -0.98058583679696   -2.66536231512526
F        -4.67282087016318   -2.19207326601707   -2.88869016443749
F        -4.32589645800397   -0.48970684645187   -3.85789742857647
F        -5.38904718175122   -0.54876653248744   -2.03043934649704
C        -2.18942331819273   -3.82858094259441   -2.76702844780334
F        -3.39468656701804   -3.70298694872303   -3.21754402693454
F        -1.60547478903486   -3.94208042414316   -3.92896673421980
F        -1.92974125143958   -5.02165795597309   -2.29327547316630
C        -3.47348239473039   -3.80849354995051   -0.70346004898898
F        -4.40011008177515   -3.70189342609752   -1.59351694317867
F        -2.94384264632318   -5.00410649946992   -0.66927772096963
F        -4.28227781359122   -3.80789431326541    0.34842447296105
C        -1.45885259903781   -1.09580112067503   -4.85517100117064
F        -0.71505261496756   -0.65387976566146   -5.79954419140343
F        -2.64969821857932   -0.68641169410046   -5.13137400353046
F        -1.40069379229351   -2.35869017343271   -5.11045862388094
C         0.59854012085272    1.74939286441026   -4.85564114190785
F         0.39378073465753    0.90866389009283   -5.80264437867507
F        -0.14623297266087    2.79016644191923   -5.08143776343579
F         1.83097572864206    2.07293196672041   -5.10218688665134
