156
 energy: -518.384106905081 gnorm: 0.573057626806 xtb: 6.4.1 (a3dbbd7)
C        -1.28205642681340    0.03367506614248    3.45605717205077
C        -0.39783167412090   -1.20840611716908    3.43802884278621
C         1.04402912061842   -0.71982317960665    3.46073073611575
C         0.97881201321232    0.75819445450694    3.28637731611590
C        -0.35158339664093    1.18711175255177    3.27691229570560
C         2.42588761854074   -2.68912881113369    0.64629672396794
C         3.31836598152311   -1.46169620601626    0.60418934310410
C         3.06624629006983   -0.73471957557688    1.91492371305486
C         1.89294678045708   -1.41581170857744    2.50253559493277
C         1.55177568758753   -2.48888138846472    1.81640752276987
C         3.10024787152968    1.44211610885606    0.59094766043638
C         2.31755140720561    2.52787457778080    0.61768514974714
C         1.58198917786686    2.59524751335895    1.84345017007856
C         1.90564188464019    1.44971148296473    2.57669055730125
C         3.04819004241458    0.76662463629064    1.90422260752308
C        -0.34798339010571    3.40333033047613    0.63648143365962
C        -1.79706451727594    3.14020481954551    0.60976260063846
C        -2.05115632271617    2.38598391949027    1.92240465414962
C        -0.71115348467073    2.28505423163707    2.58069943580697
C         0.24026926770524    3.01043309485203    1.81746725343197
C        -3.36783028489949    0.76100156770652    0.59897190103383
C        -3.53933680296711   -0.72101189720965    0.64012876837062
C        -2.74876745469425   -1.10782060108144    1.82450472236372
C        -2.40221040691745   -0.00461685047334    2.50818702781911
C        -2.79732155316556    1.13653932214470    1.79082794388811
C        -1.79541627446178   -3.15306346441449    0.59397430529759
C        -0.33879853984544   -3.43525009515739    0.54976300199006
C         0.24587105884627   -3.13408674822533    1.87461671273627
C        -0.73846057336145   -2.27865877492993    2.52976616844417
C        -2.04071724920131   -2.37497474002796    1.89675388371596
C        -0.24419138851186   -3.03459494022234   -1.85154077532858
C         0.69031672442579   -2.27930688971745   -2.57422957947395
C         2.03359941353040   -2.37430314879588   -1.91666447815799
C         1.77817031767519   -3.14988812793024   -0.63472806967375
C         0.31761251917031   -3.42171249487058   -0.60206782283500
C         2.74740248278583   -1.11306812235802   -1.74876341106429
C         2.53457921383942    0.01260904963397   -2.68257655518286
C         2.74897181948553    1.19150450110713   -1.80889799136261
C         3.54136136966053    0.76746477382306   -0.62849451009320
C         3.30731329129083   -0.69499502120910   -0.63177403386996
C         1.94826633666868    2.24401088599646   -1.82152768170394
C         0.74675062420106    2.24942668425122   -2.58060492732759
C        -0.25581496884457    3.13411619927802   -1.91667690639223
C         0.38174260496150    3.60528509345655   -0.60849631360757
C         1.83261425369462    3.13786797609862   -0.63113943535688
C        -1.59021457235679    2.53186600066460   -1.80568395950969
C        -1.91248558443272    1.42244614201999   -2.57690970693814
C        -3.05772599658326    0.76344312836893   -1.89501523611840
C        -3.15420165043080    1.44004400337031   -0.57031092867291
C        -2.31512719243357    2.53638922237647   -0.62650380053510
C        -3.05443798073525   -0.74133283741606   -1.92591313286496
C        -1.90769211728066   -1.42942952869747   -2.59217121039658
C        -1.56502106988626   -2.56385001586384   -1.82307137083743
C        -2.28045143269165   -2.56912679360920   -0.64462328126551
C        -3.29824358096589   -1.49748415795506   -0.62548168165505
C        -0.99606413081532   -0.72142260958573   -3.31914707195653
C        -1.00205969213450    0.72566325856523   -3.32735555977348
C         0.34689438943899    1.17393311776079   -3.28381966597633
C         1.24115201484717   -0.00415577565833   -3.46981966451252
C         0.34093804594063   -1.18007420591298   -3.29216234927624
C        -1.86738102787730    0.13428936762524    4.85822486610146
F        -0.97824046208467    0.52660276828541    5.75987884741285
F        -2.75686287826711   -0.79684897345275    5.09654841891766
F        -2.63307049261561    1.17406340993363    5.00816609008129
C        -0.61446799498190   -1.88326171176765    4.81418429231356
F        -0.43554646084999   -1.33309156060910    5.94707937318714
F        -1.76339561124218   -2.40542161147763    5.06360375153848
F         0.02492002886152   -2.98946653142955    5.04256135684624
C         1.56540032802313   -0.97837186549573    4.87745179688653
F         1.06389601298389   -0.13282947879404    5.77295077080343
F         1.76371335646502   -2.25962630509934    5.09064389767018
F         2.74291829140173   -0.52628600561825    5.09293061916327
C         3.37275723597214   -3.86236225214112    1.04367326592732
F         3.86056195919377   -3.90444416207203    2.30031650270015
F         4.43412091412037   -4.14174923826676    0.38100468490222
F         2.90777286321011   -5.01583914799771    1.36039825326622
C         4.75001248358031   -1.97701565393230    0.65943155599508
F         5.17385352187859   -2.71437487820891    1.58704558855970
F         5.14958787502867   -2.58289143458318   -0.46052633958888
F         5.70832386503277   -1.11404144861557    0.63400427980407
C         4.25200660798906   -1.12677401105843    2.82651474636156
F         4.35508277456543   -2.37783161467302    3.28332874366205
F         5.45250152578057   -0.85155561918316    2.49851012123435
F         4.27955434555423   -0.79530157421838    4.05654438965060
C         4.30001171405734    1.23141284463763    2.66728689483226
F         4.37308834653028    2.55737863822051    2.69340320508439
F         5.42553789206223    1.03420760874138    2.05784256528921
F         4.22648953864396    1.08135781408576    3.95294811782605
C        -2.53579367371115    4.47359207023732    0.75603626994981
F        -1.97268995143532    5.29267091360454    1.61638664453216
F        -2.46534963043197    5.24358049850796   -0.28628388745733
F        -3.84581225213327    4.33737045434820    0.72438022602839
C        -2.90528473445179    3.29164085662216    2.78424428138014
F        -2.27568859737093    4.35528715350717    3.22393566182161
F        -4.13837622389527    3.39898505545381    2.33816163164988
F        -3.14882261377166    2.79717423932508    3.96175998105426
C        -5.01692875394992   -0.90693153388292    1.02879169381477
F        -5.30241745386527   -0.29489924285053    2.16529023039886
F        -5.80808674571774   -0.21078183352006    0.24114356065024
F        -5.36365736352458   -2.07522515490955    1.43880120988301
C        -2.51279431730904   -4.49031690283002    0.72500982420786
F        -2.12068534556824   -5.33236690415282    1.60630251521493
F        -2.28504413506834   -5.25166404360041   -0.33911502678665
F        -3.78643142474484   -4.46383027579605    0.75881062548389
C         0.42011846098246   -4.43012709107277    2.67492301559843
F        -0.63170357622908   -5.10062086590439    2.91097325931558
F         1.10641755433735   -5.31542489520514    2.03796597880032
F         0.96377808976022   -4.23758926673893    3.82962205861036
C        -2.93695406867575   -3.27766266246871    2.76865453682655
F        -2.44519815283473   -4.36949723746326    3.22840869025671
F        -4.13185879760122   -3.47431323818686    2.33237189904703
F        -3.27106065741934   -2.74280833760627    3.90613487976697
C         2.91283139735668   -3.26519127686206   -2.78899919283762
F         2.30180682782077   -4.30806933773926   -3.22744656639618
F         3.08882242879236   -2.84266354611232   -3.99943999831702
F         4.16900997563057   -3.27944558058814   -2.34660237061058
C         2.40145107662404   -4.51826625719703   -0.84231161544521
F         1.76827729931264   -5.43091224163067   -1.89570115995176
F         3.59380718737570   -4.70916529014873   -1.23773780263767
F         2.01214279116625   -5.50641253058103   -0.12711115855076
C         3.63794678401939    0.00565749293824   -3.73687825839475
F         4.85327645723337   -0.10899151703041   -3.33406299022895
F         3.78761087536861   -1.07507712419494   -4.43539128016055
F         3.78368908555356    1.17423743009870   -4.31337254788500
C         5.00078028203149    1.10676359680700   -0.84278311037849
F         5.60219567680700    0.51659796296296   -1.79058098817561
F         5.16644396041915    2.38338795086230   -1.00977296964026
F         5.79044664371561    0.75870159805780    0.10465097626223
C        -0.40331782698032    4.36285807010913   -2.80972250774044
F         0.75453985713389    4.79539380833063   -3.28404480976910
F        -0.92385479583624    4.04115536890776   -3.98219717295482
F        -1.32670029396614    5.18128520604540   -2.36865221194343
C         0.45048080484075    5.13360280573208   -0.69300029058064
F         1.02214732432771    5.79194835043403   -1.62171362544173
F        -0.65325782288956    5.79777825851383   -0.70079533925154
F         0.91922572818768    5.72049943717383    0.39583893519087
C         2.69131475170371    4.36485931144425   -0.89523849116369
F         2.60431066636626    4.79143312833436   -2.14684181849542
F         3.96525721011685    4.08439718624372   -0.95364640910025
F         2.71405490434477    5.18130022035813    0.13362459209417
C        -4.30479026984789    1.23278750413634   -2.64581912148754
F        -4.37883249471383    2.54959772570893   -2.70046555869891
F        -4.24214435646557    1.05775340238794   -3.93910573465817
F        -5.39207015854365    1.04249807938947   -1.91629232736210
C        -4.22652050698127   -1.08982190316912   -2.83857744822508
F        -4.32067004956547   -2.37014561811640   -3.26964539747739
F        -4.07417139888186   -0.83173305747522   -4.11987322776377
F        -5.43700021681239   -0.76945504894148   -2.60766187670742
C        -4.62298444743541   -2.24539006917964   -0.84654421172358
F        -4.60012910043043   -3.25893923947629   -1.76403997760091
F        -5.75503386463428   -1.69077652611551   -1.01965946512534
F        -4.99725899670369   -3.18590233635912   -0.04767164091958
C         1.62870017041412    0.00486270603862   -4.94201817594591
F         0.54690345988976    0.00552442437073   -5.71494733965726
F         2.13169102656396    1.13667564620758   -5.34882684436785
F         2.10796082384981   -1.12954247898016   -5.36599985564646
