63
 energy: -142.065076806770 gnorm: 0.138051580038 xtb: 6.4.1 (a3dbbd7)
C        -1.32333194775417    0.00617886347970    3.59125188963251
C        -0.38909456310608   -1.27772716531095    3.58793274117145
C         0.98734837171535   -0.72675165446744    3.28582848483634
C         0.97037352147027    0.69420630050098    3.25749094477592
C        -0.37633960723915    1.14742685553706    3.29074190055216
C         2.33092254703306   -2.58746567485154    0.56610397604514
C         3.16875994483946   -1.41579758165486    0.56774606192583
C         2.91978889080344   -0.69314490348597    1.79074016083681
C         1.93018806170321   -1.40549148670748    2.54814074589443
C         1.57476788296703   -2.59634073810083    1.79100274817011
C         3.18328087896891    1.41909085132624    0.57258499213333
C         2.33432229320876    2.58580968143883    0.57559918777772
C         1.57332139543398    2.57095369604789    1.79851755002390
C         1.94352282881158    1.40414426944103    2.54285112768194
C         2.93804115459266    0.69543633516321    1.79366637265872
C        -0.36752716666001    3.44413435035873    0.58029879258012
C        -1.74013210357057    3.00741588983283    0.58054459941955
C        -1.97818665379860    2.28654468588757    1.80361199533287
C        -0.73393250395930    2.25581684802015    2.55761528373596
C         0.24647420110131    2.98080949443068    1.80023381740862
C        -3.39591089216029    0.72883802558845    0.57533866561121
C        -3.37932885665645   -0.70504006359254    0.57786353554246
C        -2.74934612856665   -1.12865052488571    1.82052481704193
C        -2.40026274086307   -0.01382700939334    2.55826017594831
C        -2.77435746218519    1.16021035149421    1.80187148511327
C        -1.70577977915925   -3.00504292266898    0.57191390059864
C        -0.34657433486683   -3.46193150719564    0.56452064530943
C         0.25810980605866   -3.00738238851431    1.79111395103090
C        -0.74203335365356   -2.29289841924391    2.55243835495534
C        -1.91196172287597   -2.27950749485726    1.81757326885181
C        -0.23558165862281   -3.01371296632646   -1.83961821271520
C         0.75175047781152   -2.28700579367404   -2.59867644532734
C         1.98089777627659   -2.28868303835222   -1.84308617931945
C         1.74918768154887   -3.01946296828987   -0.62050040464920
C         0.38088379041600   -3.46658963937948   -0.62079308111870
C         2.79204993046375   -1.16413556659148   -1.83875967224219
C         2.41002754086118    0.00666527739579   -2.59106683151125
C         2.78807241943814    1.16926264052202   -1.83130610074559
C         3.40298548527550    0.72369088805355   -0.60835037131266
C         3.40110069057525   -0.71955382898331   -0.60923004493565
C         1.96912615256614    2.29475463280888   -1.82840259178522
C         0.74474441569639    2.29528025280401   -2.58515694980539
C        -0.24988429155059    3.01642431380723   -1.82795956514323
C         0.36353023978106    3.45499162487799   -0.59844520421847
C         1.73735095077191    3.01278425815446   -0.60243935985793
C        -1.56944867307335    2.59059487249377   -1.83048045584010
C        -1.94787757007795    1.42311330884846   -2.58910001301826
C        -2.94122296022124    0.70465889669871   -1.83002690890673
C        -3.17947337159538    1.42642572884929   -0.60816005298080
C        -2.33307692209202    2.59081264516620   -0.60600270171083
C        -2.93172079240255   -0.68656028280689   -1.82266620418654
C        -1.94059925011627   -1.40887980593779   -2.58138532694875
C        -1.55636984787224   -2.57670213587000   -1.82754179967090
C        -2.29848528094837   -2.57416283302738   -0.59738768824741
C        -3.15456863482430   -1.39758782868201   -0.59434922362650
C        -0.98936986995949   -0.71482485845558   -3.31408037280858
C        -0.99159024528376    0.72723605185279   -3.31429029098428
C         0.38014149579772    1.17201579903766   -3.31523274930469
C         1.22728121177112    0.00778684511203   -3.31823795360647
C         0.38205649969615   -1.16057927312445   -3.31917058806611
Cl       -2.09995733548554    0.29360223981566    5.20530702406437
Cl       -0.35034641589922   -2.11046483688082    5.19906768498811
Cl        0.57309423485825   -5.23744692886388   -0.94207116211282
63
 energy: -142.089498158707 gnorm: 0.060434719332 xtb: 6.4.1 (a3dbbd7)
C        -1.32544276011590    0.00979624735806    3.59450207380475
C        -0.39098075027572   -1.27283348580212    3.59554875774430
C         0.98518124634039   -0.72389746761319    3.28872723207980
C         0.96972216896042    0.69514334694081    3.25968660164308
C        -0.37709935814387    1.14922646482647    3.29262865478839
C         2.32860730878455   -2.57350891523028    0.56294942113788
C         3.17414856420144   -1.41084377816364    0.56704742327388
C         2.92001211187992   -0.69117526961406    1.78955656429331
C         1.92812630247529   -1.40430421049876    2.54692621116940
C         1.57137600857782   -2.58927978422305    1.79232986645022
C         3.18343328745842    1.42105622736031    0.57181393007367
C         2.33478208411305    2.58659877967782    0.57543058241481
C         1.57305996045663    2.57050315564525    1.79875755096295
C         1.94371785223686    1.40521839267143    2.54365179045496
C         2.93746088707186    0.69664404815067    1.79312103698742
C        -0.36751894083208    3.44401969738462    0.58063211364834
C        -1.73970245448341    3.00801516797493    0.58069173690947
C        -1.97831964290390    2.28760390544795    1.80420903550265
C        -0.73426924777303    2.25671262999516    2.55851713335214
C         0.24635184608827    2.98090088153459    1.80028411888917
C        -3.39711901548751    0.72981808316962    0.57686002586025
C        -3.38161069222531   -0.70246213784911    0.58153158837316
C        -2.75587275947366   -1.12438638969968    1.82664622087141
C        -2.40355601448597   -0.00974367130063    2.56223624754398
C        -2.77594518546711    1.16288754367178    1.80337108085357
C        -1.70132253785260   -2.99263254245070    0.58030822512247
C        -0.35993205691870   -3.47026095332275    0.58537561306950
C         0.24814207672513   -2.99370637403972    1.79093774175792
C        -0.74962498875510   -2.28385183703182    2.56105943026039
C        -1.91798535016692   -2.27252046083139    1.82881426647270
C        -0.23883109103100   -2.99848917365193   -1.84636624170041
C         0.74735559254693   -2.27625927751633   -2.59379295409272
C         1.97776103547349   -2.27814480113622   -1.83707345803375
C         1.75571224534319   -3.00472552582260   -0.62063931300539
C         0.39263055549741   -3.57400597424018   -0.64078166203972
C         2.79671240691819   -1.15671520099631   -1.83879810090168
C         2.41151672506692    0.01145679095569   -2.59270261459504
C         2.78988210369887    1.17340800390163   -1.83290318958956
C         3.40514293511846    0.72752396764892   -0.60993715221063
C         3.40693998574384   -0.71451145458707   -0.61195304453043
C         1.96970136734746    2.29766063991756   -1.82885523876485
C         0.74502296074692    2.29821455006131   -2.58577174122524
C        -0.24927221097488    3.01796768930945   -1.82785667341985
C         0.36407919554691    3.45623340122396   -0.59884223613603
C         1.73748565634586    3.01449581464048   -0.60283819666548
C        -1.56931991125024    2.59130778158180   -1.83042240679009
C        -1.94726724823545    1.42504032609709   -2.58957410181212
C        -2.94007420932164    0.70581300742048   -1.82961570203369
C        -3.17988530034947    1.42750613318489   -0.60782216005524
C        -2.33306163255978    2.59090113770009   -0.60565643218691
C        -2.92989852835331   -0.68458959868494   -1.82294746332796
C        -1.94201281019046   -1.40365861034663   -2.58678310378995
C        -1.55265662085603   -2.56252740760438   -1.82756409073967
C        -2.29957031801934   -2.56814279675096   -0.59468237521123
C        -3.15247566399897   -1.39701015155747   -0.59292511812292
C        -0.98936615541217   -0.70958194215489   -3.32111616026942
C        -0.99110042407564    0.73131257837677   -3.31711233253617
C         0.38079285742363    1.17636242932082   -3.31773039978996
C         1.22792464456458    0.01265539357900   -3.32062448412282
C         0.37999648898331   -1.15305458640690   -3.32455899443689
Cl       -2.10228993715143    0.29747758761443    5.20745246724189
Cl       -0.34827625235234   -2.10792228667677    5.20467216220314
Cl        0.59871144296994   -5.38097108386975   -0.98370738813318
63
 energy: -142.095584705501 gnorm: 0.014307662127 xtb: 6.4.1 (a3dbbd7)
C        -1.32678462428180    0.01476195791912    3.59744137875014
C        -0.39279433168355   -1.26854199740127    3.59564593435910
C         0.98296201624101   -0.72008185359377    3.29013223407157
C         0.96873507098764    0.69752956591918    3.26123848999750
C        -0.37805434657562    1.15359122189729    3.29525615971983
C         2.32394773910429   -2.57158501256576    0.55735886695467
C         3.16727432825019   -1.40737721126975    0.56471279100644
C         2.91673801093082   -0.68876787639154    1.78774776956185
C         1.92359283523692   -1.40394860470414    2.54356038574972
C         1.57042760977484   -2.58837319118847    1.79325081708472
C         3.18335749234057    1.42438848377440    0.57160491762376
C         2.33473131966282    2.58878457542490    0.57566775243380
C         1.57231721828896    2.57213395823440    1.79950490206402
C         1.94325191994688    1.40815330141447    2.54442198829286
C         2.93593980872734    0.69869572353667    1.79293917731150
C        -0.36762099419565    3.44628475409925    0.58160799813793
C        -1.73938438319784    3.01120131218667    0.58172860213975
C        -1.97873425313644    2.29092609456316    1.80558499520213
C        -0.73481836683225    2.26029170258146    2.56023611588915
C         0.24598316777577    2.98365355131247    1.80106200718596
C        -3.39762760705906    0.73204861383926    0.57851443889334
C        -3.38320382568299   -0.69939401976662    0.58476492800519
C        -2.75763468200229   -1.12026767999647    1.82832445545580
C        -2.40580433137449   -0.00511170979543    2.56501470129387
C        -2.77747613071911    1.16731179031024    1.80545267020515
C        -1.69065581923079   -2.98829821955980    0.57891318436839
C        -0.36198602883937   -3.46953604874381    0.58792853300020
C         0.24468586273930   -2.98962586141666    1.78124726322801
C        -0.74909564656400   -2.27689585488225    2.55845821616140
C        -1.91526784288690   -2.26589045820424    1.82790265158402
C        -0.23996674664271   -3.00002674678230   -1.84958111732837
C         0.74012824891009   -2.27226758765440   -2.58318989264197
C         1.97056288785474   -2.27427390646620   -1.82640767887524
C         1.75793510505937   -3.00623197012895   -0.62170100749451
C         0.40447448253503   -3.66805768488407   -0.66109413072735
C         2.79459029281227   -1.15243144594711   -1.83585182098177
C         2.41077307577620    0.01501840103615   -2.59161233038928
C         2.79036154423341    1.17797383310662   -1.83337294608135
C         3.40688483961285    0.73201009932924   -0.61071627742577
C         3.40496640440638   -0.70991066012928   -0.61335130375604
C         1.97014601884443    2.30229863439394   -1.82869937357267
C         0.74509160901087    2.30284594431149   -2.58567143337820
C        -0.24870613283975    3.02143833332334   -1.82691045415209
C         0.36440068569366    3.45979310537285   -0.59835975399364
C         1.73746489261045    3.01815229968085   -0.60258572944834
C        -1.56900943020437    2.59333623932307   -1.82912040009434
C        -1.94682178084961    1.42826689908494   -2.58913865217564
C        -2.93853267540705    0.70769025576290   -1.82778688127526
C        -3.17978747564305    1.43024881881052   -0.60630100746790
C        -2.33278128981489    2.59297085456100   -0.60421060478443
C        -2.92598093401104   -0.68211780805332   -1.82018423514339
C        -1.93691644995429   -1.40000732865312   -2.58177509901992
C        -1.54662181504406   -2.56076137802082   -1.82617664707068
C        -2.30201816005203   -2.56837375837858   -0.59399488181052
C        -3.14729910618580   -1.39744548102098   -0.58992771988919
C        -0.98736239499199   -0.70487274060761   -3.32048841307738
C        -0.99108516430648    0.73597159094605   -3.31889259741132
C         0.38119146421668    1.18109877091496   -3.31833051321187
C         1.22711066026527    0.01630261126839   -3.31967085827179
C         0.37801270081051   -1.14874846373012   -3.32232704465496
Cl       -2.10485288168491    0.30185698411160    5.20928524705381
Cl       -0.34944525102009   -2.09669004588010    5.20757246860647
Cl        0.61592142546769   -5.48735302186423   -1.01232886084485
63
 energy: -142.095893483734 gnorm: 0.008473119987 xtb: 6.4.1 (a3dbbd7)
C        -1.32723829481402    0.01631791953311    3.59745398109423
C        -0.39262821357616   -1.26790364748487    3.59541060666025
C         0.98252598071395   -0.71867756600052    3.29000411088356
C         0.96836538749893    0.69866821626000    3.26137992280828
C        -0.37845932510046    1.15530677474442    3.29579512595682
C         2.32340084645100   -2.57561650507326    0.55578276215864
C         3.16201087841284   -1.40706437850623    0.56327241749641
C         2.91384784369893   -0.68790084727983    1.78632506855896
C         1.92190826383593   -1.40385048510196    2.54249033521324
C         1.57157731615022   -2.58970094657726    1.79438098018269
C         3.18263317439203    1.42598029281566    0.57169900352902
C         2.33458365455020    2.59051714000275    0.57602093895335
C         1.57192980109420    2.57366830602868    1.80004280687461
C         1.94282836005832    1.40970744092701    2.54466308667380
C         2.93461279523665    0.69954802926843    1.79266641464574
C        -0.36776085774331    3.44808475532338    0.58221944116245
C        -1.73950337001880    3.01324636271236    0.58240202168425
C        -1.97923183890503    2.29277950764194    1.80626667776679
C        -0.73517581127459    2.26213083417234    2.56088574025236
C         0.24572080815836    2.98568134401192    1.80171601468955
C        -3.39782181917362    0.73333959064758    0.57868456435150
C        -3.38352246192172   -0.69813406708052    0.58531381894152
C        -2.75690047325992   -1.11876317554435    1.82751318348544
C        -2.40612636232602   -0.00340024820592    2.56490510937982
C        -2.77828445973464    1.16923890787872    1.80601627835427
C        -1.68696766912918   -2.98971861361260    0.57614668724955
C        -0.35957016084580   -3.46839287883297    0.58402608413479
C         0.24584844877058   -2.99184113034595    1.77736919267486
C        -0.74715039102771   -2.27524726236335    2.55595260879488
C        -1.91231280257874   -2.26350828075266    1.82493930994191
C        -0.23988156952954   -3.00925695856087   -1.85169732530904
C         0.73788465689785   -2.27388729520018   -2.58003271177219
C         1.96836459456745   -2.27591206766229   -1.82324544198824
C         1.75941566767957   -3.01526427823958   -0.62307404392194
C         0.40822558303723   -3.68977921705050   -0.66729337884278
C         2.79133244376447   -1.15190759584935   -1.83421714694753
C         2.40937634105160    0.01609422472146   -2.58992631724306
C         2.79005789514198    1.17987174345871   -1.83301122642655
C         3.40665213715442    0.73367845035261   -0.61054730545224
C         3.40212618791749   -0.70875368237860   -0.61336002277382
C         1.97037571516765    2.30474676038310   -1.82847475576849
C         0.74504511041854    2.30525042994066   -2.58551678848344
C        -0.24861966436859    3.02373580441235   -1.82647258469834
C         0.36438529443897    3.46205746011215   -0.59786670336532
C         1.73754617563946    3.02052623658952   -0.60225506167901
C        -1.56896122425087    2.59502703891043   -1.82841155249018
C        -1.94635257767284    1.42983942338042   -2.58825341953130
C        -2.93734025143569    0.70847491090480   -1.82659560181833
C        -3.17974492413671    1.43184817199138   -0.60565336948383
C        -2.33274813868316    2.59458895427956   -0.60351628587588
C        -2.92319283170874   -0.68121991512276   -1.81811847714652
C        -1.93340152060509   -1.39969501596495   -2.57781739856142
C        -1.54549565827203   -2.56504072110502   -1.82645219589897
C        -2.30427410874810   -2.57001578637945   -0.59466950970315
C        -3.14561086093719   -1.39771689194505   -0.58872411223010
C        -0.98620311719041   -0.70368149241355   -3.31813713282785
C        -0.99102833754331    0.73767696335003   -3.31850739990980
C         0.38118350089176    1.18301904818928   -3.31779079023886
C         1.22623450595665    0.01741263052613   -3.31767849415029
C         0.37787719163863   -1.14825579835580   -3.31894257066961
Cl       -2.10819416244548    0.30840548994187    5.20684873549703
Cl       -0.34533498486874   -2.09797885180634    5.20621827335904
Cl        0.61699151865335   -5.50461890794655   -1.01422980325956
63
 energy: -142.095972638662 gnorm: 0.004916913140 xtb: 6.4.1 (a3dbbd7)
C        -1.32645645631753    0.01648606059589    3.59562981730517
C        -0.39208229710312   -1.26688804843253    3.59372806018521
C         0.98323046753765   -0.71763682685267    3.29004697966108
C         0.96896257710882    0.69943810865620    3.26092903135959
C        -0.37795028091710    1.15610591832896    3.29570627979302
C         2.32316338677432   -2.57787729585076    0.55521615006904
C         3.15881367644786   -1.40689037432474    0.56221098516757
C         2.91230253629717   -0.68733661043065    1.78531917871013
C         1.92187622524331   -1.40381238930833    2.54258305917865
C         1.57289309535074   -2.59031630977056    1.79595086472516
C         3.18244660972752    1.42693790874306    0.57141804371604
C         2.33483831330891    2.59159573168840    0.57583859666204
C         1.57212615961024    2.57468253797037    1.80003206561425
C         1.94329716637158    1.41080383797671    2.54447115235226
C         2.93442047873409    0.70007350539711    1.79226527877618
C        -0.36768228796891    3.44870264783941    0.58230827454739
C        -1.73943669682694    3.01395257926939    0.58269539143350
C        -1.97932558816023    2.29332113904713    1.80661562257451
C        -0.73506076120260    2.26302892241794    2.56118148791474
C         0.24587515521907    2.98674671518597    1.80187362964218
C        -3.39817242726620    0.73392278198451    0.57857828759440
C        -3.38419623800882   -0.69755807383870    0.58527315217796
C        -2.75655013912185   -1.11816659383838    1.82638800514869
C        -2.40639522624386   -0.00298522547751    2.56446516636675
C        -2.77897082823432    1.16997190920005    1.80640496516643
C        -1.68458199595921   -2.99058384041785    0.57358308711334
C        -0.35730365384739   -3.46572275333425    0.58049505906656
C         0.24718285418187   -2.99365750079423    1.77512042940046
C        -0.74625492061137   -2.27452868472966    2.55426772283929
C        -1.91021911767747   -2.26194945505975    1.82249417098954
C        -0.23991197335850   -3.01535509079231   -1.85264461667434
C         0.73635932373106   -2.27450289076742   -2.57788806276688
C         1.96690771510916   -2.27653088848633   -1.82107819619239
C         1.76008243140375   -3.02108692476429   -0.62362224704668
C         0.41040922653317   -3.70046871697630   -0.67064975426839
C         2.78892681043543   -1.15141707918131   -1.83321537582333
C         2.40842442299349    0.01668018916954   -2.58895419835875
C         2.79015964478144    1.18094934858799   -1.83303507814460
C         3.40678896227245    0.73471580368931   -0.61069687608266
C         3.40059464366763   -0.70810854147590   -0.61338661666455
C         1.97070854643391    2.30606513715331   -1.82878230030012
C         0.74502397326121    2.30649012697561   -2.58586041806890
C        -0.24857368168910    3.02481735666078   -1.82652769887888
C         0.36444964370561    3.46303706800719   -0.59787388872334
C         1.73779236091190    3.02179732821563   -0.60247861159343
C        -1.56901033438623    2.59585502301227   -1.82816857123654
C        -1.94610118861660    1.43058214310266   -2.58779679204100
C        -2.93677676548604    0.70875313603299   -1.82613185509200
C        -3.17985708292402    1.43258620474534   -0.60538439248856
C        -2.33271560027085    2.59526443910803   -0.60324703370492
C        -2.92142174293292   -0.68074705620073   -1.81702851149391
C        -1.93115434829625   -1.39962411358659   -2.57558596491983
C        -1.54514099114199   -2.56764774278670   -1.82672783411656
C        -2.30673499948737   -2.57093269619317   -0.59556732092058
C        -3.14527826592710   -1.39803429278064   -0.58836441463771
C        -0.98569414300196   -0.70307506008928   -3.31694006364820
C        -0.99115184887264    0.73863802322551   -3.31851700271676
C         0.38103154236900    1.18402950976637   -3.31784226521911
C         1.22564638349604    0.01801777094722   -3.31645990559794
C         0.37789972299825   -1.14786136883045   -3.31651551901072
Cl       -2.10117595891450    0.29476787258059    5.20992995624465
Cl       -0.35688985892682   -2.08652116965987    5.20964054360299
Cl        0.61542347889621   -5.50722851557995   -1.01136673372525
63
 energy: -142.096013663992 gnorm: 0.003599236940 xtb: 6.4.1 (a3dbbd7)
C        -1.32741500356612    0.01658720244083    3.59695586414384
C        -0.39159913003799   -1.26822245475570    3.59532718468065
C         0.98320360689038   -0.71794063054844    3.29049366244310
C         0.96868146157939    0.69897295028390    3.26134059994475
C        -0.37834351009762    1.15556763361810    3.29565617871966
C         2.32307059670687   -2.57881239027301    0.55507219559758
C         3.15718448282609   -1.40691433249308    0.56172136245820
C         2.91125124915610   -0.68732703468562    1.78498255852893
C         1.92184352127233   -1.40404976348097    2.54299685440848
C         1.57396672873180   -2.59062171476371    1.79720275456115
C         3.18208935246970    1.42705098506497    0.57169151841525
C         2.33477032221146    2.59170395688883    0.57613478685572
C         1.57193586015611    2.57454041229524    1.80037088664601
C         1.94295349182953    1.41058821780671    2.54481052450315
C         2.93405836560425    0.69991966987587    1.79250702262163
C        -0.36769385369983    3.44849913900044    0.58234866651676
C        -1.73948402487284    3.01391841986222    0.58269692673425
C        -1.97941236628171    2.29313475556930    1.80656871759649
C        -0.73518869575265    2.26254590562910    2.56103771582032
C         0.24576300939569    2.98661766276149    1.80198073821713
C        -3.39833149560487    0.73388662117320    0.57839949270872
C        -3.38458285371174   -0.69751312327074    0.58544325700817
C        -2.75629595642435   -1.11805359372951    1.82615500369407
C        -2.40597570437269   -0.00290652770894    2.56430364334404
C        -2.77908389297336    1.16987520739917    1.80639811295503
C        -1.68302997517286   -2.99045356013356    0.57210889619679
C        -0.35560910417798   -3.46235287744836    0.57786492436289
C         0.24831364206687   -2.99434191656390    1.77371136085108
C        -0.74554021926266   -2.27397401885328    2.55369146165418
C        -1.90877831364320   -2.26095004401762    1.82167904567688
C        -0.24003800251757   -3.01829522874533   -1.85270521086374
C         0.73541860862297   -2.27435956340498   -2.57652309171328
C         1.96606285000999   -2.27640655509030   -1.81972685927549
C         1.76014115529018   -3.02389246214919   -0.62369681241929
C         0.41146705009894   -3.70493389849378   -0.67214752699801
C         2.78754810571705   -1.15101742989118   -1.83257461133528
C         2.40795231281409    0.01695905948426   -2.58827172189223
C         2.79040082265611    1.18138310907779   -1.83276442366247
C         3.40691454873957    0.73515563210947   -0.61043908823457
C         3.40003719365757   -0.70787730782706   -0.61317564581127
C         1.97095891959221    2.30649451234060   -1.82876379049597
C         0.74505618348355    2.30688133214230   -2.58601837236658
C        -0.24855571660644    3.02504313145799   -1.82655013214971
C         0.36444659199062    3.46312629946765   -0.59780121931560
C         1.73787744160101    3.02202772592752   -0.60233300556994
C        -1.56910459289481    2.59604521963768   -1.82812986931874
C        -1.94600352360222    1.43072735811109   -2.58758390688129
C        -2.93667336228915    0.70864447784355   -1.82607556400399
C        -3.18004255013666    1.43266199186061   -0.60532558756960
C        -2.33282294780701    2.59533759733822   -0.60326786082758
C        -2.92055347156964   -0.68064700277008   -1.81643315600300
C        -1.92997918735724   -1.39966178706559   -2.57447265527101
C        -1.54513400325302   -2.56868322343423   -1.82664872072162
C        -2.30872130573725   -2.57118139767679   -0.59600165167737
C        -3.14554269206011   -1.39836784100912   -0.58813438247932
C        -0.98560100701937   -0.70284188531049   -3.31645453242425
C        -0.99128939962261    0.73905620949514   -3.31864553610404
C         0.38089630610679    1.18442716878382   -3.31794177069690
C         1.22538642355090    0.01829603895954   -3.31569526372820
C         0.37800848859274   -1.14752496767143   -3.31504617427842
Cl       -2.11039875448029    0.31220563457902    5.20442677474594
Cl       -0.34347754240779   -2.10156698145642    5.20393459112697
Cl        0.61247330080581   -5.50242506889362   -1.00634276470707
63
 energy: -142.096046739763 gnorm: 0.001967695929 xtb: 6.4.1 (a3dbbd7)
C        -1.32702123667473    0.01613152128827    3.59667594226589
C        -0.39177924040577   -1.26818010758227    3.59508348228269
C         0.98331411739981   -0.71831373541504    3.29051049337089
C         0.96880811975257    0.69867905707151    3.26121382430566
C        -0.37815559069125    1.15522695715898    3.29554681871399
C         2.32314077663352   -2.57731377881174    0.55533012235419
C         3.15893110088507   -1.40697593700196    0.56210857472393
C         2.91236799111785   -0.68762628957042    1.78545146265490
C         1.92242031322310   -1.40415696500979    2.54325383565486
C         1.57346820169683   -2.59014142823984    1.79665925281747
C         3.18236429935297    1.42655660149575    0.57156657967272
C         2.33480076524146    2.59112232335021    0.57597903172146
C         1.57204394925002    2.57405646078760    1.80015822103713
C         1.94312745746579    1.41013685853620    2.54465844390894
C         2.93454876713689    0.69965552118404    1.79253019564135
C        -0.36768565558157    3.44800165541270    0.58220541660297
C        -1.73944204876726    3.01330297455866    0.58253491225048
C        -1.97924892714497    2.29260220145428    1.80640659665844
C        -0.73509444211542    2.26213314479273    2.56092942167356
C         0.24583422844255    2.98601273576002    1.80177385427992
C        -3.39822748990340    0.73345056633349    0.57840165655752
C        -3.38448685160020   -0.69791830876247    0.58525558554513
C        -2.75664013480270   -1.11854272846649    1.82640971052380
C        -2.40597296579714   -0.00343596193243    2.56439827499555
C        -2.77885030412755    1.16933377242937    1.80630678569917
C        -1.68393898309092   -2.98974572754076    0.57300913711140
C        -0.35648050116694   -3.46257623479464    0.57919954331939
C         0.24777671800526   -2.99333532698676    1.77474256292174
C        -0.74627569999231   -2.27451905675043    2.55451333149069
C        -1.90977611612045   -2.26172909847425    1.82270466829608
C        -0.24002424797771   -3.01486011150548   -1.85207585737113
C         0.73609526369716   -2.27375528022078   -2.57751803555123
C         1.96672223741245   -2.27579411853267   -1.82072228247980
C         1.75962823688723   -3.02049396041440   -0.62332196213752
C         0.41049315663637   -3.70035900904975   -0.67057063209856
C         2.78879668062028   -1.15118090634647   -1.83323821089137
C         2.40848562902168    0.01663230231165   -2.58895153850144
C         2.79047466443753    1.18081283294328   -1.83295364104302
C         3.40705777952485    0.73465138801427   -0.61061616047237
C         3.40103032725573   -0.70819133156115   -0.61330723491300
C         1.97082581064200    2.30573538801802   -1.82880617697100
C         0.74504825247691    2.30614548164279   -2.58600325223126
C        -0.24857385193308    3.02432401789061   -1.82661391971540
C         0.36442761437826    3.46247632644335   -0.59791271279658
C         1.73779025244333    3.02127913100477   -0.60243333947898
C        -1.56908603330890    2.59547334528948   -1.82829421601511
C        -1.94612436334688    1.43024894866031   -2.58789488375237
C        -2.93704438625933    0.70839925510490   -1.82647137108421
C        -3.18000922838480    1.43215230697949   -0.60549624149145
C        -2.33280929130624    2.59481160703562   -0.60342402164524
C        -2.92152697866733   -0.68094428371493   -1.81724259402261
C        -1.93108303388523   -1.39971288017368   -2.57584039355550
C        -1.54525211796105   -2.56711529207137   -1.82661623195891
C        -2.30784324384017   -2.57066922796774   -0.59582676616398
C        -3.14597072654747   -1.39837283108253   -0.58861332502790
C        -0.98591905846876   -0.70314947111852   -3.31735099484729
C        -0.99126776849376    0.73856055768820   -3.31886625384075
C         0.38093279092319    1.18386706056243   -3.31812704474782
C         1.22570332452947    0.01796227082708   -3.31648591397632
C         0.37804881020569   -1.14767356724944   -3.31641603298871
Cl       -2.10707279567540    0.30601083228697    5.20650716672167
Cl       -0.34804848943690   -2.09731211963139    5.20582105807174