63
 energy: -142.096055042571 gnorm: 0.000063280556 xtb: 6.4.1 (a3dbbd7)
C        -1.32696511618668    0.01592661981328    3.59669626356599
C        -0.39185160547669   -1.26828782299820    3.59514612840758
C         0.98331396378272   -0.71859151767318    3.29045409825714
C         0.96878236769424    0.69843042280310    3.26116300229873
C        -0.37814905756134    1.15500995015445    3.29553092066502
C         2.32332641123250   -2.57691639258176    0.55523120835864
C         3.15966136921165   -1.40702374219708    0.56222714587277
C         2.91288402145960   -0.68780690065382    1.78562595236817
C         1.92265644152390   -1.40429951312263    2.54321008414555
C         1.57327027833986   -2.59011048482551    1.79623944488120
C         3.18244489710908    1.42636108520404    0.57151875346777
C         2.33476090775005    2.59088342310111    0.57596431823670
C         1.57202221054763    2.57379316122394    1.80010344246112
C         1.94312426010012    1.40987055899392    2.54459454220114
C         2.93464235964742    0.69951428293604    1.79248445566276
C        -0.36773201028501    3.44786229997092    0.58222666260800
C        -1.73946419321634    3.01310511152109    0.58251491778514
C        -1.97922057490024    2.29239916572813    1.80635204048877
C        -0.73510213779817    2.26190338271713    2.56090394302521
C         0.24580867736342    2.98573008515402    1.80174042760215
C        -3.39809983452290    0.73317423957106    0.57838038507091
C        -3.38435471840729   -0.69814583384548    0.58514617440472
C        -2.75679278474081   -1.11877026484764    1.82651636754639
C        -2.40602154082063   -0.00365654691517    2.56445896828827
C        -2.77870840185819    1.16908065940602    1.80621957659782
C        -1.68428507510053   -2.98930042952358    0.57342622102359
C        -0.35690961562656   -3.46240696322407    0.57973888275487
C         0.24752627348586   -2.99268297279073    1.77513341163767
C        -0.74648592453080   -2.27479126175738    2.55489858870588
C        -1.91019317561062   -2.26209757987936    1.82321414204217
C        -0.23997846999010   -3.01350155877556   -1.85222258058798
C         0.73646234720759   -2.27367321935560   -2.57810254506035
C         1.96708891618917   -2.27570485007065   -1.82130957206073
C         1.75970649152595   -3.01913672671517   -0.62338459289213
C         0.41034136447776   -3.70067538947718   -0.67032627879233
C         2.78940338973724   -1.15126866866431   -1.83354287407813
C         2.40872950503234    0.01656043701487   -2.58927055283705
C         2.79042344396142    1.18063584726182   -1.83303253641506
C         3.40704066800897    0.73444308445418   -0.61070863265181
C         3.40137205378554   -0.70829975704609   -0.61342467233826
C         1.97071025002753    2.30550629591316   -1.82874735309140
C         0.74503696658803    2.30593660676853   -2.58590733224986
C        -0.24860370037712    3.02413307174551   -1.82657860787523
C         0.36439408861165    3.46230225267428   -0.59788455730190
C         1.73770642407415    3.02104426562584   -0.60240142297050
C        -1.56906046847797    2.59527787585994   -1.82833113268822
C        -1.94614535675248    1.43010474590826   -2.58802095129780
C        -2.93710071869428    0.70831115642161   -1.82659137210309
C        -3.17997482620614    1.43195616863831   -0.60558317773923
C        -2.33281548114986    2.59459583899145   -0.60344368650020
C        -2.92195102344259   -0.68108461838833   -1.81764154681532
C        -1.93151033023516   -1.39970943704245   -2.57642069689272
C        -1.54521066830233   -2.56663637525128   -1.82678645413128
C        -2.30735971525066   -2.57061754014717   -0.59586352649993
C        -3.14606904244783   -1.39846881503588   -0.58889726352768
C        -0.98595990763344   -0.70322738994475   -3.31768598665297
C        -0.99118541495523    0.73838514118230   -3.31891251773897
C         0.38099770501574    1.18371556377933   -3.31812559364927
C         1.22586199530500    0.01788108167994   -3.31683289509546
C         0.37805417011723   -1.14772954002347   -3.31709218153487
Cl       -2.10633359518981    0.30439525218521    5.20707886706937
Cl       -0.34889590983760   -2.09602843617491    5.20649395434471
Cl        0.61076601188509   -5.49381393078473   -1.00323782283421
