63
 energy: -142.033249304757 gnorm: 0.211873919646 xtb: 6.4.1 (a3dbbd7)
C        -1.30524132879597    0.00000000000538    3.57807329023422
C        -0.38198622120159   -1.16615737488772    3.28622995044209
C         0.97316446785684   -0.71953336628746    3.26852105894251
C         0.97316446785530    0.71953336630216    3.26852105894473
C        -0.38198622120459    1.16615737490379    3.28622995045274
C         2.33525790565848   -2.58178581715533    0.58265918378867
C         3.18402429064640   -1.41551052449968    0.58305164633927
C         2.94575551469093   -0.69331830539435    1.80727245276214
C         1.94633616722705   -1.41428833030776    2.55691587181014
C         1.57537284635923   -2.57710002453835    1.80571263196464
C         3.18402429064568    1.41551052450295    0.58305164633618
C         2.33525790565840    2.58178581715875    0.58265918378237
C         1.57537284635929    2.57710002454614    1.80571263195897
C         1.94633616722623    1.41428833031814    2.55691587180842
C         2.94575551468950    0.69331830540176    1.80727245276124
C        -0.36286725388684    3.43716117593932    0.57905462418204
C        -1.73307079475598    2.99275061625332    0.57524951534827
C        -1.97752320629156    2.27496221823572    1.79457083857807
C        -0.73661625909686    2.27496497778529    2.56523814188962
C         0.24797249911112    2.99276091828423    1.80557303834060
C        -3.36590164017822    0.71953732333088    0.57375248902312
C        -3.36590164017888   -0.71953732332215    0.57375248902510
C        -2.78105190250946   -1.16617827543313    1.79633080427055
C        -2.63331800734743    0.00000000000824    2.75326019131418
C        -2.78105190250706    1.16617827544612    1.79633080426590
C        -1.73307079475815   -2.99275061624643    0.57524951535621
C        -0.36286725388906   -3.43716117593443    0.57905462419038
C         0.24797249911082   -2.99276091827599    1.80557303834608
C        -0.73661625909661   -2.27496497777287    2.56523814188986
C        -1.97752320629363   -2.27496221822376    1.79457083858313
C        -0.24045690066217   -3.00743782548085   -1.83034246730529
C         0.75231661586805   -2.28840993805800   -2.58424128273324
C         1.97824017738855   -2.28845527885670   -1.82288383798471
C         1.74258918722144   -3.00745695556584   -0.59875134393160
C         0.36899288245124   -3.44813425118672   -0.59934302533638
C         2.79566620008723   -1.16591822783908   -1.82325695863853
C         2.41697359109874   -0.00000000000271   -2.58108531976838
C         2.79566620008779    1.16591822783556   -1.82325695864148
C         3.40959680691412    0.72110795434846   -0.59778286565664
C         3.40959680691433   -0.72110795434857   -0.59778286565546
C         1.97824017738961    2.28845527885345   -1.82288383799084
C         0.75231661586926    2.28840993805322   -2.58424128273948
C        -0.24045690066036    3.00743782547884   -1.83034246731341
C         0.36899288245285    3.44813425118749   -0.59934302534530
C         1.74258918722258    3.00745695556589   -0.59875134393955
C        -1.56217286029713    2.58178679356912   -1.83784975797872
C        -1.93879975252934    1.41553008402889   -2.59849355392507
C        -2.93052386427469    0.69331652856981   -1.84222173469045
C        -3.15943698990261    1.41427069975303   -0.61403881020582
C        -2.32163160591617    2.57707956787764   -0.61452432163280
C        -2.93052386427455   -0.69331652856949   -1.84222173468868
C        -1.93879975252999   -1.41553008403179   -2.59849355392122
C        -1.56217286029877   -2.58178679357009   -1.83784975797151
C        -2.32163160591823   -2.57707956787401   -0.61452432162573
C        -3.15943698990344   -1.41427069974849   -0.61403881020168
C        -0.98033776527170   -0.72109715720207   -3.32415755726590
C        -0.98033776527144    0.72109715719620   -3.32415755726739
C         0.39032106020777    1.16579648770428   -3.31706046827290
C         1.23757908177170   -0.00000000000348   -3.31355725238661
C         0.39032106020722   -1.16579648771087   -3.31706046826971
Cl       -1.60949318930206   -0.00000000015797    5.36443419001363
Cl       -4.09957109178614    0.00000000004209    3.81802953081684
Cl       -0.39048434804020   -1.90408788147954    4.93895084317666
63
 energy: -142.099830312251 gnorm: 0.078851808181 xtb: 6.4.1 (a3dbbd7)
C        -1.31595716464024    0.02073150252643    3.59675128845092
C        -0.38716362032572   -1.20062506797944    3.38554930146950
C         0.98603827219172   -0.70489810803000    3.25163403315411
C         0.97365285492492    0.72314461714977    3.26551602602265
C        -0.38308660246174    1.17004566634776    3.28316680038672
C         2.33460508566966   -2.58180871417233    0.58266594508194
C         3.18438934024496   -1.41440310822501    0.58251159461202
C         2.95144623179560   -0.68962448837028    1.80550878645015
C         1.94621327931597   -1.40296198504065    2.54483274202799
C         1.57593427158447   -2.57772803381589    1.79999678806249
C         3.18493792987014    1.41765516032366    0.58202181399405
C         2.33625646581946    2.58378524822675    0.58136862177316
C         1.57673038683270    2.57980422391516    1.80429876444814
C         1.95077908843333    1.41921361799435    2.55530099231121
C         2.94837713323800    0.69819490084096    1.80638107487244
C        -0.36262710521088    3.43857911160578    0.57800331641406
C        -1.73296221858283    2.99403037563711    0.57456584671182
C        -1.97796860350421    2.27719960166570    1.79363373616398
C        -0.73639852720100    2.27685635038255    2.56111864163392
C         0.24902101401034    2.99460006908621    1.80358062935355
C        -3.36540506276194    0.72073738180783    0.57370901824066
C        -3.36522219216984   -0.71894130132772    0.57504876777098
C        -2.78033795209623   -1.16355319470277    1.79514050089793
C        -2.63170677679872    0.00260919294413    2.75229221955549
C        -2.78118176816918    1.16812585298655    1.79506141094712
C        -1.73428282802065   -2.99943663513945    0.56494691043013
C        -0.36564553603297   -3.44384747877304    0.56755478168638
C         0.24334162306420   -2.98913926154330    1.78967760508984
C        -0.74473663257381   -2.29355186094289    2.54252266966483
C        -1.97070930846420   -2.27431219146600    1.78376553579976
C        -0.24078631313227   -3.00835249084147   -1.83383754611680
C         0.75243102022469   -2.28837449746111   -2.58572618249123
C         1.97826736475815   -2.28920746446178   -1.82338686437270
C         1.74275962235948   -3.00958910299724   -0.60209027283160
C         0.36942162071721   -3.45190665605434   -0.60586422115638
C         2.79623452645904   -1.16605958520791   -1.82391619964251
C         2.41692293075624   -0.00056285866958   -2.58076392916252
C         2.79579769617310    1.16579001331410   -1.82315016124884
C         3.40947484054490    0.72176943923565   -0.59814755818531
C         3.40950791615471   -0.72073741694036   -0.59796876323160
C         1.97814844097013    2.28868463961977   -1.82338032780800
C         0.75280203921482    2.28884500845272   -2.58441451562912
C        -0.24010743773941    3.00760040575995   -1.83077040777789
C         0.36915907396184    3.44862855900506   -0.60015012481765
C         1.74285574282575    3.00806740527409   -0.59955482720252
C        -1.56208639339270    2.58216026989547   -1.83805578592056
C        -1.93889657309781    1.41524371914195   -2.59833505790308
C        -2.93071966529122    0.69400805655274   -1.84231019218886
C        -3.15917173866541    1.41483422153124   -0.61429332276083
C        -2.32137253324745    2.57765682452584   -0.61502309954040
C        -2.93095338484702   -0.69372124489054   -1.84169868052772
C        -1.93914890463582   -1.41552157218570   -2.59911501142835
C        -1.56247603286430   -2.58256092328501   -1.84076739235991
C        -2.32313740036082   -2.57939254225495   -0.61899333181914
C        -3.16007214183630   -1.41425828309377   -0.61528933346176
C        -0.98060321357597   -0.72130298050645   -3.32424869497872
C        -0.98020213058240    0.72093968932408   -3.32399472118205
C         0.39040725264812    1.16517805489767   -3.31700886723989
C         1.23746306051290    0.00007032693721   -3.31377236810960
C         0.39012062264621   -1.16601281697352   -3.31742166762225
Cl       -1.72048530377308    0.17999379967889    5.35980269143963
Cl       -4.09917659461902    0.00271409996351    3.81772356739543
Cl       -0.28580516983068   -2.10919342267766    4.98627100405890
63
 energy: -142.112634534948 gnorm: 0.027096124797 xtb: 6.4.1 (a3dbbd7)
C        -1.32142540851230    0.01711267665604    3.62264384688091
C        -0.39150017003022   -1.23963355789688    3.49551893331970
C         0.98772033802710   -0.70062044783582    3.25369952422662
C         0.97116735117426    0.71687494637030    3.25200334553988
C        -0.38559768712463    1.15531762875223    3.26905759479849
C         2.32858440916990   -2.57896176397016    0.58175455265473
C         3.18064305983435   -1.41186830369263    0.58019787227970
C         2.94564368530011   -0.68510958403354    1.80122913995340
C         1.93885352381847   -1.39496872070193    2.54204808265634
C         1.57273505260545   -2.57716157130076    1.79732790095334
C         3.18812188281286    1.42248724259666    0.57899806665546
C         2.33858081634825    2.58865561680663    0.57771208323187
C         1.57811735051109    2.58254794833640    1.80028134866202
C         1.95222037821793    1.42096784585052    2.54845829250245
C         2.94992753797045    0.70375088787044    1.80321236075977
C        -0.36233253755045    3.44004681635878    0.57590641959201
C        -1.73303929178600    2.99607671303980    0.57271671508720
C        -1.97865051480274    2.27877916945893    1.79180491280160
C        -0.73637972258170    2.26907017175558    2.55477385882569
C         0.24905609763493    2.99310685464373    1.80033862778465
C        -3.36354694567093    0.72332333893648    0.57175306651365
C        -3.36019997447401   -0.71643784810923    0.57335982779482
C        -2.77383984215406   -1.15543772777728    1.79171252543340
C        -2.63293456915007    0.00462544756000    2.75497806733469
C        -2.78038238092811    1.16924719441162    1.79364694342878
C        -1.73387817722783   -3.00088411292241    0.55646825933669
C        -0.36771296024708   -3.44502063171644    0.55967852456181
C         0.23549304957948   -2.98085239319990    1.78542946387542
C        -0.75061655634781   -2.29625397274834    2.53741292859449
C        -1.95646728335813   -2.26427747561802    1.77655434576662
C        -0.24128200060482   -3.01062349617425   -1.84146547034938
C         0.75258631775320   -2.28831728483701   -2.59076124752535
C         1.97789301990415   -2.28934085107787   -1.82637266183539
C         1.74166887591690   -3.01067758465980   -0.60729401921346
C         0.36865681781931   -3.45416621452108   -0.61308978222292
C         2.79602119368325   -1.16528862087303   -1.82658485345521
C         2.41654213354312   -0.00002063094748   -2.58217713393879
C         2.79565050821740    1.16680870431630   -1.82473989933791
C         3.41022809596235    0.72406398228124   -0.60039980915539
C         3.40786910212723   -0.71915997831884   -0.59967206325059
C         1.97823106352309    2.29034815540212   -1.82588867437769
C         0.75334707145513    2.29042763636035   -2.58643058824483
C        -0.23948484696662    3.00921696560649   -1.83298338680458
C         0.36955362263917    3.45071892918764   -0.60255875519703
C         1.74373838642355    3.01124187794967   -0.60281247022887
C        -1.56156684254651    2.58382353087343   -1.83995319671098
C        -1.93845892011392    1.41624873575676   -2.60000093779925
C        -2.93047382147007    0.69595764386716   -1.84449332400181
C        -3.15855175185354    1.41704141736072   -0.61654481107378
C        -2.32112083444705    2.58007131679685   -0.61727888252336
C        -2.93005066569681   -0.69292894674734   -1.84352596046836
C        -1.93919322386587   -1.41492293509303   -2.60316924986215
C        -1.56315105378573   -2.58410528530045   -1.84805503358445
C        -2.32308021284626   -2.58037630421889   -0.62541707148225
C        -3.15887391511056   -1.41284718435783   -0.61921783576726
C        -0.98053083131258   -0.72039930939974   -3.32705564714527
C        -0.97970960244553    0.72200982473182   -3.32565147243839
C         0.39066174147706    1.16575030322055   -3.31859724007302
C         1.23735351745387    0.00134333553466   -3.31593173679928
C         0.39015559177176   -1.16529647593987   -3.32051963651214
Cl       -1.66944890291984    0.25000688485167    5.38772836397354
Cl       -4.14911896495343   -0.01637595375159    3.75701522278969
Cl       -0.27151726237312   -2.18882245723963    5.09169583046380
63
 energy: -142.114934985984 gnorm: 0.020929681771 xtb: 6.4.1 (a3dbbd7)
C        -1.31951147686045    0.00988498249371    3.62155867830497
C        -0.38909515863834   -1.27018092847183    3.56575945372315
C         0.98984246136605   -0.71203675161518    3.26977404916795
C         0.96985928157494    0.70200058127790    3.24112329707386
C        -0.38395818262577    1.13983497919902    3.25446163784476
C         2.32626764396998   -2.57874681634084    0.57756282887588
C         3.17680987320300   -1.41075820784958    0.57511566959599
C         2.93654230099650   -0.68613413599533    1.79626779046223
C         1.93728267919081   -1.39983468522082    2.54770550380284
C         1.57718578131710   -2.58405462897964    1.79596429220063
C         3.19102904622779    1.42453007091468    0.57533110079584
C         2.34099797094291    2.59083743577254    0.57436403400425
C         1.57951130483428    2.57949661969351    1.79644906204036
C         1.95158712500332    1.41506139632191    2.54196124016554
C         2.94897268218171    0.70300927237316    1.79849195711293
C        -0.36148433271431    3.44086720683082    0.57446344835940
C        -1.73296340386925    2.99850494387106    0.57163483403644
C        -1.97708980934541    2.27939552114209    1.79023915588623
C        -0.73335808740409    2.26019199446715    2.54899088864434
C         0.25060072871632    2.98864929515558    1.79672341933257
C        -3.36200283928719    0.72353848724594    0.57342895603588
C        -3.35414731928230   -0.71733173350124    0.57350191597596
C        -2.76594040738173   -1.15663446094507    1.78938463816436
C        -2.61816576856658    0.00023611432374    2.74853769584083
C        -2.77909643231902    1.17048865301592    1.79569183956484
C        -1.72623763815402   -3.00027086488362    0.55110284346180
C        -0.36246638854812   -3.44390600449098    0.55483870470374
C         0.23742278884159   -2.98097317561342    1.78784925829253
C        -0.74443040526700   -2.29435895936355    2.53622941362146
C        -1.93845871685490   -2.25963140315589    1.77448816769573
C        -0.24006449301794   -3.01174573065758   -1.84950443332068
C         0.75313305534612   -2.28667168571277   -2.59794516092143
C         1.97845506706174   -2.28752821941476   -1.83253909038697
C         1.74359565372948   -3.01102176365596   -0.61513608535210
C         0.37113904707919   -3.45462388428552   -0.62053126995161
C         2.79575796615767   -1.16260643888194   -1.83229631539074
C         2.41537855924342    0.00290371023558   -2.58602585472446
C         2.79481777568996    1.16944242637463   -1.82793100070249
C         3.41047504816300    0.72631296003737   -0.60450113899998
C         3.40596073953331   -0.71736283416761   -0.60384596490353
C         1.97764026901171    2.29350293424014   -1.82892095279332
C         0.75240821478614    2.29365047263365   -2.58845312278925
C        -0.24013932956872    3.01201900296316   -1.83434483305660
C         0.37004670710106    3.45343994752677   -0.60439463123878
C         1.74464796253804    3.01436725854660   -0.60553097896092
C        -1.56234305588302    2.58619484430245   -1.84033574689881
C        -1.93935883440360    1.41811208030903   -2.60000617691151
C        -2.93041696497571    0.69768782961469   -1.84393601968692
C        -3.15851222692237    1.41819003675329   -0.61538895721664
C        -2.32201560056329    2.58248260761035   -0.61769630568226
C        -2.92870166091276   -0.69198826857090   -1.84373962198498
C        -1.93928735585000   -1.41354975390255   -2.60693432152650
C        -1.56236386358954   -2.58474284282236   -1.85484868539991
C        -2.31844400253635   -2.58012263637015   -0.62957919072611
C        -3.15596808650991   -1.41254675501422   -0.62145197919467
C        -0.98144777763945   -0.71781673421550   -3.33021201244343
C        -0.98090678927475    0.72481348431503   -3.32702194978707
C         0.38916767709241    1.16859094757423   -3.32055573101350
C         1.23603627598232    0.00496310088704   -3.31979189582542
C         0.38952302727736   -1.16254311914846   -3.32524276628937
Cl       -1.76372735243683    0.32215765205326    5.35715696184107
Cl       -4.08795461315635   -0.03499693349323    3.81216353478742
Cl       -0.31913242238332   -2.19472637481505    5.16879992031826
63
 energy: -142.116012507095 gnorm: 0.013641203682 xtb: 6.4.1 (a3dbbd7)
C        -1.32042790362986    0.01089700921704    3.63142929095242
C        -0.38852193572517   -1.27258760484903    3.57598161869515
C         0.99038932508500   -0.72297830270549    3.27947921373246
C         0.97043469611794    0.69211516830963    3.23873215468175
C        -0.38158303931798    1.13137866730913    3.24985536784095
C         2.32684888111248   -2.58100252784531    0.57426129278122
C         3.17501249438807   -1.41211101633005    0.57154779377389
C         2.93286833090021   -0.69004896711265    1.79379549898742
C         1.93886765524929   -1.40695407000193    2.55086639073223
C         1.58161081721077   -2.58984677666751    1.79528486083510
C         3.19202233082949    1.42261361886334    0.57385684190567
C         2.34163996443112    2.58872001216161    0.57463220255551
C         1.57935619262093    2.57365258044931    1.79626453874910
C         1.95055319671105    1.40770240879076    2.53987211474366
C         2.94833284811586    0.69842815355189    1.79600753317496
C        -0.36161140782826    3.43894526943189    0.57715086738494
C        -1.73326288757134    2.99684880499118    0.57518436656861
C        -1.97639310700994    2.27522096521881    1.79328310926504
C        -0.73186623947811    2.25444327478175    2.54996797250485
C         0.25103512496319    2.98308587676001    1.79753498127119
C        -3.36020129406781    0.72150816396064    0.57592329617128
C        -3.35062713659658   -0.71859673651547    0.57377949448718
C        -2.76142972572188   -1.15754905453355    1.78893426317183
C        -2.62322649270427   -0.00665187710589    2.75487327934143
C        -2.77784580087024    1.16535196808751    1.80008699138314
C        -1.72083933167754   -2.99610585105889    0.55260081571775
C        -0.35865985987817   -3.44061876402176    0.55579047009387
C         0.24107255069293   -2.98224807359169    1.79218706890819
C        -0.73829412799175   -2.28903661897148    2.54064807917222
C        -1.93211237351648   -2.25829490155491    1.77877932140617
C        -0.23984311441708   -3.01089506301062   -1.85123906586985
C         0.75249927072637   -2.28528568386857   -2.60086443941141
C         1.97823026222744   -2.28643150293380   -1.83603939795861
C         1.74457796996544   -3.01120628706858   -0.61894250732252
C         0.37197051941080   -3.45327587928252   -0.62200207437328
C         2.79515363142915   -1.16144433766739   -1.83588690158576
C         2.41437241864008    0.00477853410127   -2.58838820824757
C         2.79420061454850    1.17072813325248   -1.82948922681366
C         3.41026838336630    0.72603249943684   -0.60682939799509
C         3.40504452507159   -0.71766592896518   -0.60681445114079
C         1.97709383404484    2.29503224568276   -1.82889470937264
C         0.75126368474264    2.29573206536260   -2.58757504508718
C        -0.24091436015114    3.01350083136609   -1.83216821139024
C         0.36986986919618    3.45355665114118   -0.60194351055051
C         1.74473085660470    3.01449399967122   -0.60441021593105
C        -1.56310947841590    2.58760514459500   -1.83763481028680
C        -1.94019309782522    1.42003663346206   -2.59815644078629
C        -2.93054832651317    0.69883155055472   -1.84204613190407
C        -3.15813186978655    1.41775864014220   -0.61240672376307
C        -2.32245955384844    2.58257966151611   -0.61450981818238
C        -2.92847331596484   -0.69089706176467   -1.84330193192965
C        -1.93981536235857   -1.41218567346800   -2.60788764450230
C        -1.56202920336620   -2.58352447276012   -1.85576238969667
C        -2.31489700152489   -2.57807690093663   -0.62867213844473
C        -3.15412023648261   -1.41209334800147   -0.62162355418056
C        -0.98265954837026   -0.71551032180664   -3.33108856190024
C        -0.98226701349731    0.72733312796879   -3.32658061853097
C         0.38770203965256    1.17111323913873   -3.32039152859561
C         1.23462281293985    0.00746817008970   -3.32148512534755
C         0.38841144470616   -1.16041244337337   -3.32717263521288
Cl       -1.72384962694445    0.40078330552742    5.36700928514210
Cl       -4.14017246922743   -0.06703205943740    3.75641130574398
Cl       -0.33676638600463   -2.18179614916262    5.17666973209278
63
 energy: -142.116276877277 gnorm: 0.007650999540 xtb: 6.4.1 (a3dbbd7)
C        -1.32089485467115    0.01354836193443    3.62858924490376
C        -0.38982386315922   -1.26905988104603    3.56892178802284
C         0.98955294432614   -0.72495517266273    3.28015782828187
C         0.97074847606203    0.69145825073865    3.23892640438329
C        -0.38071630459965    1.13152383532946    3.24819589281170
C         2.32864332930111   -2.58204265917307    0.57423596735667
C         3.17526939177825   -1.41229918685224    0.57190017894281
C         2.93348411061965   -0.69024954200999    1.79438324196988
C         1.93956677939314   -1.40746264767951    2.55028507023828
C         1.58327778973860   -2.59035757464116    1.79502758254470
C         3.19200030294106    1.42195905775339    0.57397143371221
C         2.34130713331364    2.58772405641113    0.57513348579231
C         1.57863712733761    2.57270763491588    1.79644652936472
C         1.94986058886829    1.40682726221801    2.53985363295058
C         2.94879315673165    0.69775354212101    1.79617771400184
C        -0.36194730286908    3.43883912816250    0.57730486654467
C        -1.73366178413543    2.99687122797244    0.57541762803053
C        -1.97730170283984    2.27560951370985    1.79364608642885
C        -0.73219332902880    2.25542742470497    2.55031031283059
C         0.25065326303300    2.98301692753841    1.79759469934512
C        -3.36202348304681    0.72274617588372    0.57646224647795
C        -3.35196267997825   -0.71726296684691    0.57356348976071
C        -2.76142338082230   -1.15620638793808    1.78783362796692
C        -2.62335557298327   -0.00616788189390    2.75447106821988
C        -2.78119313190350    1.16727203737689    1.80174740365421
C        -1.72022567391078   -2.99386057881158    0.55360866029806
C        -0.35832563296787   -3.43909392922646    0.55669238852820
C         0.24238780882344   -2.98154232325765    1.79245901801234
C        -0.73651699967553   -2.28538056903015    2.54091001341767
C        -1.93294556263409   -2.25708517151636    1.77968512774395
C        -0.23979043836458   -3.01050914603952   -1.84951184760331
C         0.75269248220995   -2.28575058343116   -2.59979994642003
C         1.97874057746184   -2.28686134782211   -1.83552874595156
C         1.74527236021744   -3.01147159852572   -0.61825962696126
C         0.37217998376295   -3.45311124970200   -0.62086137959506
C         2.79563385301432   -1.16194733402066   -1.83544804259117
C         2.41481678923314    0.00428645366729   -2.58813913699658
C         2.79459603844621    1.17034942866889   -1.82942565673043
C         3.41025473737059    0.72552602449035   -0.60665126442180
C         3.40561116515709   -0.71809112476733   -0.60648964787576
C         1.97733020546088    2.29457439420704   -1.82850922864445
C         0.75138796658369    2.29512573442987   -2.58714841716844
C        -0.24082983497132    3.01303214294532   -1.83182352690480
C         0.36987469284137    3.45315785615742   -0.60154985047866
C         1.74470672830565    3.01389823088373   -0.60389724333604
C        -1.56310064510275    2.58742385204700   -1.83738754657935
C        -1.94004754719289    1.41980771887221   -2.59771085097904
C        -2.93070675724593    0.69891106748093   -1.84161946912088
C        -3.15891248736757    1.41819865008719   -0.61216463040965
C        -2.32274697046587    2.58265823115455   -0.61433117273629
C        -2.92891691256446   -0.69066267779154   -1.84324594668034
C        -1.94000077484775   -1.41227798293366   -2.60722040813719
C        -1.56193603914271   -2.58285681643233   -1.85406072484183
C        -2.31497246132513   -2.57692230692076   -0.62745160596797
C        -3.15460174727556   -1.41119540444726   -0.62117621314118
C        -0.98256220888910   -0.71597372849565   -3.33037001012764
C        -0.98213585188382    0.72684731889940   -3.32603295292349
C         0.38788519273949    1.17049617021787   -3.31985886454065
C         1.23488132033075    0.00675919535469   -3.32092551841403
C         0.38858887483255   -1.16104052047883   -3.32634920009106
Cl       -1.72939749086541    0.39744150652359    5.35565022765449
Cl       -4.13150392916143   -0.07614176204295    3.76736487666134
Cl       -0.33905789692681   -2.17802623790032    5.16449493717113
63
 energy: -142.116391687944 gnorm: 0.003215084808 xtb: 6.4.1 (a3dbbd7)
C        -1.32126039863998    0.01548500385623    3.62865119762796
C        -0.39164740160305   -1.26994312693503    3.57097699973237
C         0.98885967961609   -0.72790872704359    3.28204779759952
C         0.97116983431364    0.68932947094769    3.23746711732921
C        -0.37942219666956    1.12945480500095    3.24345468334504
C         2.33008158721798   -2.58301579614757    0.57415462462547
C         3.17531155910973   -1.41245074721808    0.57214852656002
C         2.93320247631728   -0.69035657459950    1.79479397168988
C         1.93977508062263   -1.40795925464925    2.55012581187224
C         1.58498109873535   -2.59134114727568    1.79483920424772
C         3.19247450535247    1.42177946029532    0.57391422966521
C         2.34136018860223    2.58717325902676    0.57539770329569
C         1.57826770053899    2.57178344103689    1.79635792183377
C         1.94945484816682    1.40579202866612    2.53923187284782
C         2.94952494245325    0.69732707256523    1.79604844504610
C        -0.36217472225247    3.43886414226395    0.57733026034890
C        -1.73395311288895    2.99683264303861    0.57564720522917
C        -1.97781326384283    2.27529517136490    1.79364616866092
C        -0.73215566282096    2.25548592309207    2.54980891227598
C         0.25055622209313    2.98279718060657    1.79730519771269
C        -3.36383479058024    0.72398984273205    0.57719084610725
C        -3.35261516813333   -0.71596411377884    0.57310850324660
C        -2.75966207712321   -1.15457685071643    1.78573913673549
C        -2.62242603392754   -0.00648199398135    2.75404982769687
C        -2.78462672049134    1.16890559235976    1.80387506447743
C        -1.71929305452999   -2.99214387295294    0.55373562903052
C        -0.35794544784285   -3.43764088636670    0.55690362478028
C         0.24326400722445   -2.98024379286088    1.79238648215352
C        -0.73417890447165   -2.28093143220718    2.54010601679201
C        -1.93178667124470   -2.25545864147469    1.77977052096993
C        -0.23977816186783   -3.01029966462332   -1.84865412601953
C         0.75275440358443   -2.28591447946599   -2.59932725441689
C         1.97906161447356   -2.28709119966528   -1.83538178108775
C         1.74591300205417   -3.01169021825510   -0.61812612310874
C         0.37241510942778   -3.45310598680558   -0.62052520953661
C         2.79590026016944   -1.16216862945952   -1.83519554851544
C         2.41499944423148    0.00409144572735   -2.58794766876723
C         2.79478587498374    1.17021040005817   -1.82935823144568
C         3.41025909867719    0.72528144643194   -0.60659306834800
C         3.40603643703021   -0.71838582505928   -0.60621190693782
C         1.97743398145730    2.29442536523052   -1.82819200347015
C         0.75139703392255    2.29490780069443   -2.58676425146147
C        -0.24082318399275    3.01280370613342   -1.83146161421366
C         0.36996667334589    3.45306118482401   -0.60125846254492
C         1.74482122883187    3.01377026615075   -0.60354290094850
C        -1.56317962852731    2.58744960315468   -1.83702487915184
C        -1.94008264074355    1.41977935436340   -2.59710362189470
C        -2.93095547241781    0.69907960384827   -1.84105784751251
C        -3.15973656069530    1.41866350066707   -0.61173823808431
C        -2.32311514006348    2.58287628117721   -0.61408310808683
C        -2.92943653164083   -0.69046909748504   -1.84342080365536
C        -1.94026401111287   -1.41227402245301   -2.60703451516642
C        -1.56191442227799   -2.58239027658630   -1.85320899428255
C        -2.31500023934585   -2.57616119375419   -0.62693560642468
C        -3.15496071114504   -1.41045442327284   -0.62117224081894
C        -0.98262120676161   -0.71607889962337   -3.32988666808851
C        -0.98220730021630    0.72673164088904   -3.32547312111688
C         0.38784318770663    1.17025584974802   -3.31934121369898
C         1.23489467368321    0.00649700957274   -3.32047440412250
C         0.38857668835360   -1.16125778045824   -3.32585375639873
Cl       -1.73340452463242    0.40791963495849    5.34347782533008
Cl       -4.12229829067897   -0.09035582909086    3.77760510109022