63
 energy: -142.116410520286 gnorm: 0.000146002891 xtb: 6.4.1 (a3dbbd7)
C        -1.32102318991244    0.01526598418857    3.63072614188235
C        -0.39194776248733   -1.27183466016223    3.57330648108709
C         0.99038348625751   -0.72757321550575    3.28323265729056
C         0.97198862624681    0.68941762469839    3.23769515424574
C        -0.37857300537164    1.12889830592875    3.24204214737904
C         2.33013422661927   -2.58270119798999    0.57445955275310
C         3.17580463653569   -1.41238672721023    0.57228100206328
C         2.93382623119165   -0.69025522253814    1.79502327914991
C         1.94037944630699   -1.40765199233541    2.55072010377843
C         1.58514878788153   -2.59100584637322    1.79534773154066
C         3.19274599275062    1.42200553639693    0.57389815664895
C         2.34155613601503    2.58735288298695    0.57530674817672
C         1.57875796555130    2.57192730505846    1.79644137468731
C         1.95030639301457    1.40611356165981    2.53938537460470
C         2.95022738594830    0.69759806701488    1.79606140145268
C        -0.36196876826083    3.43876149223661    0.57740009071878
C        -1.73363732522645    2.99629435222364    0.57584236926460
C        -1.97720195844655    2.27427001777246    1.79347123086361
C        -0.73175999859753    2.25532657024114    2.54975058946609
C         0.25100985787644    2.98298214476655    1.79731212031322
C        -3.36410348247680    0.72403173438841    0.57747845290031
C        -3.35272259749325   -0.71597511662093    0.57323602401124
C        -2.75911180094791   -1.15443349597063    1.78545233181617
C        -2.62296746978424   -0.00671522594350    2.75436506180002
C        -2.78513170199558    1.16875854745490    1.80448764599497
C        -1.71964207406251   -2.99302452775093    0.55362661403648
C        -0.35808572247834   -3.43794884538636    0.55679323517660
C         0.24313375550799   -2.97937796650219    1.79164595171308
C        -0.73366452463395   -2.27968260081833    2.53853346375022
C        -1.93187172675980   -2.25578880854620    1.77923067408153
C        -0.23986825666744   -3.01038926783793   -1.84882865170290
C         0.75255402478541   -2.28573664104904   -2.59930513670435
C         1.97879161063811   -2.28690166345085   -1.83523556236081
C         1.74573373431593   -3.01137636277504   -0.61794276618084
C         0.37246732289852   -3.45306545747187   -0.62060262484284
C         2.79571318137866   -1.16200472799224   -1.83511312268358
C         2.41474237256265    0.00418954717948   -2.58790012135452
C         2.79458596929981    1.17028621491279   -1.82932409082270
C         3.41032699072366    0.72543830909380   -0.60665437992082
C         3.40600529512610   -0.71823371267083   -0.60619484567609
C         1.97728697225675    2.29449020828692   -1.82820507440170
C         0.75123231030849    2.29498218251355   -2.58675209130575
C        -0.24092622237634    3.01275864549854   -1.83138580153287
C         0.36999959932026    3.45304681109071   -0.60126335443984
C         1.74484866535852    3.01390788466905   -0.60360334491311
C        -1.56327557997532    2.58736639545413   -1.83685879862439
C        -1.94026031065470    1.41969426419297   -2.59686053440020
C        -2.93102609056536    0.69889711857084   -1.84071691853861
C        -3.15972310845338    1.41850246994290   -0.61144978243235
C        -2.32305438876463    2.58271282345079   -0.61388667647337
C        -2.92956334771516   -0.69067234106514   -1.84333348868773
C        -1.94034178427686   -1.41236169081922   -2.60697811368646
C        -1.56203316841307   -2.58261141007676   -1.85335661976863
C        -2.31528725202976   -2.57654171685779   -0.62703232392199
C        -3.15503134726688   -1.41077730553492   -0.62104849581186
C        -0.98278857135855   -0.71604388391708   -3.32981931632660
C        -0.98243518587892    0.72675691550786   -3.32536863187575
C         0.38761029020829    1.17034584647414   -3.31933432892316
C         1.23466176297762    0.00661799454088   -3.32044563222547
C         0.38835448086331   -1.16111749121302   -3.32584431294011
Cl       -1.73027113646897    0.41369179459456    5.34014576282656
Cl       -4.12327752926702   -0.09283820201630    3.77690507562742
Cl       -0.35483720424146   -2.17975011006783    5.15751494003211
