63
 energy: -142.068781289184 gnorm: 0.145472865066 xtb: 6.4.1 (a3dbbd7)
C        -1.29750015586385   -0.00332986390914    3.53259128384291
C        -0.36662330751186   -1.17665276848352    3.30664507069186
C         0.98616964776834   -0.71907897730420    3.28345800331063
C         0.97960460534774    0.72298388992876    3.28116382332211
C        -0.37123063139343    1.17283027203526    3.30703999424566
C         2.33902808225222   -2.57287964708243    0.59282134541102
C         3.18775381441874   -1.40592934941989    0.58930269986468
C         2.95375934983025   -0.68600072575484    1.81413225258493
C         1.96120405920183   -1.41040140165925    2.57054878390017
C         1.59036597905156   -2.57351223230031    1.81677968982536
C         3.18509045263714    1.42556506459426    0.58677401618036
C         2.33644918538866    2.58955715701350    0.58712295456856
C         1.57732702745437    2.58269052266160    1.81121996042124
C         1.95121649520604    1.42062240906665    2.56339217358200
C         2.94734969899541    0.70178584035143    1.81241871801286
C        -0.36230865601760    3.44984460076387    0.58649915495812
C        -1.73568065385573    3.00856312776383    0.58620129080773
C        -1.97466648707238    2.29051782036392    1.80819368403138
C        -0.73502216685138    2.27460254582232    2.56651749222581
C         0.25013328780141    2.99673212004624    1.80718987334861
C        -3.40556373000186    0.73624756401696    0.57396823263447
C        -3.39656113686751   -0.70087893853968    0.57336766874418
C        -2.76869398640548   -1.13743152688347    1.81131829425690
C        -2.41606481668825   -0.00935770106357    2.54947016075177
C        -2.77763293498784    1.16181023849822    1.80199827311876
C        -1.73897950039868   -3.00369688886198    0.61027095302842
C        -0.34675175341818   -3.43911314840585    0.58927014667112
C         0.26540959524459   -2.99405405130769    1.81086784239501
C        -0.72448106648574   -2.27696612285733    2.56655534431523
C        -1.96661719091772   -2.30337153119419    1.80189055009829
C        -0.25303910441721   -3.21697439825626   -1.93515078628168
C         0.75308145440921   -2.28653916290657   -2.57867440920420
C         1.95238411039292   -2.27005430543362   -1.81108187299871
C         1.72490810125568   -2.99201887192918   -0.58363119559495
C         0.37557574680441   -3.46024706207600   -0.57873868952343
C         2.78760429110383   -1.15277384641970   -1.81491371839878
C         2.41431409213368    0.00739165047242   -2.57035366353322
C         2.79604684339575    1.17540453813949   -1.81886357647572
C         3.41064679229982    0.73155426330899   -0.59398339018568
C         3.40671134080570   -0.71156461677298   -0.59219407131255
C         1.97416914155198    2.29602882113511   -1.81673739726529
C         0.74456425139311    2.29447798281708   -2.57376768155679
C        -0.24519477981105    3.02272291127020   -1.82308616330370
C         0.36643514376396    3.45792956944505   -0.59428177351760
C         1.74064009670815    3.01454722219930   -0.59425933402647
C        -1.56829205833959    2.59366542792251   -1.82366590722493
C        -1.95096538781572    1.43092752853070   -2.58180486333857
C        -2.95240685827341    0.71446038976117   -1.82971357566041
C        -3.18630415806833    1.43422379644892   -0.60509868332397
C        -2.32927637798178    2.59497169040384   -0.60132137479790
C        -2.94754506526652   -0.67313005777755   -1.82391405444887
C        -1.94410239546657   -1.40286442546858   -2.56150397187270
C        -1.58527622402766   -2.56555974461748   -1.79963026731950
C        -2.30667368088430   -2.55904727586024   -0.60742050910323
C        -3.17269142016400   -1.38977890440225   -0.59872192408106
C        -0.99841208662573   -0.71329160109820   -3.30239014224414
C        -0.99320180548013    0.72405697444618   -3.30061797729521
C         0.37942274041569    1.16763777902732   -3.29646704633613
C         1.22337490988637    0.00222195938508   -3.28765862798480
C         0.38284144139822   -1.16484842740713   -3.28531009498081
Cl       -1.93980801969369   -0.00660548094091    5.24287063977443
Cl       -0.38906216058057   -4.77802061432624   -2.87495725020283
Cl       -2.94581557859344    2.16792621320028   -3.90211014497038
63
 energy: -142.093867192283 gnorm: 0.069897236760 xtb: 6.4.1 (a3dbbd7)
C        -1.29688136627467   -0.00193386730018    3.53735790238602
C        -0.36702231269968   -1.17523133509711    3.30846096826431
C         0.98576615630891   -0.71851503103546    3.28453925023866
C         0.98058119929229    0.72295079016138    3.28354433162300
C        -0.37027768583904    1.17340015950708    3.31057637545066
C         2.33931590258383   -2.57360884575468    0.59286572879190
C         3.18870896194518   -1.40731742060191    0.59015583671214
C         2.95350120985721   -0.68677184005789    1.81526278774818
C         1.96059536428474   -1.41039408328410    2.57018617437249
C         1.58935685875361   -2.57328649237633    1.81589238009945
C         3.18526482470547    1.42423033188854    0.58784212507113
C         2.33622571889446    2.58855002153769    0.58857984631972
C         1.57796498886840    2.58265260847851    1.81388662527678
C         1.95170234220347    1.42020199938257    2.56484585722455
C         2.94755473663287    0.70114530454727    1.81339864564232
C        -0.36241658049682    3.45198303279486    0.59363362900685
C        -1.73403368251881    3.01176191691462    0.59580743404639
C        -1.97399738418346    2.29300479678370    1.81446614051282
C        -0.73351961398670    2.27586783238164    2.57175515691108
C         0.25159982994004    2.99773457964468    1.81290119185884
C        -3.40629609843211    0.73162014927221    0.58390739328970
C        -3.40244203802669   -0.70238018599151    0.58360829524604
C        -2.77028073646074   -1.13609956150918    1.81667550938233
C        -2.41699061533999   -0.00606858480407    2.55813165278392
C        -2.77662936372252    1.16238895272050    1.81021013008697
C        -1.73987031876129   -3.00036970443355    0.60722033814893
C        -0.34747536593316   -3.43675074836500    0.58624054891235
C         0.26389429400613   -2.99221834141734    1.80833220276780
C        -0.72573885254866   -2.27483506771306    2.56615579765000
C        -1.96715874733682   -2.29878081513937    1.80343210506512
C        -0.25085607972835   -3.21794446704799   -1.93945881001157
C         0.75927559796979   -2.28996551167631   -2.58106490710355
C         1.95765852377633   -2.27282340487801   -1.81044999107462
C         1.72603700768838   -2.99296401578917   -0.58401946766395
C         0.37546197093534   -3.45901368496773   -0.58129971047911
C         2.79330748051891   -1.15623413325996   -1.81330358984954
C         2.42447591650432    0.00335604230476   -2.57101360393795
C         2.80069430780133    1.17232839371930   -1.81796927467238
C         3.41306027589523    0.72982699790434   -0.59278299778851
C         3.41053790073250   -0.71365978502318   -0.59007058367608
C         1.97370678614276    2.29232775491797   -1.81495137310998
C         0.74785442027504    2.28750018530615   -2.57051860861399
C        -0.24431422317879    3.01272014162918   -1.80935898789003
C         0.36724691050095    3.45915519963238   -0.58767474642141
C         1.73995327810366    3.01268935581048   -0.59185904380442
C        -1.56237202057666    2.59207213480137   -1.80679416430384
C        -2.01199844787633    1.47124544459123   -2.65954687093432
C        -2.95092631098530    0.70373365038419   -1.81274614258784
C        -3.17818842817182    1.42696201322870   -0.59718007912072
C        -2.32256530579003    2.58867847162999   -0.59440358746927
C        -2.93986796738285   -0.67653277327456   -1.80822459824747
C        -1.93686034325920   -1.40889144140454   -2.55676010106348
C        -1.58152826968833   -2.56192073802356   -1.80489718031269
C        -2.30763002489827   -2.55669381767777   -0.60404822821164
C        -3.17737550460467   -1.39447566373551   -0.59043024510848
C        -0.98368433047151   -0.71218931019570   -3.29887755924952
C        -0.97869818105267    0.70768099552884   -3.31769237860073
C         0.38717088482832    1.15515278975117   -3.29058856032109
C         1.23732548723341   -0.00532771642284   -3.29087300918016
C         0.39609531081519   -1.17033328803856   -3.29008183995747
Cl       -1.93718854893578   -0.00647486387535    5.24903829852401
Cl       -0.38510599487683   -4.77991803771733   -2.87694502952465
Cl       -3.03056726186996    2.22553075085371   -4.00318915656366
63
 energy: -142.100881702378 gnorm: 0.020949555883 xtb: 6.4.1 (a3dbbd7)
C        -1.29521736484232   -0.00084020958075    3.54266211062554
C        -0.36651058638648   -1.17428091730513    3.31213853703060
C         0.98580711014943   -0.71850840307511    3.28742038402538
C         0.98212216344381    0.72265014912531    3.28805032030932
C        -0.36849297066238    1.17437716342555    3.31714893657691
C         2.34046995323192   -2.57493868507834    0.59392610547738
C         3.19049236829968   -1.40970201963011    0.59215742776921
C         2.95339302282697   -0.68875728357364    1.81780943708928
C         1.96039030939156   -1.41100943056623    2.57125893174619
C         1.58870855460046   -2.57310325582941    1.81582150148272
C         3.18651309638161    1.42158916394173    0.59015084444974
C         2.33634883232204    2.58561915650281    0.59015917123410
C         1.57900084908442    2.58171525972967    1.81720893893829
C         1.95260781610136    1.41914311296889    2.56744197617302
C         2.94781264319431    0.69952553196229    1.81549072589729
C        -0.36261800841677    3.44741528934800    0.59767375870513
C        -1.73076827380233    3.00801330620605    0.59961751411704
C        -1.97228022317001    2.29336852974978    1.81930570868901
C        -0.73196832868101    2.27671592337617    2.57802484326468
C         0.25333594803241    2.99810986362059    1.81851567970997
C        -3.40300304949130    0.72774676394768    0.58913071401710
C        -3.40207864107724   -0.70198589618268    0.59193678735959
C        -2.77326651466119   -1.13638724905338    1.82312295693420
C        -2.41774414250705   -0.00263469547525    2.56732654272691
C        -2.77531012136631    1.16191833873034    1.81749289081327
C        -1.73929631210431   -2.99577518627221    0.60320791472464
C        -0.34692645896724   -3.43438900287647    0.58407395838568
C         0.26284503169939   -2.98968601384899    1.80615464563880
C        -0.72666685430248   -2.27219514964137    2.56622764646870
C        -1.96713035144151   -2.29339886679098    1.80669100958939
C        -0.24792955641068   -3.21672509619960   -1.94129568527539
C         0.76346110259770   -2.28902842214585   -2.58072283329725
C         1.96393633976900   -2.27574003246088   -1.81022526992011
C         1.72844270193860   -2.99406414062170   -0.58397723976809
C         0.37683299470557   -3.45787651541168   -0.58247324586043
C         2.80008296774271   -1.15959304071136   -1.81189556490146
C         2.43158560512923    0.00101444737313   -2.56951756637059
C         2.80655212934856    1.16895345381723   -1.81643704989368
C         3.41633398448172    0.72736766981606   -0.59055577211757
C         3.41543042066671   -0.71674549384832   -0.58726594071633
C         1.97200921586890    2.28604862941944   -1.81401696853946
C         0.75074540101736    2.28298466729641   -2.57181496158819
C        -0.24975070751226    3.00238507544010   -1.80517503370348
C         0.36480628018813    3.44873262068710   -0.58546351352802
C         1.73855037102315    3.00634470230483   -0.58988673445836
C        -1.56331178449159    2.59058676635133   -1.80478682598529
C        -2.06960979612406    1.50846438606615   -2.72864696746635
C        -2.95280263021018    0.69913297222379   -1.80970656131869
C        -3.16799058127608    1.41787656506667   -0.59698855993034
C        -2.31319949590763    2.57836036526927   -0.59586809603661
C        -2.93591636039822   -0.67394891458800   -1.80184537430678
C        -1.93461355069515   -1.41594938716662   -2.55580582404227
C        -1.57705367082604   -2.55405412692652   -1.81161947796410
C        -2.30791577670663   -2.55361006199239   -0.59943453737234
C        -3.17261689887630   -1.39301744853385   -0.58540025463825
C        -0.97841870485720   -0.70221839954054   -3.29516758253553
C        -0.97371940651668    0.69741285916020   -3.31486628275300
C         0.38645967100597    1.14950880342824   -3.28445488157617
C         1.24368623556777   -0.00661326624973   -3.28851525695497
C         0.40172476047080   -1.16897285056094   -3.28803684070179
Cl       -1.93252353236679   -0.00683758202729    5.25651056474901
Cl       -0.38044572395372   -4.77713533369348   -2.87878629705133
Cl       -3.09225505918255    2.26516906122421   -4.08336925158551
63
 energy: -142.101332097550 gnorm: 0.012240254512 xtb: 6.4.1 (a3dbbd7)
C        -1.29479739133718   -0.00025148812914    3.54589881423330
C        -0.36626556481210   -1.17361674944955    3.31427482891615
C         0.98600001546749   -0.71857715978469    3.28937552437850
C         0.98307861624665    0.72255040089994    3.29115819217639
C        -0.36755747082327    1.17491089887842    3.32093758424563
C         2.34083875062477   -2.57529080801407    0.59452932311405
C         3.19149294938861   -1.41067698824863    0.59328993648518
C         2.95374208612724   -0.68985595217141    1.81940701325024
C         1.96036417061716   -1.41126597616534    2.57230284813172
C         1.58826039964307   -2.57266402124965    1.81605239468407
C         3.18749190783531    1.42005851632991    0.59170823269703
C         2.33624547856293    2.58318686131636    0.59096499980498
C         1.57961016221871    2.58041517057641    1.81879227729564
C         1.95356041189810    1.41836025068317    2.56949926025973
C         2.94844109000292    0.69852692635200    1.81721048820598
C        -0.36245440038617    3.44317255890377    0.59800022077029
C        -1.72935100509797    3.00364476636348    0.59901923949089
C        -1.97071373354785    2.29219835333757    1.82050363361075
C        -0.73120935409170    2.27689771988099    2.58076388627799
C         0.25428827102847    2.99747798270124    1.82038641255243
C        -3.40038719839059    0.72711205693516    0.58926438319974
C        -3.40103436638032   -0.70144626566385    0.59379675593585
C        -2.77473672632440   -1.13673076874801    1.82553935098827
C        -2.41861154134843   -0.00128799800098    2.57150283049867
C        -2.77420358473064    1.16094036967090    1.81965030504251
C        -1.73880305572276   -2.99264567894150    0.60171325354998
C        -0.34679795044269   -3.43226040017021    0.58350854528712
C         0.26217003380033   -2.98793570404353    1.80566135433714
C        -0.72712731308183   -2.27053248707405    2.56662763560881
C        -1.96702835049246   -2.29066753855042    1.80854676237806
C        -0.24685905476744   -3.21549980486978   -1.94186937085658
C         0.76451331360682   -2.28703633064724   -2.57995540297438
C         1.96621338336706   -2.27616467400090   -1.81030409433553
C         1.72938529239678   -2.99411651104376   -0.58405263861204
C         0.37721460465056   -3.45625032608014   -0.58277303978671
C         2.80263620441987   -1.16032047342788   -1.81149114892316
C         2.43320674703564    0.00080658306935   -2.56869972459609
C         2.80900967078101    1.16790411899935   -1.81564475048156
C         3.41796181216383    0.72638141455300   -0.58920612329504
C         3.41768306472709   -0.71791312433073   -0.58616057723483
C         1.97208046983288    2.28344425532660   -1.81397546205196
C         0.75227863844392    2.28245877211397   -2.57364259572347
C        -0.25291512804362    3.00040165261950   -1.80781479298210
C         0.36280173553006    3.44116658161834   -0.58607030195803
C         1.73728883224276    3.00152367484705   -0.58921891225860
C        -1.56821889315254    2.59292597637770   -1.81162105113949
C        -2.08422535086404    1.51710897894691   -2.74384962668666
C        -2.95790543474236    0.70064054836840   -1.81600873177482
C        -3.16590431093406    1.41506309144331   -0.59906636554764
C        -2.31109721273272    2.57505718921193   -0.59853673992483
C        -2.93769995770671   -0.67243604729832   -1.80420588031597
C        -1.93621874081740   -1.41970096800709   -2.55757437195245
C        -1.57633794795660   -2.55178949875577   -1.81461218076489
C        -2.30835130157607   -2.55174246745868   -0.59753249361341
C        -3.16955807581113   -1.39054463949549   -0.58511240170934
C        -0.98016969238760   -0.69764071447689   -3.29632850313838
C        -0.97658738652210    0.69762064313211   -3.31203944487974
C         0.38475605657732    1.15062738781705   -3.28476884599374
C         1.24387521433941   -0.00519175107907   -3.28677339733549
C         0.40161898077686   -1.16665724292017   -3.28550458245058
Cl       -1.92725002974466   -0.00753773325846    5.26261153269903
Cl       -0.37618211071786   -4.77440690505346   -2.88047407682236
Cl       -3.10041228677677    2.26659971545519   -4.09777395742587
63
 energy: -142.101511029016 gnorm: 0.005179036857 xtb: 6.4.1 (a3dbbd7)
C        -1.29483803444768    0.00021510595918    3.54724749174659
C        -0.36639357330926   -1.17312657693560    3.31516416879767
C         0.98574349853379   -0.71839759760725    3.29010158138270
C         0.98340027865265    0.72278286672841    3.29282708109266
C        -0.36725562460663    1.17555501414237    3.32298591908500
C         2.34055746322998   -2.57516890947941    0.59445107894033
C         3.19163811361310   -1.41090588635907    0.59349916421693
C         2.95362592035307   -0.69020095462671    1.81995042755175
C         1.95999085977497   -1.41109819311821    2.57243249127202
C         1.58756905514178   -2.57208540462019    1.81574621403525
C         3.18802315289528    1.41950646681177    0.59240889573817
C         2.33631294291075    2.58217962148417    0.59129241601402
C         1.57995031921858    2.57982562542278    1.81952445642304
C         1.95409019641253    1.41815268295002    2.57060459214905
C         2.94873372125968    0.69828493818408    1.81805526411177
C        -0.36205605123749    3.44103051752874    0.59808579020104
C        -1.72814061278662    3.00047211562977    0.59852074384701
C        -1.96948726632238    2.29142449149817    1.82107144752406
C        -0.73079296854188    2.27752896758835    2.58223087908350
C         0.25504262438088    2.99758731794539    1.82143781820968
C        -3.39825962159450    0.72671879497378    0.58913055961490
C        -3.40089759678002   -0.70148189106490    0.59483680516976
C        -2.77617722051079   -1.13757631647407    1.82672751564800
C        -2.41991956046510   -0.00030123196672    2.57417471638412
C        -2.77325847021969    1.15996385585704    1.82088349958288
C        -1.73878376201876   -2.99072323487276    0.60028134403201
C        -0.34710725747964   -3.43098914512410    0.58296955551685
C         0.26136316055755   -2.98673502821832    1.80502463018198
C        -0.72779657045320   -2.26952188831957    2.56658338753219
C        -1.96722516748953   -2.28880151147749    1.80986614302649
C        -0.24659755029054   -3.21522077800713   -1.94249863543824
C         0.76453060527027   -2.28549134403352   -2.57962375454214
C         1.96693718850722   -2.27601653356958   -1.81056746578230
C         1.72943240795868   -2.99410020709043   -0.58448538276324
C         0.37699361284537   -3.45537517567671   -0.58319043881712
C         2.80349278515561   -1.16033877483753   -1.81153171267912
C         2.43385708825142    0.00114914517945   -2.56846490909770
C         2.81059125230700    1.16783905954827   -1.81543849167963
C         3.41888652119093    0.72622471553985   -0.58862731578905
C         3.41868836747553   -0.71820367397168   -0.58594281074575
C         1.97296771235183    2.28278108694396   -1.81421364034341
C         0.75413073549414    2.28279315042823   -2.57489026702546
C        -0.25435461342974    2.99942157963097   -1.80938921478141
C         0.36156913618490    3.43663679866026   -0.58654853792042
C         1.73653121874318    2.99873151641428   -0.58895408046068
C        -1.57111557373671    2.59432137471244   -1.81650417585683
C        -2.09104980982251    1.52106914824276   -2.75018513057509
C        -2.96041208338041    0.70163042369887   -1.82042091175820
C        -3.16404049475267    1.41298748475632   -0.59995251601642
C        -2.30924529019398    2.57284831521635   -0.59986845544794
C        -2.93870806730778   -0.67182057393633   -1.80568808200982
C        -1.93770697810727   -1.42356915593136   -2.55870012935757
C        -1.57670865955202   -2.55155788852403   -1.81728816510723
C        -2.30954169188973   -2.55087607092536   -0.59591434146397
C        -3.16793626345327   -1.38904825844811   -0.58506530697469
C        -0.98203912260814   -0.69432932698312   -3.29715687250253
C        -0.97899892918746    0.69828107613499   -3.30814739302024
C         0.38403736971101    1.15234621605800   -3.28509667630564
C         1.24347640353824   -0.00383654871606   -3.28545900489286
C         0.40102103897643   -1.16481330612591   -3.28337992726703
Cl       -1.92389125659407   -0.00822368546268    5.26635041587324
Cl       -0.37301784117747   -4.77302403960913   -2.88139617495105
Cl       -3.09829472505987    2.26119785836424   -4.10004034005151
63
 energy: -142.101556329769 gnorm: 0.002439784522 xtb: 6.4.1 (a3dbbd7)
C        -1.29493940063248    0.00036546561893    3.54675311733051
C        -0.36656452136252   -1.17295984696906    3.31485903275371
C         0.98547098646345   -0.71822805474797    3.28980280074615
C         0.98324700126777    0.72298540839854    3.29271692654893
C        -0.36737449570583    1.17581700046156    3.32291629577999
C         2.34011113811370   -2.57489934384936    0.59407630285128
C         3.19126584363199   -1.41070360189964    0.59315103888393
C         2.95331425366266   -0.69004072345412    1.81963855766435
C         1.95969934360132   -1.41090500929188    2.57206030456748
C         1.58714245277529   -2.57181925323027    1.81532896928270
C         3.18797190774343    1.41973348153513    0.59222375083174
C         2.33643521524113    2.58254769180586    0.59117086444712
C         1.57992726796541    2.57996639613631    1.81939830805847
C         1.95406677167882    1.41830572965054    2.57048597079092
C         2.94863325837308    0.69849451323216    1.81789995461282
C        -0.36182943191722    3.44136817346289    0.59814016320081
C        -1.72784189024444    3.00004406381932    0.59854623311785
C        -1.96921053826547    2.29152370656912    1.82112740656222
C        -0.73079466724016    2.27799288614175    2.58221613950503
C         0.25522804310237    2.99807076336535    1.82153056963077
C        -3.39783989768790    0.72662636749390    0.58916896954425
C        -3.40144745969056   -0.70178714941264    0.59509135314034
C        -2.77680889982007   -1.13811435610332    1.82660224751503
C        -2.42050702477229    0.00014949388161    2.57453258262020
C        -2.77295496866062    1.15963124728264    1.82109152610288
C        -1.73909737282990   -2.99054239620678    0.59952942159407
C        -0.34747324391564   -3.43083472049130    0.58262080546379
C         0.26091176844524   -2.98651811873431    1.80459023596530
C        -0.72820310711637   -2.26934800121100    2.56624866865416
C        -1.96752445445454   -2.28828084576774    1.81012369521163
C        -0.24689054648991   -3.21566017865472   -1.94293493304008
C         0.76406892792771   -2.28515445772467   -2.57986307654936
C         1.96652822132501   -2.27567203068527   -1.81078239643341
C         1.72902590316330   -2.99400904723108   -0.58487557423195
C         0.37662830120913   -3.45532201575185   -0.58353676644631
C         2.80306305410788   -1.16003106692512   -1.81172777430530
C         2.43379006446665    0.00152919657134   -2.56868675967871
C         2.81075881248480    1.16825636768193   -1.81563099664145
C         3.41889650085958    0.72650986024216   -0.58879053245653
C         3.41846532815091   -0.71795204267523   -0.58622666317318
C         1.97358974272188    2.28348821993185   -1.81443213532660
C         0.75481038742556    2.28312618856573   -2.57497308284337
C        -0.25421984822711    2.99924889088101   -1.80911428994634
C         0.36144405446270    3.43647832634906   -0.58659959891775
C         1.73654285670129    2.99885021265225   -0.58905100094403
C        -1.57099748313205    2.59396164987752   -1.81683549429690
C        -2.09131995041785    1.52121326813053   -2.75023447297345
C        -2.95967178950136    0.70141051901636   -1.82060118730278
C        -3.16322578768208    1.41233229085610   -0.59954048329459
C        -2.30851149322600    2.57235860285329   -0.59963055011936
C        -2.93849554339680   -0.67197908735388   -1.80542484115063
C        -1.93801818120455   -1.42511261920473   -2.55860869663745
C        -1.57728100142019   -2.55225137454885   -1.81841124449659
C        -2.31063008026651   -2.55109349236272   -0.59534941630234
C        -3.16810106873592   -1.38902306462894   -0.58502093178508
C        -0.98249456574241   -0.69340297173720   -3.29705856616208
C        -0.97947816764779    0.69826901564857   -3.30575368027684
C         0.38426910514415    1.15291777127702   -3.28478154454880
C         1.24323860715911   -0.00345966473381   -3.28525571104905
C         0.40073036462657   -1.16438387072594   -3.28300821025196
Cl       -1.92357529322764   -0.00835293762541    5.26669461197442
Cl       -0.37210777629953   -4.77316636430785   -2.88145748537941
Cl       -3.09270909097858    2.25596315897654   -4.09630249543080
63
 energy: -142.101566938530 gnorm: 0.001413920055 xtb: 6.4.1 (a3dbbd7)
C        -1.29490263346746    0.00035923095861    3.54604215161354
C        -0.36660536958342   -1.17294575885192    3.31446831899590
C         0.98540052611712   -0.71817730989698    3.28947259727591
C         0.98311180228445    0.72304105029684    3.29225978290471
C        -0.36746791635684    1.17580705575269    3.32242186161286
C         2.33988192291901   -2.57474505856641    0.59384453121479
C         3.19100181584688   -1.41054560154192    0.59288859115908
C         2.95315804754878   -0.68989104816317    1.81931419404882
C         1.95963245678613   -1.41086259220960    2.57181823788478
C         1.58702437534593   -2.57178796529344    1.81511816668937
C         3.18780847034885    1.41998236354370    0.59193089478107
C         2.33649521402515    2.58300693034762    0.59101493833976
C         1.57983924069750    2.58019044222629    1.81915851898210
C         1.95394301563899    1.41842124227452    2.57013122288227
C         2.94849760524637    0.69864802242117    1.81759105590343
C        -0.36179141159462    3.44211122145152    0.59818696758058
C        -1.72798100602383    3.00060118842984    0.59871975340354
C        -1.96932310997461    2.29185045235904    1.82109078455090
C        -0.73089570767159    2.27812107632219    2.58188787731306
C         0.25516724593524    2.99835918735132    1.82136470820242
C        -3.39816782013568    0.72664497351905    0.58927891342909
C        -3.40188424542672   -0.70198258178805    0.59508983117027
C        -2.77691452444541   -1.13826792378265    1.82622150935964
C        -2.42049342711774    0.00031563577266    2.57414586336684
C        -2.77296151441068    1.15963104498095    1.82100131854610
C        -1.73932704235926   -2.99086265237353    0.59930384753297
C        -0.34764721001139   -3.43099198002614    0.58247741447464
C         0.26078498036260   -2.98664237966207    1.80442577435452
C        -0.72831441276004   -2.26943233709671    2.56603025024793
C        -1.96770426290996   -2.28829168681801    1.81000415347989
C        -0.24716776252383   -3.21603621826557   -1.94313667448133
C         0.76376054525975   -2.28529594878554   -2.58015948684362
C         1.96612804391800   -2.27546424453448   -1.81089697888164
C         1.72875271211638   -2.99389909743869   -0.58505529482243
C         0.37644942773826   -3.45543432052362   -0.58370796074735
C         2.80262154283989   -1.15982268953216   -1.81185311115864
C         2.43362894141897    0.00172096664827   -2.56889830452589
C         2.81045068140753    1.16853303979565   -1.81580223095921
C         3.41868026970090    0.72670637611787   -0.58903345889471
C         3.41808318679547   -0.71774169991756   -0.58644594857065
C         1.97373093289269    2.28411663722267   -1.81451024497531
C         0.75466837159966    2.28322353461292   -2.57470484948553
C        -0.25388909633467    2.99943532531382   -1.80854587163829
C         0.36164703365425    3.43748531612294   -0.58651443109193
C         1.73676631883103    2.99966996962030   -0.58917838232468
C        -1.57027619222764    2.59339212551460   -1.81577671089686
C        -2.09037323163223    1.52069578272340   -2.74943618181216
C        -2.95859525107592    0.70098092585680   -1.81956627958061
C        -3.16320861518936    1.41238991337506   -0.59903686611942
C        -2.30855671789299    2.57261101344175   -0.59916201204243
C        -2.93820314376388   -0.67222421894356   -1.80487697301162
C        -1.93785677090105   -1.42517095779783   -2.55822636551608
C        -1.57755827872557   -2.55268160594411   -1.81858990129723
C        -2.31119176031860   -2.55148104768541   -0.59532514432575
C        -3.16864804156906   -1.38939872768585   -0.58497885264552
C        -0.98228318289257   -0.69356466212763   -3.29678103872875
C        -0.97918220375364    0.69796518487856   -3.30490522451113
C         0.38462089572878    1.15279365358348   -3.28438167419493
C         1.24321982684616   -0.00353610577913   -3.28549984370194
C         0.40070772091986   -1.16454898793044   -3.28340235308700
Cl       -1.92416776718794   -0.00828982904798    5.26611454478183
Cl       -0.37220177768372   -4.77357355109306   -2.88127487208419