66
 energy: -155.832320171797 gnorm: 0.000179586860 xtb: 6.4.1 (a3dbbd7)
C        -1.28915533829345   -0.00115886300270    3.50651539249906
C        -0.37007295547518   -1.17425644981040    3.22294195675890
C         0.89941487091675   -0.72776553412198    3.14938803099548
C         0.89945149947442    0.72558764127494    3.14961104202541
C        -0.37008186248278    1.17196459538950    3.22298801051057
C         2.29594277205076   -2.56855230464942    0.56329597802861
C         3.13114439112952   -1.39465457967907    0.56691715783039
C         2.91896160765438   -0.68551845664422    1.78656919562743
C         2.07169767022134   -1.53097222031494    2.71282376304527
C         1.56149029426092   -2.61416001293777    1.78618880404261
C         3.13116571384685    1.39366389452279    0.56748724965813
C         2.29585907001021    2.56749184674322    0.56433672635842
C         1.56142101351632    2.61259166975030    1.78725392716337
C         2.07169252311742    1.52904634340758    2.71340556540197
C         2.91919185698469    0.68407426367988    1.78693390604818
C        -0.34973908561597    3.43729802308896    0.56468353217082
C        -1.71496641303778    2.98139428923973    0.56417972878775
C        -1.96406801657422    2.29202359771713    1.79159969008561
C        -0.80256440947546    2.50566208095997    2.73983444042511
C         0.26192691190012    3.04268463050883    1.79343285143512
C        -3.32893050286370    0.71807642232889    0.56691718374467
C        -3.32884145912149   -0.71933535517307    0.56658428873103
C        -2.74084735966184   -1.17147036668712    1.78643154447490
C        -2.62322471919331   -0.00108234004434    2.74036918868601
C        -2.74099801898314    1.16976056381494    1.78698384627173
C        -1.71486510415893   -2.98263473437374    0.56295388462654
C        -0.34962546332347   -3.43847756577207    0.56328061994349
C         0.26201287893727   -3.04417971531887    1.79215824499240
C        -0.80246196348776   -2.50775077071584    2.73879202311756
C        -1.96387595088861   -2.29366958026862    1.79065669630236
C        -0.24252550863144   -3.01070611054285   -1.85823158756263
C         0.74793932852538   -2.29054095027461   -2.61750816260483
C         1.97054355662023   -2.28874508805307   -1.85656159835345
C         1.72958320822030   -3.00584499768027   -0.62905858860487
C         0.36966414366615   -3.45001737201956   -0.62895928787323
C         2.78361692457718   -1.16506754062199   -1.85402683477001
C         2.40982858008818    0.00009416111914   -2.61436864187038
C         2.78356543069103    1.16497893946487   -1.85356380748026
C         3.37923984379424    0.71490467205149   -0.62074046463614
C         3.37929955458741   -0.71543900186702   -0.62103970621449
C         1.97046932618464    2.28863010655103   -1.85565212603372
C         0.74787774103960    2.29068391587621   -2.61660758075631
C        -0.24261151290580    3.01047381745806   -1.85702426259882
C         0.36954268505596    3.44930672531521   -0.62755919191562
C         1.72946109978427    3.00521547916943   -0.62784832500112
C        -1.56100626633209    2.58113130746711   -1.85740445963126
C        -1.94154021148031    1.41634979934857   -2.61614934589844
C        -2.92706820373940    0.69366335893630   -1.85389858644579
C        -3.14320996572049    1.41042506874424   -0.62287494942975
C        -2.30760029798832    2.57153539911723   -0.62489108470951
C        -2.92722455191648   -0.69404416156508   -1.85425254730144
C        -1.94157028976190   -1.41636097629832   -2.61674055436514
C        -1.56096495681149   -2.58142939699421   -1.85845260872333
C        -2.30756642028901   -2.57236064043035   -0.62593522125509
C        -3.14323661403556   -1.41126062647524   -0.62346185480415
C        -0.98692656941374   -0.72042685979636   -3.34936850084602
C        -0.98690067230543    0.72076798574367   -3.34908925115180
C         0.38329914120719    1.16637983380527   -3.34899191575330
C         1.22963981207293    0.00021126832874   -3.34884363017303
C         0.38330649179519   -1.16596976563001   -3.34943994413080
Cl       -1.52246765028140   -0.00092768048738    5.29731820023418
Cl       -4.07073492029685   -0.00162629290969    3.81692159205419
Cl        2.98930961156841   -2.16905268471127    4.12453746373729
Cl        2.98915714595674    2.16667479614314    4.12558905859251
Cl       -1.19544822089152    3.65525278240751    4.07252080505850
Cl       -1.19531079097352   -3.65829396727789    4.07059115737273
66
 energy: -155.823792026024 gnorm: 0.000130637416 xtb: 6.4.1 (a3dbbd7)
C        -1.29479192024413   -0.00165819628488    3.54099197560042
C        -0.35792665497344   -1.16170017979287    3.23784933203446
C         0.91990020327406   -0.73016667082146    3.19702799842867
C         0.94460315286832    0.72052619794406    3.20369735003176
C        -0.40241532279072    1.17745107686046    3.23263059070848
C         2.31270123747738   -2.57291278401572    0.56960487707030
C         3.16071055030458   -1.40793482349998    0.57224253012472
C         2.95143448517128   -0.70253525009310    1.79112848657322
C         2.08479640307961   -1.53160480561084    2.71878784331270
C         1.57405640482346   -2.61104377441322    1.79144904339187
C         3.17760723558074    1.39859657217010    0.56828976017787
C         2.33644070921287    2.56846057621048    0.56572856737687
C         1.56679517435330    2.56829158202460    1.78497213795791
C         1.93069956300236    1.41266486796619    2.53469940846296
C         2.93669451680137    0.67209610042236    1.78344845275285
C        -0.36591426130605    3.43632512094379    0.55419191510625
C        -1.73817636348292    3.03786926615799    0.54882104199244
C        -2.11630459073313    2.49837025197694    1.91937117715034
C        -0.75365367147182    2.30488470395653    2.54650263068467
C         0.23657099923875    2.98924466913648    1.78069945655024
C        -3.27763187333325    0.73094539515988    0.59099462710111
C        -3.29461799682579   -0.71973351447014    0.57186907240559
C        -2.72300362473260   -1.17662464980323    1.79194550140483
C        -2.60352434683292    0.00255688291727    2.72851363490818
C        -2.74733173166646    1.16249202113020    1.75428690057658
C        -1.70527741852711   -2.98849906117780    0.57529678041154
C        -0.33878277408336   -3.43559612706677    0.57121383345910
C         0.27475971242946   -3.03709713874693    1.79866214621273
C        -0.78583434432660   -2.49755313393992    2.74549363722282
C        -1.95231694090558   -2.30408770046994    1.80243269727229
C        -0.23200209461908   -3.00245516405355   -1.84922349171051
C         0.76190352435411   -2.28612839751278   -2.60938783559158
C         1.98406757888625   -2.28772676859385   -1.84895873520286
C         1.74025866630721   -3.00522683933889   -0.62180975560756
C         0.38060298214608   -3.44615104620851   -0.62093809607459
C         2.80279424731526   -1.16705220721068   -1.84630544746240
C         2.43333290334849   -0.00145333291472   -2.60668728976663
C         2.81383285349888    1.16303384410909   -1.84594511024077
C         3.41746551539960    0.71184889139269   -0.61844953647893
C         3.40757111758520   -0.72133455438279   -0.61593156839527
C         1.99634934591527    2.28671942435999   -1.84312296352071
C         0.77268546827926    2.28831636278331   -2.60113172694159
C        -0.21895419271962    3.00586494611477   -1.83829953354120
C         0.38340928230119    3.44681661616135   -0.61936298723756
C         1.75597143870095    3.00309406712499   -0.61517900911073
C        -1.54067108592446    2.57357547327151   -1.82282029602190
C        -1.91923725192187    1.40857752339757   -2.58160981781196
C        -2.91883789610884    0.70323367698241   -1.85334744168456
C        -3.36579677283873    1.53237080627420   -0.66518119023312
C        -2.30808209113960    2.61178706968702   -0.61883098596396
C        -2.90543875796655   -0.67141066907420   -1.84350021844306
C        -1.92324802281785   -1.39795794254748   -2.59842067578125
C        -1.54785061464980   -2.56780161574709   -1.84562867691830
C        -2.29918279643488   -2.56759042533766   -0.61501710098354
C        -3.13250524688145   -1.41193157180378   -0.60864726104746
C        -0.96603775539502   -0.71125013034769   -3.33983126315093
C        -0.96387834479861    0.72192939548850   -3.32989088745158
C         0.40709857378628    1.16762122389578   -3.33367662101131
C         1.25244415739101    0.00200894777868   -3.33981800859558
C         0.40183244946393   -1.16246115336339   -3.34333238038367
Cl       -1.57668915940906   -0.03427484506926    5.32503115550041
Cl        3.02044904721916   -2.18857476123089    4.11698818875626
Cl       -1.16030864644907   -3.63658938022461    4.09532360429401
Cl       -3.16002336689391    3.63730960221965    2.85370371561839
Cl       -5.03390141591942    2.18936438880339   -0.88351059180853
Cl       -4.07744945389710    0.03528664293914    3.77207846831607
66
 energy: -155.822143267566 gnorm: 0.000061123777 xtb: 6.4.1 (a3dbbd7)
C        -1.30460836616314   -0.00691205600662    3.53840012139334
C        -0.39299269653950   -1.17833171704442    3.24801814530140
C         0.95115283957571   -0.71950446861215    3.19767731014874
C         0.90493886086512    0.73076362234361    3.19574806799458
C        -0.37438605847840    1.15557520856120    3.23632516236447
C         2.31254525984279   -2.56454570393176    0.55868392080409
C         3.17811969403579   -1.42589702901646    0.55665566982979
C         3.14719005001877   -0.76202729113511    1.92174424048107
C         1.93125801552219   -1.42212868198326    2.53693755271398
C         1.55350698952653   -2.56246114240910    1.78274565536117
C         3.09474738983030    1.35960178039114    0.59617028063196
C         2.26650962058787    2.55480794658467    0.57290529240358
C         1.54090085322769    2.61145910965201    1.79437925939551
C         2.05997330695333    1.52520748445600    2.70501985411038
C         2.91195769037650    0.69941166815848    1.75855424426352
C        -0.36615139070141    3.43434319254518    0.57559358114394
C        -1.72754389868634    2.97196719265381    0.56992368044511
C        -1.97696813477780    2.27783507467242    1.79523760081425
C        -0.81645848584869    2.48676833401652    2.74428730273585
C         0.24039837344655    3.04182492246675    1.80395951886763
C        -3.34972513864467    0.71069217047701    0.56817509434810
C        -3.36838529058214   -0.72658735775979    0.56606743085907
C        -2.79165602171134   -1.17931525749104    1.78755079789721
C        -2.63774484061670   -0.01053505474985    2.74354265661426
C        -2.75522738322495    1.15779457908263    1.78898187396042
C        -1.75397556441349   -3.01130472439380    0.56174568513219
C        -0.38362698829496   -3.45174201798099    0.56286121787248
C         0.22892619647646   -3.00375051358313    1.78701705118642
C        -0.75576454968333   -2.29877577318444    2.54826130717352
C        -1.99917512883931   -2.29758862666942    1.78540790571945
C        -0.26363980564353   -3.02335598666499   -1.84637131410300
C         0.72861662990109   -2.30236903128884   -2.60065494966154
C         1.94958872935334   -2.29801025625127   -1.83384544150775
C         1.71733014295471   -3.01094025124785   -0.61643323630022
C         0.34676473568722   -3.46147541089942   -0.61635948350637
C         2.76322741455386   -1.17021131350447   -1.81562067967700
C         2.38802171541706   -0.00589032905616   -2.57630841825707
C         2.78076609868558    1.15341009068720   -1.84801989922974
C         3.62759919983580    0.74795557107337   -0.65810240334737
C         3.39897983959107   -0.74675700152386   -0.60844876026322
C         1.96401606959747    2.25856586415753   -1.84145497707652
C         0.74345365135892    2.26603058727086   -2.59777961984823
C        -0.24690142311729    2.99208635781784   -1.84550260749561
C         0.36203862563116    3.44104888336860   -0.61673512413589
C         1.71739031204804    3.00209699997051   -0.61139354979824
C        -1.56600382960616    2.56758642107197   -1.85072603933746
C        -1.95005691883860    1.40390152657305   -2.61142125622733
C        -2.93833406624962    0.68393580466421   -1.85163327170905
C        -3.15396565042247    1.40244440363860   -0.62030174640010
C        -2.31714233800894    2.56078138336898   -0.62046352783557
C        -2.94493551077229   -0.70402802047075   -1.85249886466226
C        -1.96036802665160   -1.42882233214869   -2.61255278516077
C        -1.58595211225248   -2.59652569636921   -1.85292211964783
C        -2.34277683612757   -2.59110082619856   -0.62774072922707
C        -3.17324729322472   -1.42357053773208   -0.62396841821744
C        -1.00182169290199   -0.73538562334377   -3.34246189224504
C        -0.99797442405884    0.70695449225225   -3.34509637243269
C         0.37336815868971    1.14723425702937   -3.33923180960986
C         1.21380206830172   -0.01341221291409   -3.32772130191572
C         0.36741683705589   -1.18060465803444   -3.33367922456563
Cl       -1.57467363786276    0.01854604860578    5.32723707587168
Cl       -4.09292218572721   -0.00122171025282    3.81478975584532
Cl        4.64516228815165   -1.09490060312709    2.88114887311129
Cl       -1.21860639090348    3.61796695000376    4.09213511817587
Cl        3.03351898115102    2.15584856501470    4.08463951655480
Cl        5.36702069842324    1.18063426843526   -0.88585633536597
66
 energy: -155.820267751510 gnorm: 0.000051783002 xtb: 6.4.1 (a3dbbd7)
C        -1.29673401036469    0.01690123275215    3.55719919546904
C        -0.37016106827283   -1.26523283117209    3.57365646783255
C         1.00884890428658   -0.72444563442031    3.26562443271180
C         0.99049765327081    0.69811343309095    3.23198036136896
C        -0.35405803365662    1.16080505024611    3.27213198167709
C         2.35601600933694   -2.58853100717981    0.56849261754659
C         3.16993542081120   -1.41968529413728    0.56462767068877
C         2.92650486693453   -0.69613090703190    1.78638683852865
C         1.96099220018821   -1.40906693803799    2.56164486400519
C         1.71692993978302   -2.76534053733210    1.93436342258278
C         3.20343521332485    1.41715764573777    0.56255028197680
C         2.35750190385852    2.58242920269079    0.56531803177615
C         1.59212631961163    2.56935315440599    1.78720879474404
C         1.96528247560592    1.40572642415219    2.52887877052880
C         2.95530100670410    0.69277181434808    1.78420049724206
C        -0.35321790442621    3.41133084050650    0.57006968596994
C        -1.72113754604707    2.99184111290302    0.57532764716481
C        -2.08667494741704    2.46662173307028    1.94685468228045
C        -0.71665094145113    2.27774173269742    2.57120487052396
C         0.26062187101627    2.97025211936403    1.79229612901455
C        -3.63965057663467    0.75454587554645    0.63926394751530
C        -3.37788652990755   -0.73110737889533    0.54391827711670
C        -2.71811350768182   -1.14889340494299    1.73186803273636
C        -2.31768935826563    0.03259807368075    2.46201767334510
C        -2.71458345475005    1.13254185404910    1.78457807395903
C        -1.72188819503761   -3.01101551630392    0.55471864639379
C        -0.35218281255095   -3.43391377535886    0.56332301381933
C         0.24768164447743   -2.96541658645213    1.80239282576019
C        -0.68888750376095   -2.26517789003306    2.51010264095743
C        -1.92675631285130   -2.27421090511106    1.76032228150588
C        -0.23683165219859   -3.00489883526334   -1.83409316106415
C         0.75912573820095   -2.28318422800904   -2.58566034720812
C         1.98217978455462   -2.27982367967607   -1.82398950705621
C         1.75466804075388   -2.99500513392928   -0.59957385597822
C         0.37049643346739   -3.45122358557926   -0.60961374715426
C         2.80929919156975   -1.16160334237234   -1.83834089698354
C         2.43447922337955    0.00230216113231   -2.60057346762690
C         2.81707136165292    1.16885456434500   -1.84400390659541
C         3.42607055402632    0.72165669273072   -0.61868113238377
C         3.41535912534715   -0.72018077996179   -0.61679359770871
C         1.99866843412096    2.29370682579821   -1.84151554986600
C         0.76979585814775    2.28761718180989   -2.59324538733161
C        -0.22152219591299    2.99222742952903   -1.82133333676639
C         0.38835267718206    3.43716519957165   -0.60588260699658
C         1.76493984178113    3.01115384225072   -0.61422842618755
C        -1.53592346296229    2.54358653068700   -1.79257856474607
C        -1.91835166874291    1.39273032484467   -2.56242233062218
C        -2.92227595550486    0.68458252893666   -1.83725061677699
C        -3.41333487780444    1.53774446428285   -0.68223447133184
C        -2.29509381525484    2.55152138262607   -0.57978285904117
C        -2.93136005689220   -0.68471983565622   -1.85826977774455
C        -1.93414403999643   -1.40549790983621   -2.60202905852426
C        -1.56123619298013   -2.57365700829263   -1.84328031853213
C        -2.32486907133267   -2.58093163993856   -0.62786961142716
C        -3.17449734091878   -1.42400167708176   -0.62154594485339
C        -0.96950003373030   -0.71894013828516   -3.33004549229821
C        -0.96597264613157    0.71505635341627   -3.31779951287995
C         0.40388836978067    1.16380029011747   -3.32243598867019
C         1.25071619800215    0.00087413046592   -3.32699328923212
C         0.40037294075507   -1.16588439238302   -3.32543766052790
Cl       -2.16840129279901    0.27937198163479    5.10799774439549
Cl       -0.36307972788242   -2.10066113000952    5.17002484866334
Cl       -5.32047022677077    0.96143414690534    1.27737708183400
Cl       -4.89767967941770    2.39890491479551   -1.24892752046145
Cl        2.50319570762816   -4.10471047863925    2.86368731389312
Cl       -3.13001680910207    3.61237648590647    2.87354122807796
66
 energy: -155.819908118650 gnorm: 0.000076801425 xtb: 6.4.1 (a3dbbd7)
C        -1.29277032926292    0.01260640886773    3.59142096695773
C        -0.35765902369379   -1.26246403202084    3.61832087093557
C         1.01802804268971   -0.70887745809816    3.29038649180871
C         0.99463186195809    0.71518676698182    3.25446555794590
C        -0.35280043647248    1.16035130255010    3.28739860350434
C         2.32773519601400   -2.55188962407169    0.55827506564789
C         3.14593320891061   -1.38285206295856    0.55776426658935
C         2.91888062106533   -0.66435513347351    1.78504916554802
C         1.96567532038305   -1.38215511116896    2.56918754061714
C         1.70451425077822   -2.72532024474007    1.92601359743391
C         3.18999510623709    1.45099625058993    0.56392609440401
C         2.34151186407645    2.61499666678668    0.56997146168926
C         1.58500184578539    2.59897625931747    1.79727493899720
C         1.95941608867445    1.43250978822402    2.53881136277784
C         2.94688328584149    0.72426513359625    1.78530264950419
C        -0.36176644865667    3.46103068512786    0.58189756845645
C        -1.73201441326475    3.01782904654528    0.58124354627809
C        -1.95927185660339    2.28730699879830    1.79730580679122
C        -0.71651255060891    2.26952576305590    2.55922886430779
C         0.25658702668739    3.00330500934659    1.80100382573972
C        -3.35410648075452    0.72107030058412    0.56239536972895
C        -3.32915941910767   -0.71218552324142    0.55551904024783
C        -2.70614963944218   -1.12914465156760    1.79979848008628
C        -2.33289080024545   -0.03688937997453    2.52009882693615
C        -2.73371968117610    1.15042891826915    1.78318876578759
C        -1.69642369602986   -2.99500786420627    0.55036280106915
C        -0.38760101650835   -3.31581148538270    0.54186405040289
C         0.23167741316939   -2.86390868779931    1.77936561402333
C        -0.68992413807179   -2.25575701956572    2.55439485387722
C        -2.04855400674637   -2.44079894329237    1.91690044801537
C        -0.25012565290755   -2.98875444820042   -1.85939851694434
C         0.73475435202711   -2.24400708641754   -2.57516619781247
C         1.95684811201860   -2.23967067833669   -1.81145506810074
C         1.74374528115333   -2.97271574123644   -0.60597092806251
C         0.40083148632258   -3.66583124578303   -0.67122299178925
C         2.78446431296871   -1.12260735443307   -1.83392248094879
C         2.41417718505579    0.04260232171083   -2.59811197760725
C         2.79634893280123    1.20620195962989   -1.84207776569263
C         3.41021962266339    0.75936188326342   -0.61833047309010
C         3.39548726085420   -0.68249641340965   -0.61781830801070
C         1.97447005506169    2.32979194435098   -1.83656008512328
C         0.74853998089453    2.32732113412273   -2.59161246120269
C        -0.24715790914111    3.04043797597016   -1.82935906805011
C         0.36616368464138    3.47780049718630   -0.60036829378735
C         1.74167992211694    3.04284301885606   -0.60783815740542
C        -1.56683448253498    2.61003388650793   -1.83393077737600
C        -1.94153840750719    1.44355388813293   -2.59476246727051
C        -2.92674278594785    0.71497078928805   -1.83394221582748
C        -3.16306830296516    1.43461877669424   -0.61463380365400
C        -2.32689374195765    2.60288872301220   -0.60829543792522
C        -2.91224141371890   -0.67853476595626   -1.82090252497207
C        -1.92047564337241   -1.39670866402469   -2.57963217117832
C        -1.55429488903507   -2.57613936067405   -1.85915365201851
C        -2.49733384850177   -2.76783224058392   -0.68300923078471
C        -3.15823794957631   -1.40382407324262   -0.61634389271008
C        -0.97863875691584   -0.68776269535320   -3.31994159760608
C        -0.98601916565676    0.75360002549985   -3.32382642984153
C         0.38537919544282    1.20436738574046   -3.32517125368852
C         1.23248410912869    0.04220342228414   -3.32602928317668
C         0.38392872601565   -1.12426907338639   -3.32007430060531
Cl       -2.11763740810277    0.31613944726743    5.16733143670675
Cl       -0.32599461358882   -2.08092990487264    5.22120071163100
Cl        2.39997007653011   -4.10891636058916    2.84575282330668
Cl        0.54084008223262   -5.45201208917868   -0.85982968181667
Cl       -3.71222067934025   -4.07129085093661   -0.98092023022807
Cl       -3.04526279829034   -3.62448707690598    2.84501407060699
