63
 energy: -142.064104088428 gnorm: 0.137084499009 xtb: 6.4.1 (a3dbbd7)
C        -1.32333194775417    0.00617886347970    3.59125188963251
C        -0.38909456310608   -1.27772716531095    3.58793274117145
C         0.98734837171535   -0.72675165446744    3.28582848483634
C         0.97037352147027    0.69420630050098    3.25749094477592
C        -0.37633960723915    1.14742685553706    3.29074190055216
C         2.33092254703306   -2.58746567485154    0.56610397604514
C         3.16875994483946   -1.41579758165486    0.56774606192583
C         2.91978889080344   -0.69314490348597    1.79074016083681
C         1.93018806170321   -1.40549148670748    2.54814074589443
C         1.57476788296703   -2.59634073810083    1.79100274817011
C         3.18328087896891    1.41909085132624    0.57258499213333
C         2.33432229320876    2.58580968143883    0.57559918777772
C         1.57332139543398    2.57095369604789    1.79851755002390
C         1.94352282881158    1.40414426944103    2.54285112768194
C         2.93804115459266    0.69543633516321    1.79366637265872
C        -0.36752716666001    3.44413435035873    0.58029879258012
C        -1.74013210357057    3.00741588983283    0.58054459941955
C        -1.97818665379860    2.28654468588757    1.80361199533287
C        -0.73393250395930    2.25581684802015    2.55761528373596
C         0.24647420110131    2.98080949443068    1.80023381740862
C        -3.39591089216029    0.72883802558845    0.57533866561121
C        -3.37932885665645   -0.70504006359254    0.57786353554246
C        -2.74934612856665   -1.12865052488571    1.82052481704193
C        -2.40026274086307   -0.01382700939334    2.55826017594831
C        -2.77435746218519    1.16021035149421    1.80187148511327
C        -1.70577977915925   -3.00504292266898    0.57191390059864
C        -0.34657433486683   -3.46193150719564    0.56452064530943
C         0.25810980605866   -3.00738238851431    1.79111395103090
C        -0.74203335365356   -2.29289841924391    2.55243835495534
C        -1.91196172287597   -2.27950749485726    1.81757326885181
C        -0.23558165862281   -3.01371296632646   -1.83961821271520
C         0.75175047781152   -2.28700579367404   -2.59867644532734
C         1.98089777627659   -2.28868303835222   -1.84308617931945
C         1.74918768154887   -3.01946296828987   -0.62050040464920
C         0.38088379041600   -3.46658963937948   -0.62079308111870
C         2.79204993046375   -1.16413556659148   -1.83875967224219
C         2.41002754086118    0.00666527739579   -2.59106683151125
C         2.78807241943814    1.16926264052202   -1.83130610074559
C         3.40298548527550    0.72369088805355   -0.60835037131266
C         3.40110069057525   -0.71955382898331   -0.60923004493565
C         1.96912615256614    2.29475463280888   -1.82840259178522
C         0.74474441569639    2.29528025280401   -2.58515694980539
C        -0.24988429155059    3.01642431380723   -1.82795956514323
C         0.36353023978106    3.45499162487799   -0.59844520421847
C         1.73735095077191    3.01278425815446   -0.60243935985793
C        -1.56944867307335    2.59059487249377   -1.83048045584010
C        -1.94787757007795    1.42311330884846   -2.58910001301826
C        -2.94122296022124    0.70465889669871   -1.83002690890673
C        -3.17947337159538    1.42642572884929   -0.60816005298080
C        -2.33307692209202    2.59081264516620   -0.60600270171083
C        -2.93172079240255   -0.68656028280689   -1.82266620418654
C        -1.94059925011627   -1.40887980593779   -2.58138532694875
C        -1.55636984787224   -2.57670213587000   -1.82754179967090
C        -2.29848528094837   -2.57416283302738   -0.59738768824741
C        -3.15456863482430   -1.39758782868201   -0.59434922362650
C        -0.98936986995949   -0.71482485845558   -3.31408037280858
C        -0.99159024528376    0.72723605185279   -3.31429029098428
C         0.38014149579772    1.17201579903766   -3.31523274930469
C         1.22728121177112    0.00778684511203   -3.31823795360647
C         0.38205649969615   -1.16057927312445   -3.31917058806611
Cl       -2.09995733548554    0.29360223981566    5.20530702406437
Cl       -0.35034641589922   -2.11046483688082    5.19906768498811
Cl        4.22439801962084    1.75659555949699   -2.76302967163352
63
 energy: -142.088196325533 gnorm: 0.059623493567 xtb: 6.4.1 (a3dbbd7)
C        -1.32370915639308    0.00588946817542    3.59138762477145
C        -0.39025667665973   -1.27851689019204    3.58812161779343
C         0.98638244265720   -0.72860269198739    3.28643845453931
C         0.96939394259465    0.69250074050299    3.25707601861862
C        -0.37662805352571    1.14666968403016    3.29151799974642
C         2.32853067268318   -2.59100507942760    0.57034090663869
C         3.16787305213793   -1.42000369500477    0.57586261748110
C         2.92175058030935   -0.69860491118784    1.79616476072905
C         1.92907479026620   -1.40927872483428    2.55078651512107
C         1.57386915919615   -2.60032654627926    1.79432978781354
C         3.17308350033292    1.41052561180457    0.57662866508150
C         2.32857021715079    2.58602325331305    0.57724756711680
C         1.57173398202407    2.57026160173527    1.79744551727281
C         1.94309750826120    1.40219388423248    2.54327160759943
C         2.93788185627853    0.69159498514469    1.79960020285463
C        -0.37407289801243    3.44947762453183    0.58391573266574
C        -1.74494295610325    3.00961301579338    0.58421167029962
C        -1.97969159196141    2.28796540984481    1.80639771933124
C        -0.73502590516644    2.25713211865301    2.55836695163266
C         0.24324954808417    2.98219893139453    1.80157587508835
C        -3.39557991910718    0.72753868924179    0.57625533230978
C        -3.38012422458622   -0.70665635784214    0.57806762909129
C        -2.75060321649943   -1.12983032748087    1.81912138778574
C        -2.40035894557226   -0.01344810590675    2.55848615381368
C        -2.77395475130578    1.15920785326444    1.80356909845610
C        -1.70856329388743   -3.00602810842867    0.57203414358091
C        -0.34949971502356   -3.46302927874230    0.56598386611773
C         0.25515844421398   -3.00889719314778    1.79332986671649
C        -0.74338697778252   -2.29353897318136    2.55231325685348
C        -1.91453762791978   -2.27989676699824    1.81693583631070
C        -0.23833965524714   -3.01868344660831   -1.83834822227838
C         0.74968761095134   -2.29499340070849   -2.59842993042973
C         1.97571910670717   -2.29667914935160   -1.84217113037266
C         1.74606075122403   -3.02256688518886   -0.61804384309298
C         0.37775132421393   -3.47017879090173   -0.61898607076513
C         2.78077869915830   -1.16425363424731   -1.83317490884589
C         2.40021108488951   -0.00674851175774   -2.58818491931060
C         2.87458492387552    1.20391265753655   -1.88728965163383
C         3.39794009171374    0.71500342566354   -0.59533474670239
C         3.39102667926560   -0.71953097516519   -0.60254323231222
C         1.95778779897998    2.31755807258928   -1.83164297597919
C         0.73662253395726    2.29621400447479   -2.57308507510514
C        -0.26047376207680    3.02376312103793   -1.82366560659468
C         0.35206561027960    3.46310535925357   -0.59549989026511
C         1.72320257206309    3.01075664467905   -0.60177153851372
C        -1.57642092466461    2.59340420400674   -1.82751454177382
C        -1.95172406625447    1.42294991099296   -2.58700168967384
C        -2.94223748904146    0.70436857409236   -1.82968272075152
C        -3.18067950245806    1.42533689352691   -0.60635266128007
C        -2.33763765006589    2.59215749445464   -0.60295254504177
C        -2.93328380615324   -0.68849051767866   -1.82266287651892
C        -1.94172091342668   -1.41091349394066   -2.58075674167397
C        -1.55803020256256   -2.57936586350872   -1.82734616244807
C        -2.30048480601637   -2.57556877861917   -0.59778711627297
C        -3.15601279720535   -1.39882211952208   -0.59553868109790
C        -0.99038612598011   -0.71748531614904   -3.31273212423158
C        -0.99169632130144    0.72606462721370   -3.31192920168858
C         0.37521005252497    1.17048872794426   -3.31192522721705
C         1.21977451968994    0.00029442795355   -3.30792130963013
C         0.37839958853206   -1.16780153722998   -3.31900802435694
Cl       -2.10031592028002    0.29408859485059    5.20580835453108
Cl       -0.35050473942963   -2.11117314239000    5.19901603766646
Cl        4.34554556742927    1.80046674470650   -2.83896154414884
63
 energy: -142.094260204366 gnorm: 0.013595790865 xtb: 6.4.1 (a3dbbd7)
C        -1.32525700179261    0.00480599325959    3.59119688617595
C        -0.39253147458010   -1.27959918413364    3.58867405426836
C         0.98452917760262   -0.73015134700862    3.28793649658258
C         0.96725721665544    0.69128149302323    3.25676106688220
C        -0.37821829227631    1.14560025287780    3.29296367680741
C         2.32477002664445   -2.59135868978174    0.57326148001151
C         3.16330122205398   -1.41870674440617    0.57847213520251
C         2.91849385759416   -0.70110096528897    1.79646674303660
C         1.92730053986695   -1.41217898941929    2.55390843973403
C         1.57128432272480   -2.60259778379384    1.79674643350660
C         3.17069388051730    1.40711471113209    0.57147159284838
C         2.32848255502891    2.58873544059302    0.57763343970899
C         1.57001737710899    2.56911471802458    1.79357117252232
C         1.94036786138322    1.40032857860788    2.54098619301134
C         2.93138136349680    0.68968528602523    1.79521046739443
C        -0.37790213413295    3.44925262452823    0.58650586373497
C        -1.74952341706748    3.01076731208452    0.58826178671133
C        -1.98238881293891    2.28809278817319    1.80974144897237
C        -0.73689875203144    2.25764077540795    2.55987954422914
C         0.24007644237441    2.98257217196026    1.80369766248492
C        -3.39741998879187    0.72543521482958    0.57825776542003
C        -3.38293600543680   -0.70918919157937    0.57997468172179
C        -2.75385953991601   -1.13240082255983    1.81909577558651
C        -2.40245008752114   -0.01415534777639    2.55942753437519
C        -2.77512027224897    1.15699457891062    1.80612677272929
C        -1.71287860032154   -3.00833655419675    0.57357407172484
C        -0.35370368854860   -3.46481687383256    0.56831892595578
C         0.25078327805182   -3.01020444403259    1.79606190913415
C        -0.74627544173900   -2.29505090046131    2.55330342199974
C        -1.91903800891602   -2.28159688974778    1.81791664126335
C        -0.24211870901991   -3.02291560165274   -1.83672823311781
C         0.74699743137817   -2.29664563499445   -2.59382618336984
C         1.97008411600547   -2.29599076411288   -1.83909407124954
C         1.74185951629452   -3.02204283732613   -0.61586701084306
C         0.37376969716232   -3.47243229276971   -0.61635593383865
C         2.77021464755132   -1.15510249930488   -1.83042869758436
C         2.40279797685863   -0.00855071758594   -2.59100867602450
C         2.95297012484047    1.23242014638425   -1.93683991496597
C         3.40242093682774    0.71534155957843   -0.59475395326772
C         3.38115491156266   -0.71104864923784   -0.60017852432286
C         1.95271677953568    2.31889318106003   -1.83013556369066
C         0.74001626575742    2.29128275125506   -2.56328078133293
C        -0.26316255801908    3.02025670782815   -1.81861788001895
C         0.34826816985904    3.45986078005401   -0.59281866292836
C         1.72006786553232    3.00261587453538   -0.60494794401779
C        -1.57918668180871    2.59158966757857   -1.82272331412456
C        -1.95524559674697    1.42110009905667   -2.58340907559916
C        -2.94369547691547    0.70295337848997   -1.82769677395093
C        -3.18332428959797    1.42343020086708   -0.60322755367303
C        -2.34185967818777    2.59214112291401   -0.59961231997281
C        -2.93672842875721   -0.69117178658686   -1.82106099410738
C        -1.94415396725844   -1.41272766415663   -2.57897713688801
C        -1.56135425991569   -2.58250606010771   -1.82628959206689
C        -2.30404699621810   -2.57792721676129   -0.59681114698276
C        -3.15915936551761   -1.40082354349054   -0.59501917602553
C        -0.99144618749425   -0.71845130419609   -3.30828226901429
C        -0.98982051107964    0.72574348582695   -3.30690445126941
C         0.37409640944657    1.17015514328278   -3.31241828386625
C         1.22211506113941    0.00003800289515   -3.30161348035989
C         0.37733429633902   -1.16642566980548   -3.31052932694581
Cl       -2.10288412573307    0.29411240618530    5.20538544049864
Cl       -0.35350378798472   -2.11241450925003    5.19919215494856
Cl        4.43360243129531    1.83707217515898   -2.89716088834282
63
 energy: -142.094566479433 gnorm: 0.008174783957 xtb: 6.4.1 (a3dbbd7)
C        -1.32628608505678    0.00426246545957    3.59155305434358
C        -0.39406321078900   -1.28014551095362    3.58926581459879
C         0.98316074818528   -0.73065105547170    3.28825109929014
C         0.96610476855978    0.69080412428302    3.25608646200911
C        -0.37905484867446    1.14504417832016    3.29367747938435
C         2.32242116635332   -2.58986568719310    0.57373077747835
C         3.16051911101128   -1.41661880753949    0.57706540191696
C         2.91605024724679   -0.70081360974430    1.79495634834183
C         1.92605477471484   -1.41257890011384    2.55459357276123
C         1.56975342976241   -2.60282592491499    1.79740972128175
C         3.17388676324238    1.40863643289008    0.56806541793721
C         2.33062574081981    2.59112588726833    0.57830963265860
C         1.56982774898152    2.56922888309558    1.79229244061464
C         1.93870396679128    1.39947143913036    2.53867279430341
C         2.92814275903441    0.68959460601263    1.79077989126843
C        -0.37805590747412    3.44785991568320    0.58708674207030
C        -1.75022021931541    3.01047524777579    0.58962449002971
C        -1.98320213673477    2.28788183379067    1.81116197590792
C        -0.73739331476630    2.25753966206411    2.56076976320246
C         0.23955103980930    2.98244083169010    1.80475583143567
C        -3.39842427572678    0.72445863155479    0.57924456027073
C        -3.38478125279995   -0.71046281991060    0.58117416340934
C        -2.75563903210389   -1.13371961431438    1.81961556551049
C        -2.40353079537551   -0.01469128011813    2.55998387601660
C        -2.77558854884717    1.15601380370704    1.80728216535358
C        -1.71526887351651   -3.01006037049765    0.57470775616586
C        -0.35573347297362   -3.46589401827870    0.56943343615542
C         0.24885744052582   -3.01078983068741    1.79728647968389
C        -0.74783971525896   -2.29594824998690    2.55404899152996
C        -1.92138969843343   -2.28283963350325    1.81886227865568
C        -0.24386837979424   -3.02379908217785   -1.83576367969675
C         0.74591685946823   -2.29544953867081   -2.59121107060313
C         1.96821872132472   -2.29291306483191   -1.83697398838470
C         1.73951503837769   -3.02006526053492   -0.61496865212420
C         0.37188081346165   -3.47274692774492   -0.61517056516964
C         2.76867387794798   -1.15065458782794   -1.83115672830824
C         2.41003878551929   -0.00548133159737   -2.59664920253210
C         2.97230430165131    1.23802383695275   -1.94858838159896
C         3.41066074001139    0.71919675389957   -0.59923362930273
C         3.38000742134024   -0.70681154399981   -0.60107259501235
C         1.95490184431916    2.31499282872033   -1.82982966797687
C         0.74425600457090    2.28890035838955   -2.56231628647871
C        -0.26184024056978    3.01593311382130   -1.81657293422290
C         0.34923943651647    3.45583659000961   -0.59190168058296
C         1.72309705558612    3.00014359478712   -0.60672894845879
C        -1.57862023860041    2.58945844143085   -1.82051296740099
C        -1.95602116425775    1.41960027454180   -2.58178124678151
C        -2.94417646059202    0.70180500225596   -1.82654293076840
C        -3.18423616356796    1.42239241421759   -0.60189652778042
C        -2.34238632341805    2.59126852823089   -0.59834127049668
C        -2.93853818188185   -0.69257987625597   -1.82002441178902
C        -1.94505069614771   -1.41330275292964   -2.57757275010182
C        -1.56313924305674   -2.58374012542975   -1.82524755485382
C        -2.30636800681351   -2.57959728454751   -0.59593228047581
C        -3.16124955124855   -1.40214844443387   -0.59425542862708
C        -0.99124762697576   -0.71826659173267   -3.30505742033587
C        -0.98915494260872    0.72564529661405   -3.30504428099078
C         0.37426131843205    1.17013103081266   -3.31456315938409
C         1.22566929016933    0.00176615303632   -3.30291309405113
C         0.37810052469627   -1.16405344157099   -3.30593000777674
Cl       -2.10535371611607    0.29383394203783    5.20538952404395
Cl       -0.35708861930098   -2.11332045822589    5.19963951118771
Cl        4.44554282434135    1.84687666628679   -2.90765981132917
63
 energy: -142.094665642892 gnorm: 0.004619812597 xtb: 6.4.1 (a3dbbd7)
C        -1.32646321391233    0.00410033089148    3.59163228423240
C        -0.39461003070976   -1.28032310325559    3.58973953324542
C         0.98266135492066   -0.73085178923600    3.28855592392658
C         0.96570483263808    0.69066295982536    3.25584904318374
C        -0.37919672935349    1.14494154123527    3.29415386382394
C         2.32111549449974   -2.58900983652596    0.57398042049196
C         3.15866476553408   -1.41549191056920    0.57613619054684
C         2.91485408189722   -0.70059908414177    1.79433329631960
C         1.92556426503368   -1.41280241825913    2.55520503608495
C         1.56929294375776   -2.60297629088399    1.79794438786214
C         3.17538699530375    1.40955417780810    0.56653510290889
C         2.33202076619692    2.59296400904447    0.57957789414820
C         1.57002144877572    2.56982155659474    1.79225089114431
C         1.93783891878593    1.39903294045267    2.53733679721879
C         2.92636361089057    0.68943102928692    1.78831413953535
C        -0.37779133821886    3.44737440957974    0.58735155489635
C        -1.75004176021197    3.01042007233512    0.59004657976232
C        -1.98316962949909    2.28809490447602    1.81176470314494
C        -0.73733606112202    2.25777964233330    2.56135991686617
C         0.23959343944823    2.98270103437724    1.80560841525769
C        -3.39844482080308    0.72417963232899    0.57934540070078
C        -3.38529835042728   -0.71094668180997    0.58151469538014
C        -2.75602458602062   -1.13421027587609    1.81948930146974
C        -2.40344970140468   -0.01463553946143    2.55983892003687
C        -2.77515495464059    1.15566249219425    1.80754262940936
C        -1.71625532594923   -3.01093217486191    0.57514421393942
C        -0.35654477990596   -3.46652174766454    0.56985394477732
C         0.24816949518814   -3.01103608664969    1.79790673016905
C        -0.74813834733797   -2.29621595847147    2.55424633676115
C        -1.92224423553964   -2.28332154312603    1.81914048537424
C        -0.24481612075723   -3.02436080473883   -1.83545496274135
C         0.74529058389930   -2.29491225001306   -2.59012224101686
C         1.96704196892683   -2.29104914389401   -1.83548015477733
C         1.73821136878283   -3.01881996709072   -0.61448028819820
C         0.37092781536016   -3.47300757382527   -0.61478676999148
C         2.76736273040098   -1.14826900070617   -1.83136110786588
C         2.41399605688419   -0.00339611930644   -2.59976738504068
C         2.98053297785761    1.24005611898712   -1.95349274101395
C         3.41500472967056    0.72165314940989   -0.60186726174042
C         3.37891650038903   -0.70458574397119   -0.60127701819882
C         1.95579392268498    2.31086495635196   -1.82873400786967
C         0.74689198019741    2.28702188833144   -2.56201139836824
C        -0.26084626738346    3.01303076117471   -1.81532008293727
C         0.34998413566277    3.45309359977640   -0.59136178189148
C         1.72522728143178    2.99851427046652   -0.60736043156067
C        -1.57804532979735    2.58841690815267   -1.81964205386123
C        -1.95640070638485    1.41873579996622   -2.58133523337660
C        -2.94422841017123    0.70126005259182   -1.82635514214223
C        -3.18436749825394    1.42201278807517   -0.60159412412859
C        -2.34207327048777    2.59086165984147   -0.59800788801648
C        -2.93936635885645   -0.69329362617494   -1.81987469142099
C        -1.94547514125724   -1.41364508723494   -2.57729835709993
C        -1.56397367470917   -2.58432264340633   -1.82487617521811
C        -2.30747729293043   -2.58048902735660   -0.59568600394398
C        -3.16213894249485   -1.40277667418005   -0.59416899628932
C        -0.99102785378141   -0.71818018522217   -3.30356929164314
C        -0.98906819906257    0.72552837151975   -3.30456837898135
C         0.37386558402680    1.16989738544967   -3.31645548556437
C         1.22722925729099    0.00267062322564   -3.30380987193822
C         0.37865928501167   -1.16291738028086   -3.30362930589480
Cl       -2.10704040726457    0.29429849846498    5.20502544422587
Cl       -0.35824311374969   -2.11459876316708    5.19957941533743
Cl        4.44369748102594    1.85166800984284   -2.90919099402902
63
 energy: -142.094703728256 gnorm: 0.002445210844 xtb: 6.4.1 (a3dbbd7)
C        -1.32607558558768    0.00410773137771    3.59123162349890
C        -0.39454884828735   -1.28003031048158    3.58951327247227
C         0.98284715136096   -0.73080812537736    3.28862535885384
C         0.96593926637078    0.69077039212104    3.25579159285245
C        -0.37886681316849    1.14505847898084    3.29425124144013
C         2.32085664401183   -2.58889040050019    0.57410752187055
C         3.15810006604833   -1.41533906897677    0.57586933339842
C         2.91481920988963   -0.70062284172363    1.79437069882808
C         1.92569643126660   -1.41295843649262    2.55554496547228
C         1.56947958472208   -2.60312265694686    1.79823706421718
C         3.17544454779015    1.40958356761696    0.56626821675412
C         2.33252288842130    2.59375133756560    0.58044889014508
C         1.57044942478216    2.57036486482866    1.79264530719738
C         1.93789902652682    1.39900132440928    2.53698543750488
C         2.92600363402077    0.68924051260647    1.78761016014512
C        -0.37748540755084    3.44754113072256    0.58741032243579
C        -1.74960127444488    3.01050383828124    0.58996601404727
C        -1.98280365362557    2.28839099793480    1.81182808992318
C        -0.73701894578384    2.25810116240859    2.56153719634132
C         0.23990643188837    2.98302336629563    1.80603004880003
C        -3.39801588007075    0.72429640660009    0.57907276941570
C        -3.38509370194486   -0.71090795532270    0.58138296256487
C        -2.75578692928653   -1.13420930432591    1.81909262547764
C        -2.40305945009916   -0.01438389914530    2.55948985375809
C        -2.77453104080215    1.15566029327297    1.80739650748917
C        -1.71629547487833   -3.01105665056154    0.57509624946238
C        -0.35657449481252   -3.46668480058395    0.56983039244777
C         0.24817337900449   -3.01104357859249    1.79805331441983
C        -0.74791555636503   -2.29618673695544    2.55406841226928
C        -1.92227116203900   -2.28330125857196    1.81896906897304
C        -0.24502693364692   -3.02466797253364   -1.83551347759801
C         0.74515125368955   -2.29498706490531   -2.59005810956035
C         1.96671656764737   -2.29066008910893   -1.83490649958680
C         1.73794053467428   -3.01848856260187   -0.61436985769009
C         0.37074949946005   -3.47318188228844   -0.61484502370839
C         2.76649943685704   -1.14764271738323   -1.83120727020138
C         2.41469948242263   -0.00279181627902   -2.60029867158663
C         2.98278395701814    1.24065592985143   -1.95491291751644
C         3.41565323606331    0.72230582995987   -0.60251223082670
C         3.37810573615184   -0.70404686824251   -0.60104774275070
C         1.95535346567252    2.30809439774448   -1.82754268456795
C         0.74774207660885    2.28595939232778   -2.56176094108565
C        -0.26048168764454    3.01206056803834   -1.81489730774498
C         0.35021049009112    3.45212008072675   -0.59123648808913
C         1.72583034271117    2.99756093885242   -0.60732343551386
C        -1.57775229982567    2.58832175420356   -1.81971593843561
C        -1.95651728109045    1.41852828748679   -2.58174673454342
C        -2.94398764607644    0.70125523667193   -1.82666646543384
C        -3.18405440063405    1.42205015585996   -0.60177430832622
C        -2.34154637915487    2.59085132621165   -0.59817373473380
C        -2.93945235512902   -0.69339833341185   -1.82010287138682
C        -1.94549476842757   -1.41371940844328   -2.57747148592315
C        -1.56403741639192   -2.58442564131195   -1.82488646003972
C        -2.30762335710785   -2.58062653789935   -0.59579649924696
C        -3.16217968262151   -1.40281460133346   -0.59440225818000
C        -0.99082986921513   -0.71815242723420   -3.30318388473888
C        -0.98920867028455    0.72551716224190   -3.30523680399099
C         0.37343263034955    1.16964156743447   -3.31750482244966
C         1.22731878477420    0.00275657291716   -3.30388668347794
C         0.37894449903284   -1.16279674799386   -3.30307753352479
Cl       -2.10624746469717    0.29194994358578    5.20549680139390
Cl       -0.36059060083464   -2.11282673929654    5.20009034427649
Cl        4.43683897217610    1.85355602871954   -2.90688865026626
63
 energy: -142.094709340719 gnorm: 0.001747173623 xtb: 6.4.1 (a3dbbd7)
C        -1.32621558301371    0.00434271124569    3.59168314935592
C        -0.39437102584036   -1.28026897135230    3.59002853111848
C         0.98287040984636   -0.73091302761902    3.28861293187908
C         0.96598419606373    0.69072391729484    3.25605466826244
C        -0.37884242451474    1.14503247550325    3.29421317484389
C         2.32108913913056   -2.58917824355468    0.57413841713647
C         3.15828779618494   -1.41567396145898    0.57604526476526
C         2.91506153516175   -0.70080905869967    1.79466700722503
C         1.92572793247635   -1.41306023876396    2.55552776139475
C         1.56973780846590   -2.60326116525188    1.79825163400647
C         3.17495770813868    1.40914073983665    0.56670512528463
C         2.33240391225978    2.59363052273785    0.58084701961489
C         1.57066379570054    2.57043823566575    1.79310783208361
C         1.93804050131527    1.39894808463830    2.53737176810293
C         2.92614033568742    0.68902985629631    1.78800866779528
C        -0.37733230473339    3.44783235627878    0.58741854684924
C        -1.74934936465742    3.01064992064366    0.58975604578874
C        -1.98257390024299    2.28859912993565    1.81162600436633
C        -0.73686609479926    2.25812904997500    2.56137658079519
C         0.24008858174747    2.98308047747840    1.80611757859039
C        -3.39761440428812    0.72447194824855    0.57883283011608
C        -3.38467660245248   -0.71071441230209    0.58127592636336
C        -2.75547036602344   -1.13400163981707    1.81900658050362
C        -2.40266651748093   -0.01407365224019    2.55934106070577
C        -2.77408081410918    1.15576313631583    1.80712897994050
C        -1.71601845775572   -3.01073903496766    0.57502523839085
C        -0.35638372256323   -3.46651823902505    0.56968722303126
C         0.24833776276784   -3.01083382559417    1.79790245873191
C        -0.74756470553188   -2.29596194080285    2.55393788716692
C        -1.92203300859089   -2.28305646497300    1.81892815482231
C        -0.24488183336975   -3.02475204340497   -1.83564343757259
C         0.74526131460872   -2.29527186019914   -2.59034595952405
C         1.96689956426475   -2.29108220871033   -1.83496834851784
C         1.73817120937855   -3.01872634851827   -0.61445558717932
C         0.37088821765182   -3.47323746077104   -0.61498946844635
C         2.76630294731437   -1.14799731700105   -1.83099072435010
C         2.41396884283555   -0.00313431172936   -2.59959135334474
C         2.98260103845328    1.24076013482098   -1.95480127290819
C         3.41472071184194    0.72187756322468   -0.60196988715983
C         3.37786345985036   -0.70442315745967   -0.60073148921986
C         1.95450254416371    2.30698209111075   -1.82666411950213
C         0.74753801721300    2.28565445563059   -2.56148457973569
C        -0.26051492277986    3.01232271786122   -1.81493412752561
C         0.35013414073116    3.45230905511957   -0.59127259804302
C         1.72549140611930    2.99717408747303   -0.60692087447903
C        -1.57769854534406    2.58861476726957   -1.82004380828269
C        -1.95642584977705    1.41860058972311   -2.58212905784584
C        -2.94373930813700    0.70143147144951   -1.82695164941535
C        -3.18373414819634    1.42220169097757   -0.60198738523138
C        -2.34126546737292    2.59102776237839   -0.59841588679752
C        -2.93920666010833   -0.69325720506951   -1.82028145334900
C        -1.94537435454690   -1.41369527392384   -2.57774229179850
C        -1.56379547744018   -2.58429906289077   -1.82496885757846
C        -2.30734533574936   -2.58037124182483   -0.59589006185162
C        -3.16187423058222   -1.40260291461829   -0.59454403737808
C        -0.99076693233608   -0.71824288117739   -3.30352375475930
C        -0.98923714119802    0.72547641122637   -3.30580898399184
C         0.37331301884701    1.16946992716310   -3.31765661346150
C         1.22696241299953    0.00245898699316   -3.30358499649710
C         0.37901207436160   -1.16310703108079   -3.30337696521421
Cl       -2.10975857711163    0.29918609376955    5.20343436925265
Cl       -0.35471660029899   -2.11834549572444    5.19787773987191