60
Energy = -2284.464257019
C    -1.2362634    0.0000000    3.3299764 
C    -0.3820264   -1.1757564    3.3299764 
C     1.0001581   -0.7266574    3.3299764 
C     1.0001581    0.7266574    3.3299764 
C    -0.3820264    1.1757564    3.3299764 
C     2.3443356   -2.6014575    0.5946421 
C     3.1985726   -1.4257011    0.5946421 
C     2.9624673   -0.6990437    1.8309055 
C     1.9623092   -1.4257011    2.5949583 
C     1.5802828   -2.6014575    1.8309055 
C     3.1985726    1.4257011    0.5946421 
C     2.3443356    2.6014575    0.5946421 
C     1.5802828    2.6014575    1.8309055 
C     1.9623092    1.4257011    2.5949583 
C     2.9624673    0.6990437    1.8309055 
C    -0.3675090    3.4825892    0.5946421 
C    -1.7496935    3.0334903    0.5946421 
C    -1.9857988    2.3068329    1.8309055 
C    -0.7495354    2.3068329    2.5949583 
C     0.2506227    3.0334903    1.8309055 
C    -3.4257057    0.7266574    0.5946421 
C    -3.4257057   -0.7266574    0.5946421 
C    -2.8075740   -1.1757564    1.8309055 
C    -2.4255476    0.0000000    2.5949583 
C    -2.8075740    1.1757564    1.8309055 
C    -1.7496935   -3.0334903    0.5946421 
C    -0.3675090   -3.4825892    0.5946421 
C     0.2506227   -3.0334903    1.8309055 
C    -0.7495354   -2.3068329    2.5949583 
C    -1.9857988   -2.3068329    1.8309055 
C    -0.2506227   -3.0334903   -1.8309055 
C     0.7495354   -2.3068329   -2.5949583 
C     1.9857988   -2.3068329   -1.8309055 
C     1.7496935   -3.0334903   -0.5946421 
C     0.3675090   -3.4825892   -0.5946421 
C     2.8075740   -1.1757564   -1.8309055 
C     2.4255476    0.0000000   -2.5949583 
C     2.8075740    1.1757564   -1.8309055 
C     3.4257057    0.7266574   -0.5946421 
C     3.4257057   -0.7266574   -0.5946421 
C     1.9857988    2.3068329   -1.8309055 
C     0.7495354    2.3068329   -2.5949583 
C    -0.2506227    3.0334903   -1.8309055 
C     0.3675090    3.4825892   -0.5946421 
C     1.7496935    3.0334903   -0.5946421 
C    -1.5802828    2.6014575   -1.8309055 
C    -1.9623092    1.4257011   -2.5949583 
C    -2.9624673    0.6990437   -1.8309055 
C    -3.1985726    1.4257011   -0.5946421 
C    -2.3443356    2.6014575   -0.5946421 
C    -2.9624673   -0.6990437   -1.8309055 
C    -1.9623092   -1.4257011   -2.5949583 
C    -1.5802828   -2.6014575   -1.8309055 
C    -2.3443356   -2.6014575   -0.5946421 
C    -3.1985726   -1.4257011   -0.5946421 
C    -1.0001581   -0.7266574   -3.3299764 
C    -1.0001581    0.7266574   -3.3299764 
C     0.3820264    1.1757564   -3.3299764 
C     1.2362634    0.0000000   -3.3299764 
C     0.3820264   -1.1757564   -3.3299764 
