62
 energy: -137.540781273092 gnorm: 0.000172209323 xtb: 6.4.1 (a3dbbd7)
C        -1.30816719354005    0.00303055422364    3.53910757453462
C        -0.37399303755596   -1.16785227046249    3.31525423964809
C         0.95976545915919   -0.71638043789547    3.27761178071295
C         0.96320424498516    0.73068015049157    3.28009653062330
C        -0.38634639715556    1.18206944037829    3.31829256657827
C         2.32153171182669   -2.58051686404421    0.56941231533871
C         3.16495548100575   -1.41550853316419    0.56606322466234
C         2.92441277918631   -0.69925007928474    1.80791358981703
C         1.94653669020682   -1.40794003604926    2.55179445950513
C         1.56519481149820   -2.57583458418951    1.79762456748920
C         3.17660634920353    1.41709456226355    0.60005872086505
C         2.31770306734162    2.56438709809789    0.58728471335862
C         1.55789131961215    2.57904679999715    1.81496346453426
C         1.92802208553128    1.42475326180818    2.56110721092451
C         2.92250744317603    0.70480194025761    1.78204753979841
C        -0.37333109898588    3.45655664836147    0.59849895163575
C        -1.74327128872811    3.00530111317197    0.59539372203327
C        -1.99157464192659    2.29719003795203    1.82105763084572
C        -0.75347539093581    2.28553632004207    2.57756661644802
C         0.23239499198499    3.00897817209609    1.81548576640568
C        -3.40385748876171    0.71755637064056    0.57929461420222
C        -3.39910953346585   -0.71779438343555    0.58025816316431
C        -2.77450040260075   -1.14621894577757    1.81725234480543
C        -2.43170890802350   -0.00120308659612    2.56469186788055
C        -2.78569683438715    1.15442762387972    1.81237490616365
C        -1.73162981416708   -3.00519934794356    0.58640389261118
C        -0.36634465602207   -3.45450935847281    0.58035259933137
C         0.24896973342846   -2.99837799450698    1.80153762540192
C        -0.74621817802332   -2.28115453000511    2.56903663094519
C        -1.96516444640275   -2.29118441995058    1.82319342522084
C        -0.25349157036338   -3.02013617051213   -1.82629467078225
C         0.73755260900993   -2.29237208257960   -2.58306889252640
C         1.96066205113719   -2.29173635587917   -1.82358254752402
C         1.73092462661042   -3.01957853920150   -0.60741543579493
C         0.36090895742006   -3.46775286803201   -0.60420492810328
C         2.77726668127092   -1.16071208132520   -1.81012193220726
C         2.39772606771259    0.00531035253489   -2.56736741778722
C         2.79113191253162    1.16800785135287   -1.83537955361689
C         3.63863232783992    0.76060031766019   -0.64981841245918
C         3.40939728146846   -0.73485404798163   -0.60532366493248
C         1.96950279876615    2.26906566073125   -1.81983623235749
C         0.74629753726971    2.27395950530882   -2.57113336848346
C        -0.24465417551531    2.99671507893039   -1.80940512556137
C         0.36805966184388    3.44826432294657   -0.58554747241781
C         1.73153802748394    3.01421961517477   -0.58650331736156
C        -1.56622213496162    2.57515068168429   -1.81631859910617
C        -1.94985130295928    1.41196001710927   -2.58030487096495
C        -2.94393555963918    0.69401102612834   -1.82440015466929
C        -3.17887006053285    1.41230134968142   -0.59951817977099
C        -2.32595652241148    2.57545600243554   -0.59245251253448
C        -2.94345630130389   -0.69742105509703   -1.82238823859193
C        -1.95352110036138   -1.41913927611972   -2.57998051796939
C        -1.57340514083442   -2.58634354675332   -1.82038159356053
C        -2.32593634049808   -2.58570530764885   -0.59463791141880
C        -3.17487292290205   -1.41219175207777   -0.59526283560539
C        -0.99931383740934   -0.72585456864653   -3.31137955971464
C        -0.99860683760511    0.71655712092899   -3.31162020560942
C         0.37457929420783    1.15787619238262   -3.30903490435573
C         1.21768234125520   -0.00264998685424   -3.30622353852384
C         0.37205232397898   -1.17021896736412   -3.31139725973400
Cl       -1.95542631133422   -0.00448413195802    5.25545751300781
Cl        5.40974639469144    1.12086831483100   -0.97333717483213
