62
 energy: -137.550025854462 gnorm: 0.000108519656 xtb: 6.4.1 (a3dbbd7)
C        -1.30320630805611    0.00293351972416    3.53580216936118
C        -0.37844363720965   -1.17353013293294    3.31151425982108
C         0.97409473911499   -0.72154962499484    3.27812230413672
C         0.97242777449420    0.72259971164660    3.28043111140765
C        -0.37201801509797    1.17564849628029    3.31130509454216
C         2.32089235002673   -2.57669985192733    0.57893860575573
C         3.18874334415393   -1.40788217410350    0.59006469011119
C         2.94280010389777   -0.69347501667381    1.80027318917654
C         1.94197852404035   -1.41366064423106    2.55679416452952
C         1.56711771489398   -2.57013643278513    1.80448088254421
C         3.18018328876863    1.42960439603996    0.58731257798573
C         2.33779841471348    2.59758099712229    0.58873897902934
C         1.57636575505930    2.58766065565113    1.81355888548993
C         1.94987545593689    1.41778314049979    2.56259429583535
C         2.93630680094297    0.70211702431716    1.81117724768620
C        -0.36020492057763    3.45198539551312    0.58706963534643
C        -1.73350919179253    3.00539126716138    0.59312171043362
C        -1.96713894129851    2.29634655826490    1.81296266992206
C        -0.73735085694626    2.28153054557607    2.56927139742021
C         0.25430049494357    3.00324082107994    1.81051229525067
C        -3.40277052239169    0.72189391953218    0.57811782074755
C        -3.40645214626910   -0.71460162001250    0.57854131657679
C        -2.78239781574000   -1.14782916879360    1.81077956342328
C        -2.42499165916322    0.00517789760882    2.55745305072614
C        -2.77422825555320    1.15113312597644    1.81253348122745
C        -1.74386987564040   -2.99723289406781    0.59845848655969
C        -0.36594184150597   -3.43761421268839    0.59605084683219
C         0.24110353539798   -2.99568496481121    1.81266868143363
C        -0.74443457554367   -2.27589690065997    2.57476428690350
C        -1.98641924980305   -2.29325666718391    1.81545765945682
C        -0.23910906044627   -2.98045535827730   -1.81271964798814
C         0.73534123013746   -2.29472074294141   -2.58343668013178
C         2.09869239203182   -2.45201307619955   -1.94373041830275
C         1.74018681212128   -3.01825991679476   -0.58714091284491
C         0.37312181898390   -3.42555820876025   -0.58283029018832
C         2.79407310506071   -1.14204447929321   -1.81808171085155
C         2.40171289720117   -0.00562259567000   -2.55616388029702
C         2.78482713296597    1.17904758438705   -1.81264389765742
C         3.39915981226237    0.73624766753388   -0.59195759401974
C         3.38617514433542   -0.71125881767321   -0.60214323782295
C         1.97164461889513    2.29775518069310   -1.81377535167467
C         0.73730167210970    2.29651779744002   -2.57247552811025
C        -0.24428522739958    3.01221532948651   -1.82114689186272
C         0.36737707132932    3.46012920648071   -0.59198510865825
C         1.74211015090093    3.02272157852223   -0.59176193068363
C        -1.57449441862427    2.58423810465717   -1.81459912799404
C        -1.95242856182556    1.41697926199836   -2.57636688321498
C        -2.95101526925740    0.69680867552528   -1.82442523079959
C        -3.17817881276338    1.41452468486945   -0.59771235239996
C        -2.32362965107629    2.58455501585915   -0.59844789098875
C        -2.95724999078604   -0.69212702698184   -1.82619711718731
C        -1.95833454567436   -1.41314277840096   -2.57609687771398
C        -1.57555835328974   -2.57077284929022   -1.81282382509848
C        -2.32891434269609   -2.57239277225501   -0.59529436282918
C        -3.18676010265843   -1.41023353735053   -0.59924988113543
C        -0.99661610924495   -0.71972441902139   -3.29363928624732
C        -0.99607338717268    0.72104592617875   -3.29794673092180
C         0.37906509692195    1.16201118198607   -3.30032974411711
C         1.21916934870246    0.00464356290864   -3.30738394492993
C         0.37466281581824   -1.16637891663620   -3.29320329779725
Cl       -1.94691877634726    0.00893977686365    5.24995969928865
Cl        3.12474420818012   -3.63465255279744   -2.89368219457518
