62
 energy: -137.542830385050 gnorm: 0.000094312698 xtb: 6.4.1 (a3dbbd7)
C        -1.28935981714922   -0.01316779693083    3.55079366428009
C        -0.36197339299040   -1.19013863754908    3.32324800748876
C         0.98841133469822   -0.73228489142875    3.29146905264049
C         0.98587662719098    0.71141653504292    3.29273500595498
C        -0.36227659354244    1.16032171496561    3.31701049550682
C         2.34460836840241   -2.58594317526271    0.58971391693787
C         3.18714674860948   -1.41677163083066    0.58669248288437
C         2.94870305092754   -0.69689927954052    1.81258391842485
C         1.96050347231437   -1.42166399174851    2.56919039921228
C         1.59015429708375   -2.58703637936474    1.81672067677637
C         3.18414298401700    1.41651696718706    0.58494270502463
C         2.34028972886590    2.58032251283336    0.58431014815802
C         1.57683307297263    2.57058943553989    1.80893739053374
C         1.95354912365184    1.40737513662463    2.56424021971159
C         2.94546210771419    0.69176397865286    1.81278983178222
C        -0.36250897427780    3.42510283054043    0.57636690550308
C        -1.72998074154535    2.98366167208071    0.56752388941594
C        -1.96133400883530    2.25415899835104    1.79929570649746
C        -0.73077710900692    2.25760925598330    2.56651289632670
C         0.25176347691739    2.97875932657416    1.80528198611683
C        -3.40765994027687    0.70419396529725    0.57788163791247
C        -3.36531889461898   -0.68609932741279    0.57170056151173
C        -2.74202664655201   -1.13895845723430    1.81861426422952
C        -2.40820027956428   -0.02202683864367    2.57733183386023
C        -2.76456949067173    1.13330788274681    1.79367061304721
C        -1.73254749301906   -2.99962952368706    0.60875858496329
C        -0.35412334689739   -3.44402513951593    0.59352497444971
C         0.26657705111444   -3.00797207569255    1.81851739645451
C        -0.72204364718632   -2.29210538088461    2.58077780186266
C        -1.95892450521864   -2.31034864452552    1.81637090560323
C        -0.24601922269561   -2.99793896735625   -1.81882551442962
C         0.74796648142327   -2.28438762728315   -2.57644728731969
C         1.97154189031997   -2.28373321777882   -1.81472379224250
C         1.74139877618541   -3.00622377023973   -0.58900322268582
C         0.37123895755770   -3.44645330439569   -0.58394195435118
C         2.79419961474026   -1.16442004824019   -1.81940066587070
C         2.41696743084410   -0.00003396161996   -2.57962859823932
C         2.79731663620855    1.16614655322189   -1.82092870699833
C         3.40970918486894    0.72117936032655   -0.59579047703164
C         3.40938443355761   -0.72113894507719   -0.59421245571807
C         1.98177905916533    2.29016275921583   -1.82047966035163
C         0.75062939763416    2.28655550261266   -2.57816394814822
C        -0.23820278918683    2.99992950087747   -1.82052392527133
C         0.37345183571662    3.44499343005402   -0.59853375098356
C         1.74937604552051    3.00967856633200   -0.59785427071087
C        -1.56586618598549    2.56556014336567   -1.81225128863523
C        -1.94270423994123    1.39751518093425   -2.57248052546554
C        -2.94802279940327    0.68892446882891   -1.85036269768708
C        -3.39534153906106    1.51707130032685   -0.66246778484313
C        -2.32607067765887    2.58723758461020   -0.61171338440561
C        -2.93027266206945   -0.68757453629416   -1.83698014087712
C        -1.93578855472109   -1.40771292009684   -2.58750242258044
C        -1.56032493895972   -2.56758634400681   -1.81956533038589
C        -2.33448325940213   -2.56224998148330   -0.59548494703819
C        -3.17157686325542   -1.42918364956598   -0.60964041305777
C        -0.97896313491947   -0.72027866405025   -3.32301631606655
C        -0.98074288530377    0.71547040732394   -3.31499981548908
C         0.38794599864578    1.16378458823429   -3.31043707552767
C         1.23791882957725   -0.00043500678808   -3.31289193048192
C         0.39066696549707   -1.16618115002265   -3.31930137448903
Cl       -1.87593740432205    0.01289686435473    5.28761132860764
Cl       -5.01950897304736    2.29719853747917   -1.00158862846163
