62
 energy: -137.578032777751 gnorm: 0.000212875043 xtb: 6.4.1 (a3dbbd7)
C        -1.29585809770389    0.00401118895665    3.54517689253707
C        -0.36796043462932   -1.17243305037605    3.30515820978008
C         0.98298838983527   -0.72191219207564    3.27512267938171
C         0.98156472667820    0.71960753568128    3.26971969810914
C        -0.37066843460465    1.17924059903467    3.30150764336582
C         2.33648296603916   -2.58548060331365    0.57950289353032
C         3.18657767574002   -1.41946403927647    0.57781419519059
C         2.94957050639235   -0.69854930596759    1.80123308070154
C         1.95308396824160   -1.41752165468763    2.55613481575760
C         1.57961582989334   -2.57968580837377    1.80518673242103
C         3.18767024140451    1.40991878522763    0.57593180000620
C         2.33807592116844    2.57402574447607    0.57591940981122
C         1.57683795432701    2.56605672107525    1.79975339071644
C         1.95304946465436    1.40835201077487    2.55205927518980
C         2.95072023087345    0.68875745016373    1.80098024572921
C        -0.36516779407368    3.42666371337356    0.57921714423118
C        -1.72924376763824    3.01648005769000    0.58287705261872
C        -2.09463355992581    2.46231283092052    1.94730853815858
C        -0.73027134402217    2.28553619303067    2.58224921102021
C         0.24829448349984    2.97593693112150    1.80334175266563
C        -3.37466967425340    0.70300551354290    0.57574930054980
C        -3.39003092747716   -0.73268815647906    0.56838248265369
C        -2.76818811332164   -1.16356142379097    1.78871572221350
C        -2.38904763706855    0.02437925876362    2.53264263719760
C        -2.74834472563595    1.12995086275151    1.81420011519069
C        -1.73481952350512   -3.00995345714269    0.57938225060336
C        -0.36149853481650   -3.44686666227317    0.58178847315895
C         0.25217194581416   -2.99475012292755    1.80551621994623
C        -0.72930832442940   -2.27346636839910    2.56467955448571
C        -1.97147545426586   -2.28746259170963    1.79868366133100
C        -0.24419850626392   -3.01431906333444   -1.82647673840836
C         0.74940205407495   -2.29291975825760   -2.58286291053874
C         1.97453700933417   -2.29239152843074   -1.82543977586922
C         1.74139873400736   -3.01127177410490   -0.59946235558356
C         0.36858334367966   -3.45436466613801   -0.59762914044760
C         2.79442417392884   -1.17031401259636   -1.82833550603033
C         2.41574661888024   -0.00512369156855   -2.58546959716668
C         2.79806943075341    1.16104826420258   -1.83045397172065
C         3.41356646771945    0.71553904943849   -0.60565027142670
C         3.41126633561149   -0.72579612454708   -0.60436594395851
C         1.98256115248497    2.28538932455247   -1.82964816243281
C         0.75350030257848    2.28551308199782   -2.58573232036207
C        -0.23508280213456    3.00436687409655   -1.82344140492918
C         0.37359850932028    3.44286488622179   -0.60220138863872
C         1.74684322376492    3.00246743943424   -0.60372642363492
C        -1.55566653231806    2.56818250386052   -1.80941223575869
C        -1.93859434646944    1.40592010794080   -2.57168095880615
C        -2.93551210457882    0.68461262535792   -1.82146846772098
C        -3.16898901542976    1.39767486975662   -0.59605965548237
C        -2.30435127723071    2.57332623923171   -0.58497549467516
C        -2.94114405309208   -0.70773319324488   -1.83440725641731
C        -1.94505174577217   -1.42387954875747   -2.59102123506710
C        -1.56548890447542   -2.59170746585215   -1.83211639425372
C        -2.32839595515909   -2.59312664323360   -0.60918315818311
C        -3.17773883494341   -1.43218193772331   -0.61434027474195
C        -0.98775846759569   -0.72638522820754   -3.31322849837523
C        -0.98659864719709    0.71557045430270   -3.30737103326374
C         0.38544609985482    1.16109326139683   -3.31071431261235
C         1.23106807703669   -0.00470839638716   -3.31198800126459
C         0.38446650889097   -1.17000629330740   -3.31255499443923
Cl       -1.95494402230001   -0.00808767739961    5.23350834621500
Cl       -3.13453400437008    3.62205440029917    2.87428256883422
