62
 energy: -137.548932731850 gnorm: 0.000216546160 xtb: 6.4.1 (a3dbbd7)
C        -1.30057937290048   -0.00375782924012    3.52990401216605
C        -0.37532999176669   -1.17728423666387    3.29604197881968
C         0.97688239648467   -0.72881090607651    3.26690718527674
C         0.96079943082984    0.72390299373134    3.28339327238081
C        -0.36674732643528    1.17022950957659    3.31331185931899
C         2.32079321588452   -2.55915595300767    0.57605651219209
C         3.18271278603434   -1.42459317706617    0.57814146923437
C         3.14201166560889   -0.75352855200871    1.93577916973608
C         1.94822699348892   -1.42499793360097    2.57378942728275
C         1.56093088157834   -2.55415594598187    1.80372426014069
C         3.15576250444835    1.41297224257901    0.58285633236231
C         2.32259294727981    2.59188275241492    0.57249047605769
C         1.56511523120685    2.58791914364437    1.79474201988585
C         1.94516116430139    1.40557693585467    2.53849156540164
C         2.91932021195031    0.71116872745491    1.80791060167897
C        -0.36321172063918    3.46242230625700    0.57630391948542
C        -1.73064714764003    3.00669714056108    0.58533416723011
C        -1.95672378545477    2.29423943405141    1.81883545843903
C        -0.74640048136345    2.28801350031007    2.56509156435917
C         0.25008418023954    3.00735469654374    1.79790603191668
C        -3.39648404654605    0.71243372622861    0.57384648076711
C        -3.40957655740375   -0.72151171815431    0.56984442503824
C        -2.78657681789930   -1.15526960913649    1.79901242299201
C        -2.42475435001794    0.00452377558460    2.55370410945233
C        -2.76967535089073    1.14073553552226    1.81390877602446
C        -1.74741992826069   -3.00127556618665    0.57961648407910
C        -0.37384613032881   -3.43772618352790    0.57962699092749
C         0.23945377123020   -2.99329219914527    1.80401336417433
C        -0.74500003196055   -2.27969669844291    2.56158826023740
C        -1.98659438249994   -2.28936885693275    1.80100203865914
C        -0.25833679323267   -3.01426271937359   -1.82751726520700
C         0.73660366496401   -2.29199182271277   -2.58463766129091
C         1.95986341775759   -2.29257021145362   -1.82483261985694
C         1.72741205855479   -3.00194590529250   -0.60371230750863
C         0.35385525728903   -3.44923319974286   -0.60228588090875
C         2.77434616391843   -1.16266741630176   -1.81606233393116
C         2.40210277314634   -0.00196987866197   -2.57612230174182
C         2.78450513354040    1.16654344676334   -1.81946733345895
C         3.39997733276940    0.72832342547168   -0.59934124236000
C         3.38691668302292   -0.72575532507129   -0.59019890808854
C         1.96626850995953    2.29220570386412   -1.82848324526564
C         0.74170551937244    2.29001087713320   -2.58612337108125
C        -0.24814026065588    3.01449333129111   -1.83013727951887
C         0.36492687444269    3.46822631758840   -0.60554682625686
C         1.73520079524175    3.02292406511153   -0.60723376020229
C        -1.56720675544961    2.58010060487111   -1.82200364525594
C        -1.94891475803193    1.41468865050123   -2.58250433464321
C        -2.94157017787817    0.69422328666605   -1.82764836329664
C        -3.17088635643239    1.40909837537166   -0.59913796622797
C        -2.31991252753710    2.57933059841427   -0.59558132144418
C        -2.94977262412012   -0.69623240073801   -1.83379395818946
C        -1.95583481036196   -1.41680224102035   -2.59024003840017
C        -1.58121401164586   -2.58448001739441   -1.82990844096089
C        -2.34234472554215   -2.58423274499549   -0.61104659303377
C        -3.18790248123042   -1.41790493366055   -0.61157689605431
C        -0.99746375219206   -0.72167843512889   -3.31312727728438
C        -0.99431742596699    0.72087879438013   -3.31226454057288
C         0.37624856580544    1.16518554973423   -3.31559791339780
C         1.22152090841173   -0.00132928254717   -3.30836526629426
C         0.37424942196363   -1.16691193868309   -3.31102403605159
Cl       -1.94113508926746   -0.01884165398156    5.24245031647314
Cl        4.68761470179134   -1.08042882297451    2.86576484411832
