 Entering Gaussian System, Link 0=g16
 Input=bog6336iededc_addon_2.gjf
 Output=bog6336iededc_addon_2.log
 Initial command:
 /home/mkliu/g16/l1.exe "/data/scratch/Gau-19141.inp" -scrdir="/data/scratch/"
 Entering Link 1 = /home/mkliu/g16/l1.exe PID=     19142.
  
 Copyright (c) 1988,1990,1992,1993,1995,1998,2003,2009,2016,
            Gaussian, Inc.  All Rights Reserved.
  
 This is part of the Gaussian(R) 16 program.  It is based on
 the Gaussian(R) 09 system (copyright 2009, Gaussian, Inc.),
 the Gaussian(R) 03 system (copyright 2003, Gaussian, Inc.),
 the Gaussian(R) 98 system (copyright 1998, Gaussian, Inc.),
 the Gaussian(R) 94 system (copyright 1995, Gaussian, Inc.),
 the Gaussian 92(TM) system (copyright 1992, Gaussian, Inc.),
 the Gaussian 90(TM) system (copyright 1990, Gaussian, Inc.),
 the Gaussian 88(TM) system (copyright 1988, Gaussian, Inc.),
 the Gaussian 86(TM) system (copyright 1986, Carnegie Mellon
 University), and the Gaussian 82(TM) system (copyright 1983,
 Carnegie Mellon University). Gaussian is a federally registered
 trademark of Gaussian, Inc.
  
 This software contains proprietary and confidential information,
 including trade secrets, belonging to Gaussian, Inc.
  
 This software is provided under written license and may be
 used, copied, transmitted, or stored only in accord with that
 written license.
  
 The following legend is applicable only to US Government
 contracts under FAR:
  
                    RESTRICTED RIGHTS LEGEND
  
 Use, reproduction and disclosure by the US Government is
 subject to restrictions as set forth in subparagraphs (a)
 and (c) of the Commercial Computer Software - Restricted
 Rights clause in FAR 52.227-19.
  
 Gaussian, Inc.
 340 Quinnipiac St., Bldg. 40, Wallingford CT 06492
  
  
 ---------------------------------------------------------------
 Warning -- This program may not be used in any manner that
 competes with the business of Gaussian, Inc. or will provide
 assistance to any competitor of Gaussian, Inc.  The licensee
 of this program is prohibited from giving any competitor of
 Gaussian, Inc. access to this program.  By using this program,
 the user acknowledges that Gaussian, Inc. is engaged in the
 business of creating and licensing software in the field of
 computational chemistry and represents and warrants to the
 licensee that it is not a competitor of Gaussian, Inc. and that
 it will not use this program in any manner prohibited above.
 ---------------------------------------------------------------
  

 Cite this work as:
 Gaussian 16, Revision A.03,
 M. J. Frisch, G. W. Trucks, H. B. Schlegel, G. E. Scuseria, 
 M. A. Robb, J. R. Cheeseman, G. Scalmani, V. Barone, 
 G. A. Petersson, H. Nakatsuji, X. Li, M. Caricato, A. V. Marenich, 
 J. Bloino, B. G. Janesko, R. Gomperts, B. Mennucci, H. P. Hratchian, 
 J. V. Ortiz, A. F. Izmaylov, J. L. Sonnenberg, D. Williams-Young, 
 F. Ding, F. Lipparini, F. Egidi, J. Goings, B. Peng, A. Petrone, 
 T. Henderson, D. Ranasinghe, V. G. Zakrzewski, J. Gao, N. Rega, 
 G. Zheng, W. Liang, M. Hada, M. Ehara, K. Toyota, R. Fukuda, 
 J. Hasegawa, M. Ishida, T. Nakajima, Y. Honda, O. Kitao, H. Nakai, 
 T. Vreven, K. Throssell, J. A. Montgomery, Jr., J. E. Peralta, 
 F. Ogliaro, M. J. Bearpark, J. J. Heyd, E. N. Brothers, K. N. Kudin, 
 V. N. Staroverov, T. A. Keith, R. Kobayashi, J. Normand, 
 K. Raghavachari, A. P. Rendell, J. C. Burant, S. S. Iyengar, 
 J. Tomasi, M. Cossi, J. M. Millam, M. Klene, C. Adamo, R. Cammi, 
 J. W. Ochterski, R. L. Martin, K. Morokuma, O. Farkas, 
 J. B. Foresman, and D. J. Fox, Gaussian, Inc., Wallingford CT, 2016.
 
 ******************************************
 Gaussian 16:  ES64L-G16RevA.03 25-Dec-2016
                15-Jul-2022 
 ******************************************
 %mem=10GB
 %chk=bog6336iededc_addon_2.chk
 %nprocshared=48
 Will use up to   48 processors via shared memory.
 -------------------------------------------------
 #P opt b3lyp/6-311G(d, p) empiricaldispersion=GD3
 -------------------------------------------------
 1/18=20,19=15,26=3,38=1/1,3;
 2/9=110,12=2,17=6,18=5,40=1/2;
 3/5=4,6=6,7=101,11=2,25=1,30=1,71=1,74=-5,124=31/1,2,3;
 4//1;
 5/5=2,38=5/2;
 6/7=2,8=2,9=2,10=2,28=1/1;
 7//1,2,3,16;
 1/18=20,19=15,26=3/3(2);
 2/9=110/2;
 99//99;
 2/9=110/2;
 3/5=4,6=6,7=101,11=2,25=1,30=1,71=1,74=-5,124=31/1,2,3;
 4/5=5,16=3,69=1/1;
 5/5=2,38=5/2;
 7//1,2,3,16;
 1/18=20,19=15,26=3/3(-5);
 2/9=110/2;
 6/7=2,8=2,9=2,10=2,19=2,28=1/1;
 99/9=1/99;
 Leave Link    1 at Fri Jul 15 01:00:14 2022, MaxMem=  1342177280 cpu:               2.2 elap:               0.1
 (Enter /home/mkliu/g16/l101.exe)
 -----
 force
 -----
 Symbolic Z-matrix:
 Charge =  0 Multiplicity = 1
 C                    -1.3151    1.87299  -3.90006 
 C                     0.20055   2.19843  -3.94985 
 C                     0.85768   0.8408   -4.0667 
 C                    -1.35704   0.36352  -3.99771 
 C                    -0.08251  -0.19594  -4.20336 
 C                    -2.15398  -0.17317  -3.00813 
 C                    -1.94573   2.07786  -2.55845 
 C                    -2.60838   0.91123  -2.16388 
 C                    -1.43096   2.95021  -1.59335 
 C                     0.76627   2.66751  -2.64582 
 C                    -0.00639   3.25949  -1.63959 
 C                     1.86104   0.69563  -3.13287 
 C                     1.8739    1.88361  -2.30399 
 C                     2.238    -0.56186  -2.57312 
 C                     0.2006   -1.42945  -3.62824 
 C                     1.44627  -1.65364  -2.9673 
 C                    -1.94739  -1.46759  -2.44408 
 C                    -0.80065  -2.13937  -2.89839 
 C                    -2.4635   -1.74823  -1.11632 
 C                    -3.03968   0.67271  -0.85028 
 C                    -3.0549   -0.67969  -0.32713 
 C                    -2.0327    2.84692  -0.33072 
 C                    -2.89453   1.7682    0.01169 
 C                    -1.38732   3.27324   0.87557 
 C                     0.65386   3.42989  -0.41417 
 C                    -0.0398    3.56514   0.83385 
 C                     2.43732   1.85958  -1.01962 
 C                     1.90208   2.80713  -0.13566 
 C                     2.89862  -0.58726  -1.28048 
 C                     3.03877   0.64043  -0.51413 
 C                     2.88653  -1.79686  -0.57163 
 C                     1.27444  -2.77787  -2.09847 
 C                    -0.13065  -3.08192  -2.05541 
 C                     2.03169  -2.89011  -0.95917 
 C                    -1.91254  -2.83645  -0.42515 
 C                    -0.70661  -3.48328  -0.87582 
 C                    -1.90394  -2.91198   1.0049 
 C                    -3.11113  -0.81001   1.06515 
 C                    -2.51033  -1.92106   1.74348 
 C                    -2.86528   1.59776   1.43104 
 C                    -1.9285    2.53317   1.98624 
 C                    -2.99188   0.32699   1.94741 
 C                    -1.10827   2.13538   3.0256 
 C                     0.82175   3.12852   1.90183 
 C                     2.02721   2.65718   1.28073 
 C                     0.30134   2.4409    2.98261 
 C                     3.2234    0.56218   0.87065 
 C                     2.6967    1.55881   1.773 
 C                     2.99325  -1.8513    0.85535 
 C                     3.17716  -0.68872   1.56919 
 C                     1.47324  -3.48559   0.22044 
 C                     0.11583  -3.77966   0.26175 
 C                    -0.64719  -3.46882   1.43488 
 C                     2.10713  -2.87258   1.35081 
 C                    -0.01938  -2.94602   2.55344 
 C                     1.38643  -2.64186   2.51085 
 C                    -1.9108   -1.45207   2.96237 
 C                    -2.21017  -0.05385   3.08852 
 C                    -1.26103   0.82402   3.59621 
 C                    -0.66779  -1.93186   3.33944 
 C                     1.01618   1.3176    3.52679 
 C                     2.21161   0.90404   2.95323 
 C                     2.511    -0.49427   2.82727 
 C                     1.60264  -1.44058   3.27039 
 C                     0.0494    0.33187   3.93896 
 C                     0.33808  -1.01741   3.81135 
 Cl                   -2.29255   2.74455  -5.11968 
 Cl                    0.65966   3.34913  -5.24202 
 
 ITRead=  0  0  0  0  0  0  0  0  0  0  0  0  0  0  0  0  0  0  0  0
 ITRead=  0  0  0  0  0  0  0  0  0  0  0  0  0  0  0  0  0  0  0  0
 ITRead=  0  0  0  0  0  0  0  0  0  0  0  0  0  0  0  0  0  0  0  0
 ITRead=  0  0  0  0  0  0  0  0
 MicOpt= -1 -1 -1 -1 -1 -1 -1 -1 -1 -1 -1 -1 -1 -1 -1 -1 -1 -1 -1 -1
 MicOpt= -1 -1 -1 -1 -1 -1 -1 -1 -1 -1 -1 -1 -1 -1 -1 -1 -1 -1 -1 -1
 MicOpt= -1 -1 -1 -1 -1 -1 -1 -1 -1 -1 -1 -1 -1 -1 -1 -1 -1 -1 -1 -1
 MicOpt= -1 -1 -1 -1 -1 -1 -1 -1
 NAtoms=     68 NQM=       68 NQMF=       0 NMMI=      0 NMMIF=      0
                NMic=       0 NMicF=      0.
                    Isotopes and Nuclear Properties:
 (Nuclear quadrupole moments (NQMom) in fm**2, nuclear magnetic moments (NMagM)
  in nuclear magnetons)

  Atom         1           2           3           4           5           6           7           8           9          10
 IAtWgt=          12          12          12          12          12          12          12          12          12          12
 AtmWgt=  12.0000000  12.0000000  12.0000000  12.0000000  12.0000000  12.0000000  12.0000000  12.0000000  12.0000000  12.0000000
 NucSpn=           0           0           0           0           0           0           0           0           0           0
 AtZEff=  -0.0000000  -0.0000000  -0.0000000  -0.0000000  -0.0000000  -0.0000000  -0.0000000  -0.0000000  -0.0000000  -0.0000000
 NQMom=    0.0000000   0.0000000   0.0000000   0.0000000   0.0000000   0.0000000   0.0000000   0.0000000   0.0000000   0.0000000
 NMagM=    0.0000000   0.0000000   0.0000000   0.0000000   0.0000000   0.0000000   0.0000000   0.0000000   0.0000000   0.0000000
 AtZNuc=   6.0000000   6.0000000   6.0000000   6.0000000   6.0000000   6.0000000   6.0000000   6.0000000   6.0000000   6.0000000

  Atom        11          12          13          14          15          16          17          18          19          20
 IAtWgt=          12          12          12          12          12          12          12          12          12          12
 AtmWgt=  12.0000000  12.0000000  12.0000000  12.0000000  12.0000000  12.0000000  12.0000000  12.0000000  12.0000000  12.0000000
 NucSpn=           0           0           0           0           0           0           0           0           0           0
 AtZEff=  -0.0000000  -0.0000000  -0.0000000  -0.0000000  -0.0000000  -0.0000000  -0.0000000  -0.0000000  -0.0000000  -0.0000000
 NQMom=    0.0000000   0.0000000   0.0000000   0.0000000   0.0000000   0.0000000   0.0000000   0.0000000   0.0000000   0.0000000
 NMagM=    0.0000000   0.0000000   0.0000000   0.0000000   0.0000000   0.0000000   0.0000000   0.0000000   0.0000000   0.0000000
 AtZNuc=   6.0000000   6.0000000   6.0000000   6.0000000   6.0000000   6.0000000   6.0000000   6.0000000   6.0000000   6.0000000

  Atom        21          22          23          24          25          26          27          28          29          30
 IAtWgt=          12          12          12          12          12          12          12          12          12          12
 AtmWgt=  12.0000000  12.0000000  12.0000000  12.0000000  12.0000000  12.0000000  12.0000000  12.0000000  12.0000000  12.0000000
 NucSpn=           0           0           0           0           0           0           0           0           0           0
 AtZEff=  -0.0000000  -0.0000000  -0.0000000  -0.0000000  -0.0000000  -0.0000000  -0.0000000  -0.0000000  -0.0000000  -0.0000000
 NQMom=    0.0000000   0.0000000   0.0000000   0.0000000   0.0000000   0.0000000   0.0000000   0.0000000   0.0000000   0.0000000
 NMagM=    0.0000000   0.0000000   0.0000000   0.0000000   0.0000000   0.0000000   0.0000000   0.0000000   0.0000000   0.0000000
 AtZNuc=   6.0000000   6.0000000   6.0000000   6.0000000   6.0000000   6.0000000   6.0000000   6.0000000   6.0000000   6.0000000

  Atom        31          32          33          34          35          36          37          38          39          40
 IAtWgt=          12          12          12          12          12          12          12          12          12          12
 AtmWgt=  12.0000000  12.0000000  12.0000000  12.0000000  12.0000000  12.0000000  12.0000000  12.0000000  12.0000000  12.0000000
 NucSpn=           0           0           0           0           0           0           0           0           0           0
 AtZEff=  -0.0000000  -0.0000000  -0.0000000  -0.0000000  -0.0000000  -0.0000000  -0.0000000  -0.0000000  -0.0000000  -0.0000000
 NQMom=    0.0000000   0.0000000   0.0000000   0.0000000   0.0000000   0.0000000   0.0000000   0.0000000   0.0000000   0.0000000
 NMagM=    0.0000000   0.0000000   0.0000000   0.0000000   0.0000000   0.0000000   0.0000000   0.0000000   0.0000000   0.0000000
 AtZNuc=   6.0000000   6.0000000   6.0000000   6.0000000   6.0000000   6.0000000   6.0000000   6.0000000   6.0000000   6.0000000

  Atom        41          42          43          44          45          46          47          48          49          50
 IAtWgt=          12          12          12          12          12          12          12          12          12          12
 AtmWgt=  12.0000000  12.0000000  12.0000000  12.0000000  12.0000000  12.0000000  12.0000000  12.0000000  12.0000000  12.0000000
 NucSpn=           0           0           0           0           0           0           0           0           0           0
 AtZEff=  -0.0000000  -0.0000000  -0.0000000  -0.0000000  -0.0000000  -0.0000000  -0.0000000  -0.0000000  -0.0000000  -0.0000000
 NQMom=    0.0000000   0.0000000   0.0000000   0.0000000   0.0000000   0.0000000   0.0000000   0.0000000   0.0000000   0.0000000
 NMagM=    0.0000000   0.0000000   0.0000000   0.0000000   0.0000000   0.0000000   0.0000000   0.0000000   0.0000000   0.0000000
 AtZNuc=   6.0000000   6.0000000   6.0000000   6.0000000   6.0000000   6.0000000   6.0000000   6.0000000   6.0000000   6.0000000

  Atom        51          52          53          54          55          56          57          58          59          60
 IAtWgt=          12          12          12          12          12          12          12          12          12          12
 AtmWgt=  12.0000000  12.0000000  12.0000000  12.0000000  12.0000000  12.0000000  12.0000000  12.0000000  12.0000000  12.0000000
 NucSpn=           0           0           0           0           0           0           0           0           0           0
 AtZEff=  -0.0000000  -0.0000000  -0.0000000  -0.0000000  -0.0000000  -0.0000000  -0.0000000  -0.0000000  -0.0000000  -0.0000000
 NQMom=    0.0000000   0.0000000   0.0000000   0.0000000   0.0000000   0.0000000   0.0000000   0.0000000   0.0000000   0.0000000
 NMagM=    0.0000000   0.0000000   0.0000000   0.0000000   0.0000000   0.0000000   0.0000000   0.0000000   0.0000000   0.0000000
 AtZNuc=   6.0000000   6.0000000   6.0000000   6.0000000   6.0000000   6.0000000   6.0000000   6.0000000   6.0000000   6.0000000

  Atom        61          62          63          64          65          66          67          68
 IAtWgt=          12          12          12          12          12          12          35          35
 AtmWgt=  12.0000000  12.0000000  12.0000000  12.0000000  12.0000000  12.0000000  34.9688527  34.9688527
 NucSpn=           0           0           0           0           0           0           3           3
 AtZEff=  -0.0000000  -0.0000000  -0.0000000  -0.0000000  -0.0000000  -0.0000000  -0.0000000  -0.0000000
 NQMom=    0.0000000   0.0000000   0.0000000   0.0000000   0.0000000   0.0000000  -8.1650000  -8.1650000
 NMagM=    0.0000000   0.0000000   0.0000000   0.0000000   0.0000000   0.0000000   0.8218740   0.8218740
 AtZNuc=   6.0000000   6.0000000   6.0000000   6.0000000   6.0000000   6.0000000  17.0000000  17.0000000
 Leave Link  101 at Fri Jul 15 01:00:15 2022, MaxMem=  1342177280 cpu:              12.7 elap:               0.3
 (Enter /home/mkliu/g16/l103.exe)

 GradGradGradGradGradGradGradGradGradGradGradGradGradGradGradGradGradGrad
 Berny optimization.
 Initialization pass.
                           ----------------------------
                           !    Initial Parameters    !
                           ! (Angstroms and Degrees)  !
 --------------------------                            --------------------------
 ! Name  Definition              Value          Derivative Info.                !
 --------------------------------------------------------------------------------
 ! R1    R(1,2)                  1.551          estimate D2E/DX2                !
 ! R2    R(1,4)                  1.5132         estimate D2E/DX2                !
 ! R3    R(1,7)                  1.4965         estimate D2E/DX2                !
 ! R4    R(1,67)                 1.7895         estimate D2E/DX2                !
 ! R5    R(2,3)                  1.5128         estimate D2E/DX2                !
 ! R6    R(2,10)                 1.4969         estimate D2E/DX2                !
 ! R7    R(2,68)                 1.7901         estimate D2E/DX2                !
 ! R8    R(3,5)                  1.4062         estimate D2E/DX2                !
 ! R9    R(3,12)                 1.3784         estimate D2E/DX2                !
 ! R10   R(4,5)                  1.407          estimate D2E/DX2                !
 ! R11   R(4,6)                  1.3793         estimate D2E/DX2                !
 ! R12   R(5,15)                 1.3901         estimate D2E/DX2                !
 ! R13   R(6,8)                  1.4475         estimate D2E/DX2                !
 ! R14   R(6,17)                 1.427          estimate D2E/DX2                !
 ! R15   R(7,8)                  1.3985         estimate D2E/DX2                !
 ! R16   R(7,9)                  1.3991         estimate D2E/DX2                !
 ! R17   R(8,20)                 1.403          estimate D2E/DX2                !
 ! R18   R(9,11)                 1.4585         estimate D2E/DX2                !
 ! R19   R(9,22)                 1.4025         estimate D2E/DX2                !
 ! R20   R(10,11)                1.4            estimate D2E/DX2                !
 ! R21   R(10,13)                1.3994         estimate D2E/DX2                !
 ! R22   R(11,25)                1.4024         estimate D2E/DX2                !
 ! R23   R(12,13)                1.4486         estimate D2E/DX2                !
 ! R24   R(12,14)                1.4271         estimate D2E/DX2                !
 ! R25   R(13,27)                1.4027         estimate D2E/DX2                !
 ! R26   R(14,16)                1.4051         estimate D2E/DX2                !
 ! R27   R(14,29)                1.4519         estimate D2E/DX2                !
 ! R28   R(15,16)                1.4279         estimate D2E/DX2                !
 ! R29   R(15,18)                1.428          estimate D2E/DX2                !
 ! R30   R(16,32)                1.4312         estimate D2E/DX2                !
 ! R31   R(17,18)                1.4045         estimate D2E/DX2                !
 ! R32   R(17,19)                1.4519         estimate D2E/DX2                !
 ! R33   R(18,33)                1.4311         estimate D2E/DX2                !
 ! R34   R(19,21)                1.4541         estimate D2E/DX2                !
 ! R35   R(19,35)                1.402          estimate D2E/DX2                !
 ! R36   R(20,21)                1.4501         estimate D2E/DX2                !
 ! R37   R(20,23)                1.4015         estimate D2E/DX2                !
 ! R38   R(21,38)                1.3995         estimate D2E/DX2                !
 ! R39   R(22,23)                1.4225         estimate D2E/DX2                !
 ! R40   R(22,24)                1.433          estimate D2E/DX2                !
 ! R41   R(23,40)                1.4298         estimate D2E/DX2                !
 ! R42   R(24,26)                1.3794         estimate D2E/DX2                !
 ! R43   R(24,41)                1.4402         estimate D2E/DX2                !
 ! R44   R(25,26)                1.4342         estimate D2E/DX2                !
 ! R45   R(25,28)                1.4225         estimate D2E/DX2                !
 ! R46   R(26,44)                1.44           estimate D2E/DX2                !
 ! R47   R(27,28)                1.402          estimate D2E/DX2                !
 ! R48   R(27,30)                1.4504         estimate D2E/DX2                !
 ! R49   R(28,45)                1.4298         estimate D2E/DX2                !
 ! R50   R(29,30)                1.454          estimate D2E/DX2                !
 ! R51   R(29,31)                1.4021         estimate D2E/DX2                !
 ! R52   R(30,47)                1.3992         estimate D2E/DX2                !
 ! R53   R(31,34)                1.4409         estimate D2E/DX2                !
 ! R54   R(31,49)                1.432          estimate D2E/DX2                !
 ! R55   R(32,33)                1.4383         estimate D2E/DX2                !
 ! R56   R(32,34)                1.3726         estimate D2E/DX2                !
 ! R57   R(33,36)                1.3727         estimate D2E/DX2                !
 ! R58   R(34,51)                1.4345         estimate D2E/DX2                !
 ! R59   R(35,36)                1.4407         estimate D2E/DX2                !
 ! R60   R(35,37)                1.4321         estimate D2E/DX2                !
 ! R61   R(36,52)                1.4347         estimate D2E/DX2                !
 ! R62   R(37,39)                1.3766         estimate D2E/DX2                !
 ! R63   R(37,53)                1.4403         estimate D2E/DX2                !
 ! R64   R(38,39)                1.4337         estimate D2E/DX2                !
 ! R65   R(38,42)                1.4441         estimate D2E/DX2                !
 ! R66   R(39,57)                1.437          estimate D2E/DX2                !
 ! R67   R(40,41)                1.4355         estimate D2E/DX2                !
 ! R68   R(40,42)                1.3775         estimate D2E/DX2                !
 ! R69   R(41,43)                1.3825         estimate D2E/DX2                !
 ! R70   R(42,58)                1.4347         estimate D2E/DX2                !
 ! R71   R(43,46)                1.443          estimate D2E/DX2                !
 ! R72   R(43,59)                1.4383         estimate D2E/DX2                !
 ! R73   R(44,45)                1.4356         estimate D2E/DX2                !
 ! R74   R(44,46)                1.3826         estimate D2E/DX2                !
 ! R75   R(45,48)                1.3773         estimate D2E/DX2                !
 ! R76   R(46,61)                1.4384         estimate D2E/DX2                !
 ! R77   R(47,48)                1.4439         estimate D2E/DX2                !
 ! R78   R(47,50)                1.4335         estimate D2E/DX2                !
 ! R79   R(48,62)                1.4342         estimate D2E/DX2                !
 ! R80   R(49,50)                1.3766         estimate D2E/DX2                !
 ! R81   R(49,54)                1.44           estimate D2E/DX2                !
 ! R82   R(50,63)                1.4368         estimate D2E/DX2                !
 ! R83   R(51,52)                1.3895         estimate D2E/DX2                !
 ! R84   R(51,54)                1.4336         estimate D2E/DX2                !
 ! R85   R(52,53)                1.4335         estimate D2E/DX2                !
 ! R86   R(53,55)                1.3851         estimate D2E/DX2                !
 ! R87   R(54,56)                1.385          estimate D2E/DX2                !
 ! R88   R(55,56)                1.439          estimate D2E/DX2                !
 ! R89   R(55,60)                1.4376         estimate D2E/DX2                !
 ! R90   R(56,64)                1.4376         estimate D2E/DX2                !
 ! R91   R(57,58)                1.4355         estimate D2E/DX2                !
 ! R92   R(57,60)                1.3847         estimate D2E/DX2                !
 ! R93   R(58,59)                1.389          estimate D2E/DX2                !
 ! R94   R(59,65)                1.4412         estimate D2E/DX2                !
 ! R95   R(60,66)                1.439          estimate D2E/DX2                !
 ! R96   R(61,62)                1.3889         estimate D2E/DX2                !
 ! R97   R(61,65)                1.4409         estimate D2E/DX2                !
 ! R98   R(62,63)                1.4355         estimate D2E/DX2                !
 ! R99   R(63,64)                1.3845         estimate D2E/DX2                !
 ! R100  R(64,66)                1.439          estimate D2E/DX2                !
 ! R101  R(65,66)                1.3857         estimate D2E/DX2                !
 ! A1    A(2,1,4)              103.5516         estimate D2E/DX2                !
 ! A2    A(2,1,7)              114.3209         estimate D2E/DX2                !
 ! A3    A(2,1,67)             114.1849         estimate D2E/DX2                !
 ! A4    A(4,1,7)              100.5287         estimate D2E/DX2                !
 ! A5    A(4,1,67)             115.259          estimate D2E/DX2                !
 ! A6    A(7,1,67)             108.3086         estimate D2E/DX2                !
 ! A7    A(1,2,3)              103.8069         estimate D2E/DX2                !
 ! A8    A(1,2,10)             114.0236         estimate D2E/DX2                !
 ! A9    A(1,2,68)             114.1214         estimate D2E/DX2                !
 ! A10   A(3,2,10)             100.6231         estimate D2E/DX2                !
 ! A11   A(3,2,68)             114.1862         estimate D2E/DX2                !
 ! A12   A(10,2,68)            109.2979         estimate D2E/DX2                !
 ! A13   A(2,3,5)              112.254          estimate D2E/DX2                !
 ! A14   A(2,3,12)             111.0015         estimate D2E/DX2                !
 ! A15   A(5,3,12)             118.3519         estimate D2E/DX2                !
 ! A16   A(1,4,5)              112.3931         estimate D2E/DX2                !
 ! A17   A(1,4,6)              110.9692         estimate D2E/DX2                !
 ! A18   A(5,4,6)              118.264          estimate D2E/DX2                !
 ! A19   A(3,5,4)              107.3547         estimate D2E/DX2                !
 ! A20   A(3,5,15)             118.5434         estimate D2E/DX2                !
 ! A21   A(4,5,15)             118.4783         estimate D2E/DX2                !
 ! A22   A(4,6,8)              107.9596         estimate D2E/DX2                !
 ! A23   A(4,6,17)             123.566          estimate D2E/DX2                !
 ! A24   A(8,6,17)             119.6342         estimate D2E/DX2                !
 ! A25   A(1,7,8)              109.7795         estimate D2E/DX2                !
 ! A26   A(1,7,9)              123.2791         estimate D2E/DX2                !
 ! A27   A(8,7,9)              119.9905         estimate D2E/DX2                !
 ! A28   A(6,8,7)              108.1585         estimate D2E/DX2                !
 ! A29   A(6,8,20)             121.0128         estimate D2E/DX2                !
 ! A30   A(7,8,20)             123.4794         estimate D2E/DX2                !
 ! A31   A(7,9,11)             118.0171         estimate D2E/DX2                !
 ! A32   A(7,9,22)             114.6604         estimate D2E/DX2                !
 ! A33   A(11,9,22)            117.5952         estimate D2E/DX2                !
 ! A34   A(2,10,11)            123.3728         estimate D2E/DX2                !
 ! A35   A(2,10,13)            109.6583         estimate D2E/DX2                !
 ! A36   A(11,10,13)           119.8781         estimate D2E/DX2                !
 ! A37   A(9,11,10)            118.1763         estimate D2E/DX2                !
 ! A38   A(9,11,25)            117.2536         estimate D2E/DX2                !
 ! A39   A(10,11,25)           114.809          estimate D2E/DX2                !
 ! A40   A(3,12,13)            107.9231         estimate D2E/DX2                !
 ! A41   A(3,12,14)            123.4228         estimate D2E/DX2                !
 ! A42   A(13,12,14)           119.7247         estimate D2E/DX2                !
 ! A43   A(10,13,12)           108.2159         estimate D2E/DX2                !
 ! A44   A(10,13,27)           123.4486         estimate D2E/DX2                !
 ! A45   A(12,13,27)           120.8919         estimate D2E/DX2                !
 ! A46   A(12,14,16)           115.2013         estimate D2E/DX2                !
 ! A47   A(12,14,29)           118.9993         estimate D2E/DX2                !
 ! A48   A(16,14,29)           119.5093         estimate D2E/DX2                !
 ! A49   A(5,15,16)            120.5635         estimate D2E/DX2                !
 ! A50   A(5,15,18)            120.6497         estimate D2E/DX2                !
 ! A51   A(16,15,18)           107.2809         estimate D2E/DX2                !
 ! A52   A(14,16,15)           119.9628         estimate D2E/DX2                !
 ! A53   A(14,16,32)           120.5122         estimate D2E/DX2                !
 ! A54   A(15,16,32)           107.4336         estimate D2E/DX2                !
 ! A55   A(6,17,18)            115.0998         estimate D2E/DX2                !
 ! A56   A(6,17,19)            119.0345         estimate D2E/DX2                !
 ! A57   A(18,17,19)           119.5762         estimate D2E/DX2                !
 ! A58   A(15,18,17)           120.0008         estimate D2E/DX2                !
 ! A59   A(15,18,33)           107.4717         estimate D2E/DX2                !
 ! A60   A(17,18,33)           120.4466         estimate D2E/DX2                !
 ! A61   A(17,19,21)           119.925          estimate D2E/DX2                !
 ! A62   A(17,19,35)           117.4635         estimate D2E/DX2                !
 ! A63   A(21,19,35)           117.5592         estimate D2E/DX2                !
 ! A64   A(8,20,21)            119.9702         estimate D2E/DX2                !
 ! A65   A(8,20,23)            114.2747         estimate D2E/DX2                !
 ! A66   A(21,20,23)           120.5428         estimate D2E/DX2                !
 ! A67   A(19,21,20)           119.0289         estimate D2E/DX2                !
 ! A68   A(19,21,38)           119.1997         estimate D2E/DX2                !
 ! A69   A(20,21,38)           116.4982         estimate D2E/DX2                !
 ! A70   A(9,22,23)            122.1727         estimate D2E/DX2                !
 ! A71   A(9,22,24)            122.8688         estimate D2E/DX2                !
 ! A72   A(23,22,24)           107.2078         estimate D2E/DX2                !
 ! A73   A(20,23,22)           120.4941         estimate D2E/DX2                !
 ! A74   A(20,23,40)           121.2967         estimate D2E/DX2                !
 ! A75   A(22,23,40)           108.4773         estimate D2E/DX2                !
 ! A76   A(22,24,26)           118.5201         estimate D2E/DX2                !
 ! A77   A(22,24,41)           109.0912         estimate D2E/DX2                !
 ! A78   A(26,24,41)           119.9441         estimate D2E/DX2                !
 ! A79   A(11,25,26)           122.9649         estimate D2E/DX2                !
 ! A80   A(11,25,28)           122.0748         estimate D2E/DX2                !
 ! A81   A(26,25,28)           107.1762         estimate D2E/DX2                !
 ! A82   A(24,26,25)           118.6091         estimate D2E/DX2                !
 ! A83   A(24,26,44)           119.8604         estimate D2E/DX2                !
 ! A84   A(25,26,44)           109.1119         estimate D2E/DX2                !
 ! A85   A(13,27,28)           114.354          estimate D2E/DX2                !
 ! A86   A(13,27,30)           120.0056         estimate D2E/DX2                !
 ! A87   A(28,27,30)           120.4416         estimate D2E/DX2                !
 ! A88   A(25,28,27)           120.4927         estimate D2E/DX2                !
 ! A89   A(25,28,45)           108.461          estimate D2E/DX2                !
 ! A90   A(27,28,45)           121.3518         estimate D2E/DX2                !
 ! A91   A(14,29,30)           119.8901         estimate D2E/DX2                !
 ! A92   A(14,29,31)           117.4707         estimate D2E/DX2                !
 ! A93   A(30,29,31)           117.5686         estimate D2E/DX2                !
 ! A94   A(27,30,29)           119.0826         estimate D2E/DX2                !
 ! A95   A(27,30,47)           116.529          estimate D2E/DX2                !
 ! A96   A(29,30,47)           119.1515         estimate D2E/DX2                !
 ! A97   A(29,31,34)           121.5825         estimate D2E/DX2                !
 ! A98   A(29,31,49)           122.4091         estimate D2E/DX2                !
 ! A99   A(34,31,49)           106.4625         estimate D2E/DX2                !
 ! A100  A(16,32,33)           107.5495         estimate D2E/DX2                !
 ! A101  A(16,32,34)           120.1248         estimate D2E/DX2                !
 ! A102  A(33,32,34)           119.7908         estimate D2E/DX2                !
 ! A103  A(18,33,32)           107.4886         estimate D2E/DX2                !
 ! A104  A(18,33,36)           120.1549         estimate D2E/DX2                !
 ! A105  A(32,33,36)           119.8313         estimate D2E/DX2                !
 ! A106  A(31,34,32)           119.2426         estimate D2E/DX2                !
 ! A107  A(31,34,51)           108.9502         estimate D2E/DX2                !
 ! A108  A(32,34,51)           120.1125         estimate D2E/DX2                !
 ! A109  A(19,35,36)           121.5478         estimate D2E/DX2                !
 ! A110  A(19,35,37)           122.3851         estimate D2E/DX2                !
 ! A111  A(36,35,37)           106.4786         estimate D2E/DX2                !
 ! A112  A(33,36,35)           119.2572         estimate D2E/DX2                !
 ! A113  A(33,36,52)           120.0824         estimate D2E/DX2                !
 ! A114  A(35,36,52)           108.938          estimate D2E/DX2                !
 ! A115  A(35,37,39)           119.679          estimate D2E/DX2                !
 ! A116  A(35,37,53)           108.8899         estimate D2E/DX2                !
 ! A117  A(39,37,53)           120.1647         estimate D2E/DX2                !
 ! A118  A(21,38,39)           121.7367         estimate D2E/DX2                !
 ! A119  A(21,38,42)           122.0841         estimate D2E/DX2                !
 ! A120  A(39,38,42)           106.6481         estimate D2E/DX2                !
 ! A121  A(37,39,38)           119.2466         estimate D2E/DX2                !
 ! A122  A(37,39,57)           120.4116         estimate D2E/DX2                !
 ! A123  A(38,39,57)           108.858          estimate D2E/DX2                !
 ! A124  A(23,40,41)           108.638          estimate D2E/DX2                !
 ! A125  A(23,40,42)           118.6978         estimate D2E/DX2                !
 ! A126  A(41,40,42)           121.0719         estimate D2E/DX2                !
 ! A127  A(24,41,40)           106.3675         estimate D2E/DX2                !
 ! A128  A(24,41,43)           120.311          estimate D2E/DX2                !
 ! A129  A(40,41,43)           119.369          estimate D2E/DX2                !
 ! A130  A(38,42,40)           120.3255         estimate D2E/DX2                !
 ! A131  A(38,42,58)           108.7796         estimate D2E/DX2                !
 ! A132  A(40,42,58)           119.5361         estimate D2E/DX2                !
 ! A133  A(41,43,46)           119.7524         estimate D2E/DX2                !
 ! A134  A(41,43,59)           119.8412         estimate D2E/DX2                !
 ! A135  A(46,43,59)           107.9764         estimate D2E/DX2                !
 ! A136  A(26,44,45)           106.3237         estimate D2E/DX2                !
 ! A137  A(26,44,46)           120.354          estimate D2E/DX2                !
 ! A138  A(45,44,46)           119.4023         estimate D2E/DX2                !
 ! A139  A(28,45,44)           108.7032         estimate D2E/DX2                !
 ! A140  A(28,45,48)           118.7005         estimate D2E/DX2                !
 ! A141  A(44,45,48)           121.0208         estimate D2E/DX2                !
 ! A142  A(43,46,44)           119.7536         estimate D2E/DX2                !
 ! A143  A(43,46,61)           107.9903         estimate D2E/DX2                !
 ! A144  A(44,46,61)           119.8054         estimate D2E/DX2                !
 ! A145  A(30,47,48)           122.1235         estimate D2E/DX2                !
 ! A146  A(30,47,50)           121.7904         estimate D2E/DX2                !
 ! A147  A(48,47,50)           106.6196         estimate D2E/DX2                !
 ! A148  A(45,48,47)           120.2912         estimate D2E/DX2                !
 ! A149  A(45,48,62)           119.5896         estimate D2E/DX2                !
 ! A150  A(47,48,62)           108.8156         estimate D2E/DX2                !
 ! A151  A(31,49,50)           119.6428         estimate D2E/DX2                !
 ! A152  A(31,49,54)           108.9022         estimate D2E/DX2                !
 ! A153  A(50,49,54)           120.1816         estimate D2E/DX2                !
 ! A154  A(47,50,49)           119.2482         estimate D2E/DX2                !
 ! A155  A(47,50,63)           108.8779         estimate D2E/DX2                !
 ! A156  A(49,50,63)           120.4256         estimate D2E/DX2                !
 ! A157  A(34,51,52)           119.5108         estimate D2E/DX2                !
 ! A158  A(34,51,54)           107.3808         estimate D2E/DX2                !
 ! A159  A(52,51,54)           119.933          estimate D2E/DX2                !
 ! A160  A(36,52,51)           119.5193         estimate D2E/DX2                !
 ! A161  A(36,52,53)           107.3949         estimate D2E/DX2                !
 ! A162  A(51,52,53)           119.8943         estimate D2E/DX2                !
 ! A163  A(37,53,52)           107.6958         estimate D2E/DX2                !
 ! A164  A(37,53,55)           119.3833         estimate D2E/DX2                !
 ! A165  A(52,53,55)           120.0953         estimate D2E/DX2                !
 ! A166  A(49,54,51)           107.7009         estimate D2E/DX2                !
 ! A167  A(49,54,56)           119.3555         estimate D2E/DX2                !
 ! A168  A(51,54,56)           120.1009         estimate D2E/DX2                !
 ! A169  A(53,55,56)           119.9123         estimate D2E/DX2                !
 ! A170  A(53,55,60)           120.2217         estimate D2E/DX2                !
 ! A171  A(56,55,60)           107.9212         estimate D2E/DX2                !
 ! A172  A(54,56,55)           119.8641         estimate D2E/DX2                !
 ! A173  A(54,56,64)           120.228          estimate D2E/DX2                !
 ! A174  A(55,56,64)           107.9337         estimate D2E/DX2                !
 ! A175  A(39,57,58)           107.7836         estimate D2E/DX2                !
 ! A176  A(39,57,60)           119.4981         estimate D2E/DX2                !
 ! A177  A(58,57,60)           120.0516         estimate D2E/DX2                !
 ! A178  A(42,58,57)           107.5961         estimate D2E/DX2                !
 ! A179  A(42,58,59)           119.6882         estimate D2E/DX2                !
 ! A180  A(57,58,59)           120.3468         estimate D2E/DX2                !
 ! A181  A(43,59,58)           120.2534         estimate D2E/DX2                !
 ! A182  A(43,59,65)           108.0077         estimate D2E/DX2                !
 ! A183  A(58,59,65)           119.5017         estimate D2E/DX2                !
 ! A184  A(55,60,57)           120.0273         estimate D2E/DX2                !
 ! A185  A(55,60,66)           108.1993         estimate D2E/DX2                !
 ! A186  A(57,60,66)           119.7744         estimate D2E/DX2                !
 ! A187  A(46,61,62)           120.2679         estimate D2E/DX2                !
 ! A188  A(46,61,65)           108.0007         estimate D2E/DX2                !
 ! A189  A(62,61,65)           119.4665         estimate D2E/DX2                !
 ! A190  A(48,62,61)           119.6701         estimate D2E/DX2                !
 ! A191  A(48,62,63)           107.5751         estimate D2E/DX2                !
 ! A192  A(61,62,63)           120.3828         estimate D2E/DX2                !
 ! A193  A(50,63,62)           107.7792         estimate D2E/DX2                !
 ! A194  A(50,63,64)           119.4671         estimate D2E/DX2                !
 ! A195  A(62,63,64)           120.0563         estimate D2E/DX2                !
 ! A196  A(56,64,63)           120.0463         estimate D2E/DX2                !
 ! A197  A(56,64,66)           108.1901         estimate D2E/DX2                !
 ! A198  A(63,64,66)           119.7253         estimate D2E/DX2                !
 ! A199  A(59,65,61)           107.9652         estimate D2E/DX2                !
 ! A200  A(59,65,66)           120.003          estimate D2E/DX2                !
 ! A201  A(61,65,66)           120.0003         estimate D2E/DX2                !
 ! A202  A(60,66,64)           107.7045         estimate D2E/DX2                !
 ! A203  A(60,66,65)           120.2226         estimate D2E/DX2                !
 ! A204  A(64,66,65)           120.2665         estimate D2E/DX2                !
 ! D1    D(4,1,2,3)             -0.1419         estimate D2E/DX2                !
 ! D2    D(4,1,2,10)          -108.646          estimate D2E/DX2                !
 ! D3    D(4,1,2,68)           124.7687         estimate D2E/DX2                !
 ! D4    D(7,1,2,3)            108.2311         estimate D2E/DX2                !
 ! D5    D(7,1,2,10)            -0.273          estimate D2E/DX2                !
 ! D6    D(7,1,2,68)          -126.8583         estimate D2E/DX2                !
 ! D7    D(67,1,2,3)          -126.2571         estimate D2E/DX2                !
 ! D8    D(67,1,2,10)          125.2389         estimate D2E/DX2                !
 ! D9    D(67,1,2,68)           -1.3465         estimate D2E/DX2                !
 ! D10   D(2,1,4,5)             -4.7817         estimate D2E/DX2                !
 ! D11   D(2,1,4,6)            130.1601         estimate D2E/DX2                !
 ! D12   D(7,1,4,5)           -123.1862         estimate D2E/DX2                !
 ! D13   D(7,1,4,6)             11.7557         estimate D2E/DX2                !
 ! D14   D(67,1,4,5)           120.647          estimate D2E/DX2                !
 ! D15   D(67,1,4,6)          -104.4111         estimate D2E/DX2                !
 ! D16   D(2,1,7,8)           -126.3088         estimate D2E/DX2                !
 ! D17   D(2,1,7,9)             24.317          estimate D2E/DX2                !
 ! D18   D(4,1,7,8)            -16.0938         estimate D2E/DX2                !
 ! D19   D(4,1,7,9)            134.5319         estimate D2E/DX2                !
 ! D20   D(67,1,7,8)           105.1484         estimate D2E/DX2                !
 ! D21   D(67,1,7,9)          -104.2258         estimate D2E/DX2                !
 ! D22   D(1,2,3,5)              5.031          estimate D2E/DX2                !
 ! D23   D(1,2,3,12)          -129.9362         estimate D2E/DX2                !
 ! D24   D(10,2,3,5)           123.2362         estimate D2E/DX2                !
 ! D25   D(10,2,3,12)          -11.731          estimate D2E/DX2                !
 ! D26   D(68,2,3,5)          -119.8379         estimate D2E/DX2                !
 ! D27   D(68,2,3,12)          105.1949         estimate D2E/DX2                !
 ! D28   D(1,2,10,11)          -23.8524         estimate D2E/DX2                !
 ! D29   D(1,2,10,13)          126.4605         estimate D2E/DX2                !
 ! D30   D(3,2,10,11)         -134.3054         estimate D2E/DX2                !
 ! D31   D(3,2,10,13)           16.0074         estimate D2E/DX2                !
 ! D32   D(68,2,10,11)         105.2078         estimate D2E/DX2                !
 ! D33   D(68,2,10,13)        -104.4794         estimate D2E/DX2                !
 ! D34   D(2,3,5,4)             -8.1091         estimate D2E/DX2                !
 ! D35   D(2,3,5,15)          -145.7277         estimate D2E/DX2                !
 ! D36   D(12,3,5,4)           123.2536         estimate D2E/DX2                !
 ! D37   D(12,3,5,15)          -14.3651         estimate D2E/DX2                !
 ! D38   D(2,3,12,13)            3.53           estimate D2E/DX2                !
 ! D39   D(2,3,12,14)          150.4416         estimate D2E/DX2                !
 ! D40   D(5,3,12,13)         -128.3912         estimate D2E/DX2                !
 ! D41   D(5,3,12,14)           18.5204         estimate D2E/DX2                !
 ! D42   D(1,4,5,3)              8.0204         estimate D2E/DX2                !
 ! D43   D(1,4,5,15)           145.6714         estimate D2E/DX2                !
 ! D44   D(6,4,5,3)           -123.3532         estimate D2E/DX2                !
 ! D45   D(6,4,5,15)            14.2977         estimate D2E/DX2                !
 ! D46   D(1,4,6,8)             -3.5175         estimate D2E/DX2                !
 ! D47   D(1,4,6,17)          -150.5404         estimate D2E/DX2                !
 ! D48   D(5,4,6,8)            128.4918         estimate D2E/DX2                !
 ! D49   D(5,4,6,17)           -18.5312         estimate D2E/DX2                !
 ! D50   D(3,5,15,16)           -2.8444         estimate D2E/DX2                !
 ! D51   D(3,5,15,18)          135.8278         estimate D2E/DX2                !
 ! D52   D(4,5,15,16)         -135.7949         estimate D2E/DX2                !
 ! D53   D(4,5,15,18)            2.8773         estimate D2E/DX2                !
 ! D54   D(4,6,8,7)             -7.142          estimate D2E/DX2                !
 ! D55   D(4,6,8,20)          -158.1338         estimate D2E/DX2                !
 ! D56   D(17,6,8,7)           141.4055         estimate D2E/DX2                !
 ! D57   D(17,6,8,20)           -9.5863         estimate D2E/DX2                !
 ! D58   D(4,6,17,18)            4.4928         estimate D2E/DX2                !
 ! D59   D(4,6,17,19)          156.5501         estimate D2E/DX2                !
 ! D60   D(8,6,17,18)         -138.9448         estimate D2E/DX2                !
 ! D61   D(8,6,17,19)           13.1126         estimate D2E/DX2                !
 ! D62   D(1,7,8,6)             15.1173         estimate D2E/DX2                !
 ! D63   D(1,7,8,20)           165.2305         estimate D2E/DX2                !
 ! D64   D(9,7,8,6)           -136.6232         estimate D2E/DX2                !
 ! D65   D(9,7,8,20)            13.4899         estimate D2E/DX2                !
 ! D66   D(1,7,9,11)           -25.0277         estimate D2E/DX2                !
 ! D67   D(1,7,9,22)          -170.2791         estimate D2E/DX2                !
 ! D68   D(8,7,9,11)           122.7688         estimate D2E/DX2                !
 ! D69   D(8,7,9,22)           -22.4826         estimate D2E/DX2                !
 ! D70   D(6,8,20,21)           -1.0002         estimate D2E/DX2                !
 ! D71   D(6,8,20,23)          153.6329         estimate D2E/DX2                !
 ! D72   D(7,8,20,21)         -147.4654         estimate D2E/DX2                !
 ! D73   D(7,8,20,23)            7.1677         estimate D2E/DX2                !
 ! D74   D(7,9,11,10)            0.013          estimate D2E/DX2                !
 ! D75   D(7,9,11,25)         -144.2169         estimate D2E/DX2                !
 ! D76   D(22,9,11,10)         144.2466         estimate D2E/DX2                !
 ! D77   D(22,9,11,25)           0.0167         estimate D2E/DX2                !
 ! D78   D(7,9,22,23)           12.2047         estimate D2E/DX2                !
 ! D79   D(7,9,22,24)          157.5502         estimate D2E/DX2                !
 ! D80   D(11,9,22,23)        -133.2006         estimate D2E/DX2                !
 ! D81   D(11,9,22,24)          12.1448         estimate D2E/DX2                !
 ! D82   D(2,10,11,9)           24.8983         estimate D2E/DX2                !
 ! D83   D(2,10,11,25)         169.9752         estimate D2E/DX2                !
 ! D84   D(13,10,11,9)        -122.5615         estimate D2E/DX2                !
 ! D85   D(13,10,11,25)         22.5154         estimate D2E/DX2                !
 ! D86   D(2,10,13,12)         -15.0147         estimate D2E/DX2                !
 ! D87   D(2,10,13,27)        -164.9193         estimate D2E/DX2                !
 ! D88   D(11,10,13,12)        136.4957         estimate D2E/DX2                !
 ! D89   D(11,10,13,27)        -13.4089         estimate D2E/DX2                !
 ! D90   D(9,11,25,26)         -12.1495         estimate D2E/DX2                !
 ! D91   D(9,11,25,28)         133.1174         estimate D2E/DX2                !
 ! D92   D(10,11,25,26)       -157.5628         estimate D2E/DX2                !
 ! D93   D(10,11,25,28)        -12.2958         estimate D2E/DX2                !
 ! D94   D(3,12,13,10)           7.0849         estimate D2E/DX2                !
 ! D95   D(3,12,13,27)         157.9046         estimate D2E/DX2                !
 ! D96   D(14,12,13,10)       -141.2676         estimate D2E/DX2                !
 ! D97   D(14,12,13,27)          9.5521         estimate D2E/DX2                !
 ! D98   D(3,12,14,16)          -4.4172         estimate D2E/DX2                !
 ! D99   D(3,12,14,29)        -156.4555         estimate D2E/DX2                !
 ! D100  D(13,12,14,16)        138.8457         estimate D2E/DX2                !
 ! D101  D(13,12,14,29)        -13.1926         estimate D2E/DX2                !
 ! D102  D(10,13,27,28)         -7.2536         estimate D2E/DX2                !
 ! D103  D(10,13,27,30)        147.3841         estimate D2E/DX2                !
 ! D104  D(12,13,27,28)       -153.5393         estimate D2E/DX2                !
 ! D105  D(12,13,27,30)          1.0985         estimate D2E/DX2                !
 ! D106  D(12,14,16,15)        -13.2576         estimate D2E/DX2                !
 ! D107  D(12,14,16,32)       -151.0869         estimate D2E/DX2                !
 ! D108  D(29,14,16,15)        138.6285         estimate D2E/DX2                !
 ! D109  D(29,14,16,32)          0.7993         estimate D2E/DX2                !
 ! D110  D(12,14,29,30)          6.5148         estimate D2E/DX2                !
 ! D111  D(12,14,29,31)        160.7389         estimate D2E/DX2                !
 ! D112  D(16,14,29,30)       -144.3093         estimate D2E/DX2                !
 ! D113  D(16,14,29,31)          9.9147         estimate D2E/DX2                !
 ! D114  D(5,15,16,14)          17.1976         estimate D2E/DX2                !
 ! D115  D(5,15,16,32)         159.8807         estimate D2E/DX2                !
 ! D116  D(18,15,16,14)       -126.292          estimate D2E/DX2                !
 ! D117  D(18,15,16,32)         16.3912         estimate D2E/DX2                !
 ! D118  D(5,15,18,17)         -17.1892         estimate D2E/DX2                !
 ! D119  D(5,15,18,33)        -159.8596         estimate D2E/DX2                !
 ! D120  D(16,15,18,17)        126.2626         estimate D2E/DX2                !
 ! D121  D(16,15,18,33)        -16.4079         estimate D2E/DX2                !
 ! D122  D(14,16,32,33)        132.3413         estimate D2E/DX2                !
 ! D123  D(14,16,32,34)         -9.4687         estimate D2E/DX2                !
 ! D124  D(15,16,32,33)        -10.0967         estimate D2E/DX2                !
 ! D125  D(15,16,32,34)       -151.9067         estimate D2E/DX2                !
 ! D126  D(6,17,18,15)          13.1848         estimate D2E/DX2                !
 ! D127  D(6,17,18,33)         151.0449         estimate D2E/DX2                !
 ! D128  D(19,17,18,15)       -138.7107         estimate D2E/DX2                !
 ! D129  D(19,17,18,33)         -0.8506         estimate D2E/DX2                !
 ! D130  D(6,17,19,21)          -6.3964         estimate D2E/DX2                !
 ! D131  D(6,17,19,35)        -160.6617         estimate D2E/DX2                !
 ! D132  D(18,17,19,21)        144.4            estimate D2E/DX2                !
 ! D133  D(18,17,19,35)         -9.8653         estimate D2E/DX2                !
 ! D134  D(15,18,33,32)         10.1215         estimate D2E/DX2                !
 ! D135  D(15,18,33,36)        151.9564         estimate D2E/DX2                !
 ! D136  D(17,18,33,32)       -132.3502         estimate D2E/DX2                !
 ! D137  D(17,18,33,36)          9.4847         estimate D2E/DX2                !
 ! D138  D(17,19,21,20)         -3.973          estimate D2E/DX2                !
 ! D139  D(17,19,21,38)       -157.4445         estimate D2E/DX2                !
 ! D140  D(35,19,21,20)        150.2683         estimate D2E/DX2                !
 ! D141  D(35,19,21,38)         -3.2032         estimate D2E/DX2                !
 ! D142  D(17,19,35,36)         12.5483         estimate D2E/DX2                !
 ! D143  D(17,19,35,37)        154.1357         estimate D2E/DX2                !
 ! D144  D(21,19,35,36)       -142.3339         estimate D2E/DX2                !
 ! D145  D(21,19,35,37)         -0.7466         estimate D2E/DX2                !
 ! D146  D(8,20,21,19)           7.6843         estimate D2E/DX2                !
 ! D147  D(8,20,21,38)         161.8576         estimate D2E/DX2                !
 ! D148  D(23,20,21,19)       -145.3503         estimate D2E/DX2                !
 ! D149  D(23,20,21,38)          8.8229         estimate D2E/DX2                !
 ! D150  D(8,20,23,22)         -17.5014         estimate D2E/DX2                !
 ! D151  D(8,20,23,40)        -159.5423         estimate D2E/DX2                !
 ! D152  D(21,20,23,22)        136.9728         estimate D2E/DX2                !
 ! D153  D(21,20,23,40)         -5.0682         estimate D2E/DX2                !
 ! D154  D(19,21,38,39)          4.8493         estimate D2E/DX2                !
 ! D155  D(19,21,38,42)        146.6004         estimate D2E/DX2                !
 ! D156  D(20,21,38,39)       -149.2778         estimate D2E/DX2                !
 ! D157  D(20,21,38,42)         -7.5267         estimate D2E/DX2                !
 ! D158  D(9,22,23,20)           8.2043         estimate D2E/DX2                !
 ! D159  D(9,22,23,40)         154.5513         estimate D2E/DX2                !
 ! D160  D(24,22,23,20)       -141.7971         estimate D2E/DX2                !
 ! D161  D(24,22,23,40)          4.5499         estimate D2E/DX2                !
 ! D162  D(9,22,24,26)         -12.2929         estimate D2E/DX2                !
 ! D163  D(9,22,24,41)        -154.4072         estimate D2E/DX2                !
 ! D164  D(23,22,24,26)        137.451          estimate D2E/DX2                !
 ! D165  D(23,22,24,41)         -4.6633         estimate D2E/DX2                !
 ! D166  D(20,23,40,41)        143.2521         estimate D2E/DX2                !
 ! D167  D(20,23,40,42)         -0.4151         estimate D2E/DX2                !
 ! D168  D(22,23,40,41)         -2.7732         estimate D2E/DX2                !
 ! D169  D(22,23,40,42)       -146.4404         estimate D2E/DX2                !
 ! D170  D(22,24,26,25)          0.0463         estimate D2E/DX2                !
 ! D171  D(22,24,26,44)       -137.9559         estimate D2E/DX2                !
 ! D172  D(41,24,26,25)        138.0016         estimate D2E/DX2                !
 ! D173  D(41,24,26,44)         -0.0006         estimate D2E/DX2                !
 ! D174  D(22,24,41,40)          2.9532         estimate D2E/DX2                !
 ! D175  D(22,24,41,43)        142.7523         estimate D2E/DX2                !
 ! D176  D(26,24,41,40)       -138.534          estimate D2E/DX2                !
 ! D177  D(26,24,41,43)          1.2651         estimate D2E/DX2                !
 ! D178  D(11,25,26,24)         12.2639         estimate D2E/DX2                !
 ! D179  D(11,25,26,44)        154.3757         estimate D2E/DX2                !
 ! D180  D(28,25,26,24)       -137.3835         estimate D2E/DX2                !
 ! D181  D(28,25,26,44)          4.7283         estimate D2E/DX2                !
 ! D182  D(11,25,28,27)         -8.1575         estimate D2E/DX2                !
 ! D183  D(11,25,28,45)       -154.581          estimate D2E/DX2                !
 ! D184  D(26,25,28,27)        141.82           estimate D2E/DX2                !
 ! D185  D(26,25,28,45)         -4.6034         estimate D2E/DX2                !
 ! D186  D(24,26,44,45)        138.5611         estimate D2E/DX2                !
 ! D187  D(24,26,44,46)         -1.2866         estimate D2E/DX2                !
 ! D188  D(25,26,44,45)         -3.0003         estimate D2E/DX2                !
 ! D189  D(25,26,44,46)       -142.848          estimate D2E/DX2                !
 ! D190  D(13,27,28,25)         17.5501         estimate D2E/DX2                !
 ! D191  D(13,27,28,45)        159.6503         estimate D2E/DX2                !
 ! D192  D(30,27,28,25)       -136.9669         estimate D2E/DX2                !
 ! D193  D(30,27,28,45)          5.1333         estimate D2E/DX2                !
 ! D194  D(13,27,30,29)         -7.7312         estimate D2E/DX2                !
 ! D195  D(13,27,30,47)       -161.9752         estimate D2E/DX2                !
 ! D196  D(28,27,30,29)        145.3569         estimate D2E/DX2                !
 ! D197  D(28,27,30,47)         -8.8871         estimate D2E/DX2                !
 ! D198  D(25,28,45,44)          2.8019         estimate D2E/DX2                !
 ! D199  D(25,28,45,48)        146.474          estimate D2E/DX2                !
 ! D200  D(27,28,45,44)       -143.2776         estimate D2E/DX2                !
 ! D201  D(27,28,45,48)          0.3944         estimate D2E/DX2                !
 ! D202  D(14,29,30,27)          3.9073         estimate D2E/DX2                !
 ! D203  D(14,29,30,47)        157.4728         estimate D2E/DX2                !
 ! D204  D(31,29,30,27)       -150.292          estimate D2E/DX2                !
 ! D205  D(31,29,30,47)          3.2735         estimate D2E/DX2                !
 ! D206  D(14,29,31,34)        -12.5683         estimate D2E/DX2                !
 ! D207  D(14,29,31,49)       -154.2263         estimate D2E/DX2                !
 ! D208  D(30,29,31,34)        142.262          estimate D2E/DX2                !
 ! D209  D(30,29,31,49)          0.604          estimate D2E/DX2                !
 ! D210  D(27,30,47,48)          7.556          estimate D2E/DX2                !
 ! D211  D(27,30,47,50)        149.4135         estimate D2E/DX2                !
 ! D212  D(29,30,47,48)       -146.6695         estimate D2E/DX2                !
 ! D213  D(29,30,47,50)         -4.8119         estimate D2E/DX2                !
 ! D214  D(29,31,34,32)          4.2478         estimate D2E/DX2                !
 ! D215  D(29,31,34,51)       -138.897          estimate D2E/DX2                !
 ! D216  D(49,31,34,32)        151.1467         estimate D2E/DX2                !
 ! D217  D(49,31,34,51)          8.0019         estimate D2E/DX2                !
 ! D218  D(29,31,49,50)         -3.1011         estimate D2E/DX2                !
 ! D219  D(29,31,49,54)        140.6328         estimate D2E/DX2                !
 ! D220  D(34,31,49,50)       -149.6612         estimate D2E/DX2                !
 ! D221  D(34,31,49,54)         -5.9273         estimate D2E/DX2                !
 ! D222  D(16,32,33,18)         -0.0146         estimate D2E/DX2                !
 ! D223  D(16,32,33,36)       -141.9959         estimate D2E/DX2                !
 ! D224  D(34,32,33,18)        141.9464         estimate D2E/DX2                !
 ! D225  D(34,32,33,36)         -0.0349         estimate D2E/DX2                !
 ! D226  D(16,32,34,31)          6.9676         estimate D2E/DX2                !
 ! D227  D(16,32,34,51)        145.9879         estimate D2E/DX2                !
 ! D228  D(33,32,34,31)       -130.2464         estimate D2E/DX2                !
 ! D229  D(33,32,34,51)          8.774          estimate D2E/DX2                !
 ! D230  D(18,33,36,35)         -6.9499         estimate D2E/DX2                !
 ! D231  D(18,33,36,52)       -145.9234         estimate D2E/DX2                !
 ! D232  D(32,33,36,35)        130.2541         estimate D2E/DX2                !
 ! D233  D(32,33,36,52)         -8.7194         estimate D2E/DX2                !
 ! D234  D(31,34,51,52)        134.0401         estimate D2E/DX2                !
 ! D235  D(31,34,51,54)         -7.0358         estimate D2E/DX2                !
 ! D236  D(32,34,51,52)         -8.7305         estimate D2E/DX2                !
 ! D237  D(32,34,51,54)       -149.8065         estimate D2E/DX2                !
 ! D238  D(19,35,36,33)         -4.2692         estimate D2E/DX2                !
 ! D239  D(19,35,36,52)        138.8252         estimate D2E/DX2                !
 ! D240  D(37,35,36,33)       -151.0968         estimate D2E/DX2                !
 ! D241  D(37,35,36,52)         -8.0024         estimate D2E/DX2                !
 ! D242  D(19,35,37,39)          3.2041         estimate D2E/DX2                !
 ! D243  D(19,35,37,53)       -140.5312         estimate D2E/DX2                !
 ! D244  D(36,35,37,39)        149.6879         estimate D2E/DX2                !
 ! D245  D(36,35,37,53)          5.9526         estimate D2E/DX2                !
 ! D246  D(33,36,52,51)          8.7111         estimate D2E/DX2                !
 ! D247  D(33,36,52,53)        149.7513         estimate D2E/DX2                !
 ! D248  D(35,36,52,51)       -134.028          estimate D2E/DX2                !
 ! D249  D(35,36,52,53)          7.0121         estimate D2E/DX2                !
 ! D250  D(35,37,39,38)         -1.6139         estimate D2E/DX2                !
 ! D251  D(35,37,39,57)       -140.9215         estimate D2E/DX2                !
 ! D252  D(53,37,39,38)        138.0466         estimate D2E/DX2                !
 ! D253  D(53,37,39,57)         -1.261          estimate D2E/DX2                !
 ! D254  D(35,37,53,52)         -1.7292         estimate D2E/DX2                !
 ! D255  D(35,37,53,55)        139.8723         estimate D2E/DX2                !
 ! D256  D(39,37,53,52)       -145.2587         estimate D2E/DX2                !
 ! D257  D(39,37,53,55)         -3.6571         estimate D2E/DX2                !
 ! D258  D(21,38,39,37)         -2.4114         estimate D2E/DX2                !
 ! D259  D(21,38,39,57)        141.1341         estimate D2E/DX2                !
 ! D260  D(42,38,39,37)       -149.2174         estimate D2E/DX2                !
 ! D261  D(42,38,39,57)         -5.6719         estimate D2E/DX2                !
 ! D262  D(21,38,42,40)          2.3658         estimate D2E/DX2                !
 ! D263  D(21,38,42,58)       -140.9683         estimate D2E/DX2                !
 ! D264  D(39,38,42,40)        149.0299         estimate D2E/DX2                !
 ! D265  D(39,38,42,58)          5.6958         estimate D2E/DX2                !
 ! D266  D(37,39,57,58)        146.5959         estimate D2E/DX2                !
 ! D267  D(37,39,57,60)          4.811          estimate D2E/DX2                !
 ! D268  D(38,39,57,58)          3.5483         estimate D2E/DX2                !
 ! D269  D(38,39,57,60)       -138.2365         estimate D2E/DX2                !
 ! D270  D(23,40,41,24)         -0.1162         estimate D2E/DX2                !
 ! D271  D(23,40,41,43)       -140.3683         estimate D2E/DX2                !
 ! D272  D(42,40,41,24)        142.5286         estimate D2E/DX2                !
 ! D273  D(42,40,41,43)          2.2765         estimate D2E/DX2                !
 ! D274  D(23,40,42,38)          1.8284         estimate D2E/DX2                !
 ! D275  D(23,40,42,58)        141.3016         estimate D2E/DX2                !
 ! D276  D(41,40,42,38)       -137.2181         estimate D2E/DX2                !
 ! D277  D(41,40,42,58)          2.2551         estimate D2E/DX2                !
 ! D278  D(24,41,43,46)         -1.2417         estimate D2E/DX2                !
 ! D279  D(24,41,43,59)       -138.7803         estimate D2E/DX2                !
 ! D280  D(40,41,43,46)        133.471          estimate D2E/DX2                !
 ! D281  D(40,41,43,59)         -4.0676         estimate D2E/DX2                !
 ! D282  D(38,42,58,57)         -3.5713         estimate D2E/DX2                !
 ! D283  D(38,42,58,59)        138.7013         estimate D2E/DX2                !
 ! D284  D(40,42,58,57)       -147.2416         estimate D2E/DX2                !
 ! D285  D(40,42,58,59)         -4.9691         estimate D2E/DX2                !
 ! D286  D(41,43,46,44)         -0.0425         estimate D2E/DX2                !
 ! D287  D(41,43,46,61)       -142.0038         estimate D2E/DX2                !
 ! D288  D(59,43,46,44)        141.9595         estimate D2E/DX2                !
 ! D289  D(59,43,46,61)         -0.0017         estimate D2E/DX2                !
 ! D290  D(41,43,59,58)          1.3556         estimate D2E/DX2                !
 ! D291  D(41,43,59,65)        143.4531         estimate D2E/DX2                !
 ! D292  D(46,43,59,58)       -140.6067         estimate D2E/DX2                !
 ! D293  D(46,43,59,65)          1.4909         estimate D2E/DX2                !
 ! D294  D(26,44,45,28)          0.1288         estimate D2E/DX2                !
 ! D295  D(26,44,45,48)       -142.5456         estimate D2E/DX2                !
 ! D296  D(46,44,45,28)        140.4341         estimate D2E/DX2                !
 ! D297  D(46,44,45,48)         -2.2403         estimate D2E/DX2                !
 ! D298  D(26,44,46,43)          1.3062         estimate D2E/DX2                !
 ! D299  D(26,44,46,61)        138.82           estimate D2E/DX2                !
 ! D300  D(45,44,46,43)       -133.4327         estimate D2E/DX2                !
 ! D301  D(45,44,46,61)          4.0811         estimate D2E/DX2                !
 ! D302  D(28,45,48,47)         -1.8553         estimate D2E/DX2                !
 ! D303  D(28,45,48,62)       -141.4287         estimate D2E/DX2                !
 ! D304  D(44,45,48,47)        137.2427         estimate D2E/DX2                !
 ! D305  D(44,45,48,62)         -2.3307         estimate D2E/DX2                !
 ! D306  D(43,46,61,62)        140.5574         estimate D2E/DX2                !
 ! D307  D(43,46,61,65)         -1.4883         estimate D2E/DX2                !
 ! D308  D(44,46,61,62)         -1.3807         estimate D2E/DX2                !
 ! D309  D(44,46,61,65)       -143.4263         estimate D2E/DX2                !
 ! D310  D(30,47,48,45)         -2.342          estimate D2E/DX2                !
 ! D311  D(30,47,48,62)        141.0927         estimate D2E/DX2                !
 ! D312  D(50,47,48,45)       -149.1224         estimate D2E/DX2                !
 ! D313  D(50,47,48,62)         -5.6876         estimate D2E/DX2                !
 ! D314  D(30,47,50,49)          2.3324         estimate D2E/DX2                !
 ! D315  D(30,47,50,63)       -141.2676         estimate D2E/DX2                !
 ! D316  D(48,47,50,49)        149.2485         estimate D2E/DX2                !
 ! D317  D(48,47,50,63)          5.6484         estimate D2E/DX2                !
 ! D318  D(45,48,62,61)          5.031          estimate D2E/DX2                !
 ! D319  D(45,48,62,63)        147.3138         estimate D2E/DX2                !
 ! D320  D(47,48,62,61)       -138.7019         estimate D2E/DX2                !
 ! D321  D(47,48,62,63)          3.581          estimate D2E/DX2                !
 ! D322  D(31,49,50,47)          1.6254         estimate D2E/DX2                !
 ! D323  D(31,49,50,63)        140.9953         estimate D2E/DX2                !
 ! D324  D(54,49,50,47)       -138.0287         estimate D2E/DX2                !
 ! D325  D(54,49,50,63)          1.3412         estimate D2E/DX2                !
 ! D326  D(31,49,54,51)          1.6902         estimate D2E/DX2                !
 ! D327  D(31,49,54,56)       -139.8934         estimate D2E/DX2                !
 ! D328  D(50,49,54,51)        145.1958         estimate D2E/DX2                !
 ! D329  D(50,49,54,56)          3.6121         estimate D2E/DX2                !
 ! D330  D(47,50,63,62)         -3.5207         estimate D2E/DX2                !
 ! D331  D(47,50,63,64)        138.2278         estimate D2E/DX2                !
 ! D332  D(49,50,63,62)       -146.6182         estimate D2E/DX2                !
 ! D333  D(49,50,63,64)         -4.8697         estimate D2E/DX2                !
 ! D334  D(34,51,52,36)         -0.0021         estimate D2E/DX2                !
 ! D335  D(34,51,52,53)       -136.205          estimate D2E/DX2                !
 ! D336  D(54,51,52,36)        136.2177         estimate D2E/DX2                !
 ! D337  D(54,51,52,53)          0.0148         estimate D2E/DX2                !
 ! D338  D(34,51,54,49)          3.2722         estimate D2E/DX2                !
 ! D339  D(34,51,54,56)        144.5162         estimate D2E/DX2                !
 ! D340  D(52,51,54,49)       -137.6084         estimate D2E/DX2                !
 ! D341  D(52,51,54,56)          3.6356         estimate D2E/DX2                !
 ! D342  D(36,52,53,37)         -3.2339         estimate D2E/DX2                !
 ! D343  D(36,52,53,55)       -144.5111         estimate D2E/DX2                !
 ! D344  D(51,52,53,37)        137.6328         estimate D2E/DX2                !
 ! D345  D(51,52,53,55)         -3.6445         estimate D2E/DX2                !
 ! D346  D(37,53,55,56)       -133.2226         estimate D2E/DX2                !
 ! D347  D(37,53,55,60)          5.0197         estimate D2E/DX2                !
 ! D348  D(52,53,55,56)          3.6253         estimate D2E/DX2                !
 ! D349  D(52,53,55,60)        141.8676         estimate D2E/DX2                !
 ! D350  D(49,54,56,55)        133.1723         estimate D2E/DX2                !
 ! D351  D(49,54,56,64)         -5.0301         estimate D2E/DX2                !
 ! D352  D(51,54,56,55)         -3.6529         estimate D2E/DX2                !
 ! D353  D(51,54,56,64)       -141.8553         estimate D2E/DX2                !
 ! D354  D(53,55,56,54)          0.0237         estimate D2E/DX2                !
 ! D355  D(53,55,56,64)        142.7745         estimate D2E/DX2                !
 ! D356  D(60,55,56,54)       -142.7611         estimate D2E/DX2                !
 ! D357  D(60,55,56,64)         -0.0103         estimate D2E/DX2                !
 ! D358  D(53,55,60,57)         -1.4825         estimate D2E/DX2                !
 ! D359  D(53,55,60,66)       -144.024          estimate D2E/DX2                !
 ! D360  D(56,55,60,57)        141.166          estimate D2E/DX2                !
 ! D361  D(56,55,60,66)         -1.3755         estimate D2E/DX2                !
 ! D362  D(54,56,64,63)          1.5141         estimate D2E/DX2                !
 ! D363  D(54,56,64,66)        143.9824         estimate D2E/DX2                !
 ! D364  D(55,56,64,63)       -141.0761         estimate D2E/DX2                !
 ! D365  D(55,56,64,66)          1.3922         estimate D2E/DX2                !
 ! D366  D(39,57,58,42)          0.0307         estimate D2E/DX2                !
 ! D367  D(39,57,58,59)       -141.9458         estimate D2E/DX2                !
 ! D368  D(60,57,58,42)        141.5652         estimate D2E/DX2                !
 ! D369  D(60,57,58,59)         -0.4114         estimate D2E/DX2                !
 ! D370  D(39,57,60,55)         -3.4335         estimate D2E/DX2                !
 ! D371  D(39,57,60,66)        134.8354         estimate D2E/DX2                !
 ! D372  D(58,57,60,55)       -140.5478         estimate D2E/DX2                !
 ! D373  D(58,57,60,66)         -2.2789         estimate D2E/DX2                !
 ! D374  D(42,58,59,43)          3.1846         estimate D2E/DX2                !
 ! D375  D(42,58,59,65)       -134.6509         estimate D2E/DX2                !
 ! D376  D(57,58,59,43)        140.6618         estimate D2E/DX2                !
 ! D377  D(57,58,59,65)          2.8263         estimate D2E/DX2                !
 ! D378  D(43,59,65,61)         -2.4105         estimate D2E/DX2                !
 ! D379  D(43,59,65,66)       -144.9898         estimate D2E/DX2                !
 ! D380  D(58,59,65,61)        140.0213         estimate D2E/DX2                !
 ! D381  D(58,59,65,66)         -2.558          estimate D2E/DX2                !
 ! D382  D(55,60,66,64)          2.2294         estimate D2E/DX2                !
 ! D383  D(55,60,66,65)        145.1948         estimate D2E/DX2                !
 ! D384  D(57,60,66,64)       -140.4233         estimate D2E/DX2                !
 ! D385  D(57,60,66,65)          2.5421         estimate D2E/DX2                !
 ! D386  D(46,61,62,48)         -3.1941         estimate D2E/DX2                !
 ! D387  D(46,61,62,63)       -140.6581         estimate D2E/DX2                !
 ! D388  D(65,61,62,48)        134.597          estimate D2E/DX2                !
 ! D389  D(65,61,62,63)         -2.867          estimate D2E/DX2                !
 ! D390  D(46,61,65,59)          2.4091         estimate D2E/DX2                !
 ! D391  D(46,61,65,66)        144.9897         estimate D2E/DX2                !
 ! D392  D(62,61,65,59)       -139.9932         estimate D2E/DX2                !
 ! D393  D(62,61,65,66)          2.5873         estimate D2E/DX2                !
 ! D394  D(48,62,63,50)         -0.0534         estimate D2E/DX2                !
 ! D395  D(48,62,63,64)       -141.535          estimate D2E/DX2                !
 ! D396  D(61,62,63,50)        141.909          estimate D2E/DX2                !
 ! D397  D(61,62,63,64)          0.4274         estimate D2E/DX2                !
 ! D398  D(50,63,64,56)          3.4362         estimate D2E/DX2                !
 ! D399  D(50,63,64,66)       -134.7699         estimate D2E/DX2                !
 ! D400  D(62,63,64,56)        140.5037         estimate D2E/DX2                !
 ! D401  D(62,63,64,66)          2.2977         estimate D2E/DX2                !
 ! D402  D(56,64,66,60)         -2.2356         estimate D2E/DX2                !
 ! D403  D(56,64,66,65)       -145.1816         estimate D2E/DX2                !
 ! D404  D(63,64,66,60)        140.374          estimate D2E/DX2                !
 ! D405  D(63,64,66,65)         -2.5721         estimate D2E/DX2                !
 ! D406  D(59,65,66,60)         -0.1176         estimate D2E/DX2                !
 ! D407  D(59,65,66,64)        138.2518         estimate D2E/DX2                !
 ! D408  D(61,65,66,60)       -138.2462         estimate D2E/DX2                !
 ! D409  D(61,65,66,64)          0.1231         estimate D2E/DX2                !
 --------------------------------------------------------------------------------
 Trust Radius=3.00D-01 FncErr=1.00D-07 GrdErr=1.00D-06 EigMax=2.50D+02 EigMin=1.00D-04
 Number of steps in this run=    408 maximum allowed number of steps=    408.
 GradGradGradGradGradGradGradGradGradGradGradGradGradGradGradGradGradGrad

 Leave Link  103 at Fri Jul 15 01:00:15 2022, MaxMem=  1342177280 cpu:               1.3 elap:               0.0
 (Enter /home/mkliu/g16/l202.exe)
 Stoichiometry    C66Cl2
 Framework group  C1[X(C66Cl2)]
 Deg. of freedom   198
 Full point group                 C1      NOp   1
 Largest Abelian subgroup         C1      NOp   1
 Largest concise Abelian subgroup C1      NOp   1
                         Input orientation:                         
 ---------------------------------------------------------------------
 Center     Atomic      Atomic             Coordinates (Angstroms)
 Number     Number       Type             X           Y           Z
 ---------------------------------------------------------------------
      1          6           0       -3.979791   -0.083584   -0.776447
      2          6           0       -3.983007   -0.072467    0.774509
      3          6           0       -3.417451    1.285668    1.126993
      4          6           0       -3.415355    1.272642   -1.139584
      5          6           0       -3.201795    2.084220   -0.010220
      6          6           0       -2.394986    1.152322   -2.059786
      7          6           0       -2.947815   -0.980922   -1.384232
      8          6           0       -2.168154   -0.258141   -2.292826
      9          6           0       -2.404039   -2.085723   -0.720069
     10          6           0       -2.955217   -0.968214    1.392468
     11          6           0       -2.408033   -2.078499    0.738406
     12          6           0       -2.400024    1.172693    2.049994
     13          6           0       -2.175630   -0.237179    2.295807
     14          6           0       -1.308088    2.087889    2.132247
     15          6           0       -2.117879    2.954615   -0.014844
     16          6           0       -1.280370    3.077370    1.135065
     17          6           0       -1.303677    2.067164   -2.151911
     18          6           0       -1.278558    3.065959   -1.164759
     19          6           0       -0.059059    1.621215   -2.752006
     20          6           0       -0.944266   -0.719244   -2.800686
     21          6           0        0.109016    0.224727   -3.120717
     22          6           0       -1.304999   -2.672828   -1.363830
     23          6           0       -0.634151   -2.039307   -2.446534
     24          6           0       -0.336225   -3.472785   -0.674663
     25          6           0       -1.309072   -2.660633    1.386493
     26          6           0       -0.337926   -3.466288    0.704722
     27          6           0       -0.951165   -0.693335    2.805934
     28          6           0       -0.639121   -2.016607    2.463458
     29          6           0       -0.063924    1.646722    2.736744
     30          6           0        0.102758    0.253261    3.117052
     31          6           0        1.093318    2.382739    2.445487
     32          6           0       -0.036775    3.637850    0.701916
     33          6           0       -0.035538    3.631000   -0.736322
     34          6           0        1.119988    3.359124    1.386203
     35          6           0        1.097507    2.360563   -2.467022
     36          6           0        1.122167    3.346574   -1.416818
     37          6           0        2.407460    1.783771   -2.513524
     38          6           0        1.401276   -0.298822   -3.241273
     39          6           0        2.562322    0.475260   -2.912196
     40          6           0        0.710029   -2.524577   -2.493018
     41          6           0        0.911507   -3.423737   -1.392245
     42          6           0        1.708318   -1.668995   -2.904024
     43          6           0        2.110909   -3.396408   -0.705226
     44          6           0        0.908882   -3.410456    1.422944
     45          6           0        0.705067   -2.501176    2.515061
     46          6           0        2.109630   -3.390056    0.737742
     47          6           0        1.394729   -0.269025    3.243029
     48          6           0        1.702855   -1.641952    2.918951
     49          6           0        2.403191    1.806578    2.499396
     50          6           0        2.556615    0.501590    2.909814
     51          6           0        2.364259    3.247578    0.681029
     52          6           0        2.365347    3.241379   -0.708475
[...]
 Alpha virt. eigenvalues --    0.86830   0.86941   0.87312   0.87555   0.88192
 Alpha virt. eigenvalues --    0.88370   0.88802   0.89438   0.89933   0.90596
 Alpha virt. eigenvalues --    0.91621   0.91671   0.92126   0.92696   0.93063
 Alpha virt. eigenvalues --    0.93155   0.93487   0.93933   0.94028   0.94810
 Alpha virt. eigenvalues --    0.95196   0.95993   0.96161   0.96473   0.96523
 Alpha virt. eigenvalues --    0.96888   0.97306   0.97655   0.97659   0.98264
 Alpha virt. eigenvalues --    0.98689   0.99222   0.99267   0.99682   1.00048
 Alpha virt. eigenvalues --    1.00385   1.00539   1.01803   1.02391   1.03109
 Alpha virt. eigenvalues --    1.03510   1.03931   1.04035   1.04781   1.04987
 Alpha virt. eigenvalues --    1.05226   1.05229   1.06173   1.06286   1.06623
 Alpha virt. eigenvalues --    1.06856   1.07192   1.07353   1.07877   1.08004
 Alpha virt. eigenvalues --    1.08383   1.09190   1.09248   1.09422   1.10172
 Alpha virt. eigenvalues --    1.10535   1.10676   1.10850   1.11079   1.11470
 Alpha virt. eigenvalues --    1.12089   1.12627   1.13368   1.13731   1.13826
 Alpha virt. eigenvalues --    1.15068   1.15248   1.15392   1.16237   1.17090
 Alpha virt. eigenvalues --    1.17252   1.17942   1.18057   1.18180   1.18909
 Alpha virt. eigenvalues --    1.19510   1.20051   1.20433   1.20855   1.20987
 Alpha virt. eigenvalues --    1.20989   1.21505   1.22131   1.22619   1.23053
 Alpha virt. eigenvalues --    1.23162   1.23190   1.24285   1.24351   1.25519
 Alpha virt. eigenvalues --    1.25625   1.26278   1.26722   1.27009   1.27219
 Alpha virt. eigenvalues --    1.28123   1.28582   1.28821   1.28946   1.29115
 Alpha virt. eigenvalues --    1.29853   1.31134   1.31165   1.32008   1.32213
 Alpha virt. eigenvalues --    1.32300   1.32811   1.33482   1.33650   1.34326
 Alpha virt. eigenvalues --    1.34424   1.34575   1.35141   1.35156   1.35393
 Alpha virt. eigenvalues --    1.35845   1.35911   1.36282   1.36509   1.37162
 Alpha virt. eigenvalues --    1.37280   1.37922   1.38232   1.38618   1.39060
 Alpha virt. eigenvalues --    1.39100   1.39434   1.39672   1.40092   1.40673
 Alpha virt. eigenvalues --    1.41068   1.41303   1.41452   1.41799   1.41917
 Alpha virt. eigenvalues --    1.42405   1.42434   1.42971   1.43088   1.43176
 Alpha virt. eigenvalues --    1.43685   1.43861   1.44294   1.45046   1.45174
 Alpha virt. eigenvalues --    1.45247   1.45701   1.45767   1.46019   1.46310
 Alpha virt. eigenvalues --    1.46469   1.46709   1.47097   1.47136   1.47307
 Alpha virt. eigenvalues --    1.47614   1.47645   1.48243   1.48313   1.48491
 Alpha virt. eigenvalues --    1.48712   1.48740   1.49054   1.49230   1.49639
 Alpha virt. eigenvalues --    1.50058   1.50069   1.50457   1.50686   1.51239
 Alpha virt. eigenvalues --    1.51860   1.52054   1.52436   1.52591   1.53257
 Alpha virt. eigenvalues --    1.53807   1.54196   1.54237   1.54361   1.54583
 Alpha virt. eigenvalues --    1.55273   1.55501   1.55906   1.56137   1.56282
 Alpha virt. eigenvalues --    1.56453   1.57710   1.57765   1.58531   1.59292
 Alpha virt. eigenvalues --    1.59734   1.59914   1.60662   1.60703   1.60792
 Alpha virt. eigenvalues --    1.60951   1.62241   1.62292   1.62848   1.63574
 Alpha virt. eigenvalues --    1.63948   1.63996   1.64941   1.65421   1.65457
 Alpha virt. eigenvalues --    1.65613   1.66047   1.66465   1.66919   1.67374
 Alpha virt. eigenvalues --    1.67888   1.68035   1.68196   1.68981   1.69061
 Alpha virt. eigenvalues --    1.69455   1.69986   1.70379   1.70662   1.71258
 Alpha virt. eigenvalues --    1.71415   1.71872   1.71963   1.72653   1.73684
 Alpha virt. eigenvalues --    1.73801   1.73895   1.74941   1.75021   1.75198
 Alpha virt. eigenvalues --    1.75222   1.75674   1.76006   1.76889   1.77340
 Alpha virt. eigenvalues --    1.77401   1.77656   1.77948   1.78115   1.78587
 Alpha virt. eigenvalues --    1.78821   1.79084   1.79752   1.80505   1.80551
 Alpha virt. eigenvalues --    1.81419   1.81459   1.81728   1.81800   1.82764
 Alpha virt. eigenvalues --    1.83684   1.84116   1.85056   1.85614   1.86099
 Alpha virt. eigenvalues --    1.86698   1.86875   1.87889   1.88381   1.88516
 Alpha virt. eigenvalues --    1.89509   1.90216   1.90713   1.90790   1.91208
 Alpha virt. eigenvalues --    1.91826   1.92558   1.92725   1.93301   1.94311
 Alpha virt. eigenvalues --    1.94828   1.95033   1.95499   1.95844   1.96411
 Alpha virt. eigenvalues --    1.97016   1.97113   1.97553   1.98027   1.99471
 Alpha virt. eigenvalues --    2.00073   2.00665   2.00936   2.01334   2.01371
 Alpha virt. eigenvalues --    2.01684   2.01712   2.01943   2.02580   2.02718
 Alpha virt. eigenvalues --    2.03128   2.03207   2.03684   2.04164   2.04255
 Alpha virt. eigenvalues --    2.04302   2.05220   2.05889   2.07104   2.07189
 Alpha virt. eigenvalues --    2.08107   2.08656   2.08774   2.09167   2.09471
 Alpha virt. eigenvalues --    2.10491   2.10724   2.11738   2.11784   2.12957
 Alpha virt. eigenvalues --    2.13415   2.13559   2.14024   2.14401   2.15369
 Alpha virt. eigenvalues --    2.15686   2.15745   2.16501   2.16752   2.17636
 Alpha virt. eigenvalues --    2.17714   2.18446   2.19342   2.19505   2.20767
 Alpha virt. eigenvalues --    2.20912   2.21483   2.22393   2.22711   2.22784
 Alpha virt. eigenvalues --    2.23787   2.24014   2.24754   2.24912   2.25136
 Alpha virt. eigenvalues --    2.25613   2.26027   2.26929   2.27023   2.27477
 Alpha virt. eigenvalues --    2.27728   2.28710   2.29361   2.29823   2.30041
 Alpha virt. eigenvalues --    2.30272   2.30865   2.31727   2.32450   2.32904
 Alpha virt. eigenvalues --    2.33292   2.33724   2.34310   2.35221   2.35958
 Alpha virt. eigenvalues --    2.36347   2.36737   2.37501   2.38454   2.38543
 Alpha virt. eigenvalues --    2.38870   2.39968   2.40369   2.40662   2.41019
 Alpha virt. eigenvalues --    2.41624   2.41947   2.42592   2.42646   2.42926
 Alpha virt. eigenvalues --    2.43768   2.43806   2.43838   2.44763   2.44983
 Alpha virt. eigenvalues --    2.45867   2.46375   2.47000   2.47429   2.48029
 Alpha virt. eigenvalues --    2.48521   2.49760   2.50336   2.50845   2.51074
 Alpha virt. eigenvalues --    2.51129   2.51770   2.52514   2.52516   2.53477
 Alpha virt. eigenvalues --    2.53762   2.54800   2.54928   2.54985   2.55463
 Alpha virt. eigenvalues --    2.55652   2.56958   2.57044   2.57414   2.57973
 Alpha virt. eigenvalues --    2.58389   2.58637   2.59518   2.59707   2.60397
 Alpha virt. eigenvalues --    2.61069   2.61408   2.61978   2.62123   2.62389
 Alpha virt. eigenvalues --    2.63389   2.63527   2.63756   2.64203   2.64489
 Alpha virt. eigenvalues --    2.65077   2.65360   2.67815   2.69016   2.69391
 Alpha virt. eigenvalues --    2.69673   2.70354   2.70676   2.71878   2.72880
 Alpha virt. eigenvalues --    2.73238   2.73544   2.76141   2.76188   2.76363
 Alpha virt. eigenvalues --    2.78772   2.78775   2.80185   2.80307   2.81973
 Alpha virt. eigenvalues --    2.82017   2.82997   2.83754   2.84234   2.85580
 Alpha virt. eigenvalues --    2.86083   2.86411   2.87003   2.87435   2.88383
 Alpha virt. eigenvalues --    2.88647   2.89077   2.91534   2.91996   2.92755
 Alpha virt. eigenvalues --    2.93200   2.93262   2.93696   2.94465   2.94692
 Alpha virt. eigenvalues --    2.95120   2.95875   2.96884   2.97027   2.97093
 Alpha virt. eigenvalues --    2.97538   2.97628   2.98508   2.98657   2.98925
 Alpha virt. eigenvalues --    2.99005   2.99687   2.99702   3.00330   3.01028
 Alpha virt. eigenvalues --    3.01150   3.01915   3.02219   3.03093   3.03116
 Alpha virt. eigenvalues --    3.03335   3.03572   3.03846   3.03936   3.04087
 Alpha virt. eigenvalues --    3.04512   3.04608   3.05198   3.05611   3.06113
 Alpha virt. eigenvalues --    3.06160   3.06307   3.06572   3.06984   3.08002
 Alpha virt. eigenvalues --    3.08526   3.08986   3.09058   3.09230   3.10642
 Alpha virt. eigenvalues --    3.10683   3.11045   3.11226   3.11337   3.11400
 Alpha virt. eigenvalues --    3.12150   3.12589   3.12617   3.12947   3.13229
 Alpha virt. eigenvalues --    3.13331   3.13704   3.14158   3.14221   3.14406
 Alpha virt. eigenvalues --    3.14795   3.14822   3.15412   3.15416   3.17133
 Alpha virt. eigenvalues --    3.17780   3.18473   3.18750   3.19216   3.19237
 Alpha virt. eigenvalues --    3.19618   3.19932   3.20750   3.22230   3.22938
 Alpha virt. eigenvalues --    3.24581   3.25290   3.26018   3.28748   3.38614
 Alpha virt. eigenvalues --    3.40224   3.41779   3.42189   3.43045   3.44208
 Alpha virt. eigenvalues --    3.44995   3.46237   3.47279   3.48246   3.48604
 Alpha virt. eigenvalues --    3.49357   3.51889   3.51900   3.52503   3.52695
 Alpha virt. eigenvalues --    3.53429   3.53900   3.55752   3.57405   3.57822
 Alpha virt. eigenvalues --    3.58281   3.58632   3.59015   3.60005   3.61466
 Alpha virt. eigenvalues --    3.63643   3.64288   3.64733   3.65292   3.66460
 Alpha virt. eigenvalues --    3.66926   3.67931   3.68225   3.69573   3.70702
 Alpha virt. eigenvalues --    3.70807   3.72060   3.73278   3.73833   3.74298
 Alpha virt. eigenvalues --    3.76104   3.76971   3.78455   3.80113   3.81306
 Alpha virt. eigenvalues --    3.82097   3.82705   3.83587   3.85054   3.85893
 Alpha virt. eigenvalues --    3.86118   3.87041   3.88058   3.88602   3.88902
 Alpha virt. eigenvalues --    3.89425   3.89710   3.90434   3.90872   3.91215
 Alpha virt. eigenvalues --    3.92137   3.94211   3.96746   4.00953   4.05367
 Alpha virt. eigenvalues --    4.19125   4.22824   4.23008   4.25395   4.28604
 Alpha virt. eigenvalues --    4.29832   4.36303   4.36435   4.38474   4.39489
 Alpha virt. eigenvalues --    4.40825   4.48233   4.48513   4.58108   4.59165
 Alpha virt. eigenvalues --    4.60498   4.61958   4.64618   4.65078   4.66470
 Alpha virt. eigenvalues --    4.68209   4.72455   4.73268   4.81445   4.81924
 Alpha virt. eigenvalues --    4.87094   4.88231   4.93321   4.96999   4.99003
 Alpha virt. eigenvalues --    5.00760   5.02655   5.03126   5.05239   9.54517
 Alpha virt. eigenvalues --    9.66065  22.99062  23.19702  23.21680  23.21835
 Alpha virt. eigenvalues --   23.42476  23.46612  23.46771  23.47797  23.49739
 Alpha virt. eigenvalues --   23.62418  23.65870  23.67593  23.68816  23.70730
 Alpha virt. eigenvalues --   23.73635  23.74685  23.77284  23.79413  23.80676
 Alpha virt. eigenvalues --   23.80911  23.83552  23.83651  23.85813  23.88118
 Alpha virt. eigenvalues --   23.89377  23.90325  23.90464  23.91357  23.92711
 Alpha virt. eigenvalues --   23.93346  23.94395  23.94748  23.95164  23.95914
 Alpha virt. eigenvalues --   23.96549  23.96930  23.97071  23.97509  23.97578
 Alpha virt. eigenvalues --   23.98196  23.98307  23.98944  23.98967  24.00732
 Alpha virt. eigenvalues --   24.01658  24.03327  24.03766  24.05430  24.06493
 Alpha virt. eigenvalues --   24.07265  24.07649  24.08072  24.08393  24.09303
 Alpha virt. eigenvalues --   24.09936  24.10059  24.10408  24.10727  24.11015
 Alpha virt. eigenvalues --   24.11112  24.11857  24.12387  24.12889  24.13059
 Alpha virt. eigenvalues --   24.14787  24.18439  25.55003  25.74709  25.78990
 Alpha virt. eigenvalues --   25.80981  26.20894  26.57183 215.49574 215.62959
          Condensed to atoms (all electrons):
 Mulliken charges:
               1
     1  C   -0.423338
     2  C   -0.423424
     3  C    0.127021
     4  C    0.126882
     5  C    0.058723
     6  C    0.028617
     7  C    0.109715
     8  C    0.016006
     9  C    0.045459
    10  C    0.110041
    11  C    0.045088
    12  C    0.028635
    13  C    0.015875
    14  C    0.011294
    15  C   -0.037400
    16  C    0.009283
    17  C    0.011387
    18  C    0.009243
    19  C    0.017624
    20  C    0.024056
    21  C    0.021238
    22  C   -0.018202
    23  C    0.004041
    24  C    0.001830
    25  C   -0.018049
    26  C    0.001794
    27  C    0.024326
    28  C    0.003884
    29  C    0.017758
    30  C    0.021044
    31  C   -0.000189
    32  C   -0.004935
    33  C   -0.004868
    34  C   -0.005498
    35  C   -0.000123
    36  C   -0.005553
    37  C   -0.005344
    38  C   -0.007967
    39  C   -0.005886
    40  C   -0.003133
    41  C   -0.001514
    42  C   -0.003802
    43  C    0.002569
    44  C   -0.001540
    45  C   -0.003048
    46  C    0.002589
    47  C   -0.007884
    48  C   -0.003874
    49  C   -0.005317
    50  C   -0.005916
    51  C    0.003040
    52  C    0.003061
    53  C    0.002595
    54  C    0.002588
    55  C   -0.000321
    56  C   -0.000316
    57  C    0.000975
    58  C   -0.000429
    59  C    0.001453
    60  C    0.002742
    61  C    0.001443
    62  C   -0.000404
    63  C    0.000985
    64  C    0.002740
    65  C    0.002429
    66  C   -0.001576
    67  Cl   0.039907
    68  Cl   0.039871
 Sum of Mulliken charges =  -0.00000
 Mulliken charges with hydrogens summed into heavy atoms:
               1
     1  C   -0.423338
     2  C   -0.423424
     3  C    0.127021
     4  C    0.126882
     5  C    0.058723
     6  C    0.028617
     7  C    0.109715
     8  C    0.016006
     9  C    0.045459
    10  C    0.110041
    11  C    0.045088
    12  C    0.028635
    13  C    0.015875
    14  C    0.011294
    15  C   -0.037400
    16  C    0.009283
    17  C    0.011387
    18  C    0.009243
    19  C    0.017624
    20  C    0.024056
    21  C    0.021238
    22  C   -0.018202
    23  C    0.004041
    24  C    0.001830
    25  C   -0.018049
    26  C    0.001794
    27  C    0.024326
    28  C    0.003884
    29  C    0.017758
    30  C    0.021044
    31  C   -0.000189
    32  C   -0.004935
    33  C   -0.004868
    34  C   -0.005498
    35  C   -0.000123
    36  C   -0.005553
    37  C   -0.005344
    38  C   -0.007967
    39  C   -0.005886
    40  C   -0.003133
    41  C   -0.001514
    42  C   -0.003802
    43  C    0.002569
    44  C   -0.001540
    45  C   -0.003048
    46  C    0.002589
    47  C   -0.007884
    48  C   -0.003874
    49  C   -0.005317
    50  C   -0.005916
    51  C    0.003040
    52  C    0.003061
    53  C    0.002595
    54  C    0.002588
    55  C   -0.000321
    56  C   -0.000316
    57  C    0.000975
    58  C   -0.000429
    59  C    0.001453
    60  C    0.002742
    61  C    0.001443
    62  C   -0.000404
    63  C    0.000985
    64  C    0.002740
    65  C    0.002429
    66  C   -0.001576
    67  Cl   0.039907
    68  Cl   0.039871
 Electronic spatial extent (au):  <R**2>=          25066.0659
 Charge=             -0.0000 electrons
 Dipole moment (field-independent basis, Debye):
    X=              2.4156    Y=              0.4938    Z=             -0.0004  Tot=              2.4655
 Quadrupole moment (field-independent basis, Debye-Ang):
   XX=           -407.9353   YY=           -392.4580   ZZ=           -393.9291
   XY=             -1.8179   XZ=              0.0024   YZ=             -0.0013
 Traceless Quadrupole moment (field-independent basis, Debye-Ang):
   XX=             -9.8278   YY=              5.6494   ZZ=              4.1784
   XY=             -1.8179   XZ=              0.0024   YZ=             -0.0013
 Octapole moment (field-independent basis, Debye-Ang**2):
  XXX=             -1.0154  YYY=             -6.8756  ZZZ=             -0.0021  XYY=            -29.9157
  XXY=              5.4709  XXZ=             -0.0107  XZZ=            -24.6663  YZZ=             -0.7760
  YYZ=             -0.0018  XYZ=             -0.0011
 Hexadecapole moment (field-independent basis, Debye-Ang**3):
 XXXX=         -18552.2806 YYYY=         -10698.4939 ZZZZ=          -9000.2741 XXXY=             24.0964
 XXXZ=              0.0569 YYYX=             42.7184 YYYZ=              0.0149 ZZZX=              0.0061
 ZZZY=              0.0203 XXYY=          -4806.7451 XXZZ=          -4557.3502 YYZZ=          -3287.8757
 XXYZ=              0.0209 YYXZ=              0.0087 ZZXY=             10.4455
 N-N= 1.091782721111D+04 E-N=-2.985290856771D+04  KE= 3.423423005573D+03
 No NMR shielding tensors so no spin-rotation constants.
 Leave Link  601 at Fri Jul 15 01:43:34 2022, MaxMem=  1342177280 cpu:              50.6 elap:               1.3
 (Enter /home/mkliu/g16/l9999.exe)
 1\1\GINC-NODE02\FOpt\RB3LYP\6-311G(d,p)\C66Cl2\MKLIU\15-Jul-2022\0\\#P
  opt b3lyp/6-311G(d, p) empiricaldispersion=GD3\\force\\0,1\C,-1.32492
 84278,1.8603012607,-3.9145957715\C,0.2104115743,2.1924642419,-3.961366
 6972\C,0.8740581162,0.8326815531,-4.0909793395\C,-1.3742271397,0.34621
 55664,-4.0228560303\C,-0.0843382207,-0.2007946308,-4.2319770351\C,-2.2
 032064569,-0.1852492568,-3.0477417139\C,-1.9571932062,2.0845516728,-2.
 5604397584\C,-2.648967573,0.9198031068,-2.185945503\C,-1.4526733216,2.
 9724498734,-1.5888662534\C,0.7713614487,2.6753396735,-2.6438769802\C,0
 .0025797815,3.2872877664,-1.6332675563\C,1.9039610819,0.7035290444,-3.
 1728252555\C,1.9028956133,1.9049323254,-2.3247568717\C,2.2599477178,-0
 .5624402263,-2.6011779189\C,0.2031011728,-1.4499388645,-3.6725868291\C
 ,1.4620330732,-1.6719432674,-3.0020922748\C,-1.9704851449,-1.477892798
 4,-2.4722379569\C,-0.8103440389,-2.1637038334,-2.932773756\C,-2.479805
 9242,-1.756737728,-1.1260021755\C,-3.0757112742,0.6926341344,-0.859948
 8869\C,-3.0829653786,-0.6729399524,-0.3282442261\C,-2.0674684114,2.891
 9143013,-0.3216718474\C,-2.9336873635,1.7963397698,0.0173701624\C,-1.3
 963360743,3.3052400327,0.8962317812\C,0.6683583355,3.4839236848,-0.405
 104294\C,-0.041464304,3.5983807299,0.8548795488\C,2.461783259,1.890966
 7727,-1.0288719431\C,1.9278345151,2.8483580229,-0.130870821\C,2.916432
 9788,-0.5890498016,-1.2905587255\C,3.0633279864,0.6570882327,-0.515708
 8351\C,2.9130481975,-1.8109140634,-0.5777453966\C,1.283919996,-2.79216
 34186,-2.1213465572\C,-0.1344720234,-3.0991330802,-2.0780936984\C,2.04
 1627952,-2.9039336111,-0.9766596761\C,-1.9305393798,-2.8590086058,-0.4
 300407486\C,-0.710297486,-3.4994025382,-0.8927132638\C,-1.9169653955,-
 2.9254928864,1.0068515046\C,-3.1303773964,-0.8116407413,1.0741111254\C
 ,-2.5223958391,-1.9289035074,1.7486331952\C,-2.8858953481,1.60925947,1
 .4440343711\C,-1.9311719344,2.544327954,2.0029982848\C,-3.0053795974,0
 .3365339144,1.9625106075\C,-1.1125552807,2.1464823769,3.0566553227\C,0
 .8233446169,3.1403840485,1.9190008566\C,2.0447593199,2.6762693967,1.29
 37077648\C,0.3050128586,2.4532398115,3.0134288968\C,3.2453828074,0.568
 0456771,0.8796513972\C,2.7092000158,1.5731424163,1.7882267661\C,3.0118
 16744,-1.8589519533,0.856539192\C,3.1935613084,-0.6919910294,1.5742891
 94\C,1.4817150817,-3.5012667585,0.2157884964\C,0.1147126592,-3.7970911
 786,0.2574948847\C,-0.6479621744,-3.4865675796,1.4430728533\C,2.115625
 655,-2.8885348516,1.358785191\C,-0.0197639875,-2.9737394346,2.57393422
 38\C,1.3986925884,-2.6667871285,2.5306624578\C,-1.9161362409,-1.459760
 2097,2.9818433758\C,-2.2190872788,-0.0534985865,3.1153118657\C,-1.2669
 231854,0.8261216466,3.6336893108\C,-0.6726194025,-1.9509091996,3.37029
 26641\C,1.0242860649,1.3219178606,3.5637946034\C,2.2228150826,0.907702
 6933,2.9798433977\C,2.5205741035,-0.4996821872,2.8465122114\C,1.615908
 3463,-1.4556768731,3.3004775963\C,0.0519698767,0.3268717405,3.97953713
 8\C,0.3416583024,-1.0300255164,3.8503615207\Cl,-2.349203747,2.68121621
 98,-5.1787634647\Cl,0.7288575984,3.346113666,-5.2735547358\\Version=ES
 64L-G16RevA.03\State=1-A\HF=-3435.8339204\RMSD=8.000e-09\RMSF=7.760e-0
 5\Dipole=0.1477225,-0.5752453,0.7669498\Quadrupole=2.9352597,1.0573857
 ,-3.9926454,0.6024182,-1.3423802,5.2119688\PG=C01 [X(C66Cl2)]\\@


 WHEN YOU REACH FOR THE STARS, YOU MAY NOT QUITE GET ONE,
 BUT YOU WON'T COME UP WITH A HANDFUL OF MUD, EITHER.

                                         -- LEO BURNETT (AD AGENCY HEAD)
 Job cpu time:       1 days 10 hours 23 minutes 20.6 seconds.
 Elapsed time:       0 days  0 hours 43 minutes  6.2 seconds.
 File lengths (MBytes):  RWF=    943 Int=      0 D2E=      0 Chk=    116 Scr=      1
 Normal termination of Gaussian 16 at Fri Jul 15 01:43:35 2022.
