63
 energy: -142.113877414293 gnorm: 0.049043427331 xtb: 6.4.1 (a3dbbd7)
C        -1.31574317122763    0.00037617299807    3.59172702762501
C        -0.38598735924873   -1.27484997715095    3.59970034056479
C         0.98631029074517   -0.73313033535946    3.27527665000907
C         0.97279345103194    0.69531496962250    3.23697219205546
C        -0.37655002861093    1.13382541643077    3.27862328806622
C         2.34183956565846   -2.57614103566594    0.58047481549658
C         3.15081782348305   -1.39874396877133    0.56266014549503
C         2.88394525847724   -0.68292620542182    1.77331445920575
C         1.91933737975965   -1.40450037769183    2.55054852680878
C         1.70281010389188   -2.76079101197610    1.93336999812875
C         3.16550930054193    1.42624262049042    0.54491416429293
C         2.32576469111419    2.59421755477212    0.54614329875916
C         1.56686655650748    2.56587740001319    1.76677194564586
C         1.91998177515396    1.39876709263765    2.50535183914461
C         2.90495363120045    0.69637464850674    1.75741617800615
C        -0.36253919105371    3.44350656247795    0.57384986314882
C        -1.73158711996853    2.99478530938089    0.58024710209537
C        -1.95478321160528    2.27281843087766    1.79087352254131
C        -0.72391521226905    2.25081500963669    2.55774046828491
C         0.24800860253841    2.97254038110473    1.78632537489120
C        -3.36960748768630    0.71056552639977    0.56857305070599
C        -3.38204943271837   -0.71295656808635    0.56482527351430
C        -2.74922556701557   -1.14676707704535    1.80980476641089
C        -2.38865296569420   -0.01624926913169    2.55774341725538
C        -2.74561494092371    1.13839817234707    1.80894684956704
C        -1.72169093225874   -2.96766684067981    0.56499565598559
C        -0.35188012370065   -3.40962530730057    0.56932543420497
C         0.23526001586460   -2.94884857453044    1.80720692996125
C        -0.70415143516748   -2.25961265751034    2.52782646604144
C        -1.93560662138018   -2.26809414257575    1.78493507354425
C        -0.24276325061490   -2.99278609044033   -1.81840565999499
C         0.74765220064540   -2.26631066022485   -2.56565063918420
C         1.96808841491403   -2.25713762786878   -1.80355414574153
C         1.75922216893937   -2.98389677544893   -0.58456926392921
C         0.36015598599935   -3.42967381029092   -0.59521620330609
C         2.78135248554157   -1.13722643085146   -1.83638092982628
C         2.40563480590985    0.02456338082539   -2.59626951786093
C         2.78474883621285    1.19379013528489   -1.85276967378153
C         3.39057960877686    0.73633055638310   -0.62730755787749
C         3.38193966247477   -0.69974373954316   -0.61739212871127
C         1.96787880544826    2.31081584033683   -1.84734247887403
C         0.74008741190314    2.30670778156863   -2.59752128296490
C        -0.24916895729111    3.02305950636108   -1.83912860975330
C         0.35901950625480    3.45535805338268   -0.60723367206929
C         1.73366523020806    3.02825098329674   -0.62316380973079
C        -1.56571254071523    2.59008840298777   -1.82847843017953
C        -1.94479947989566    1.42713050364341   -2.58786187620180
C        -2.93563978748831    0.70480832001268   -1.83077684219046
C        -3.16238235836876    1.41612189332174   -0.60098570370582
C        -2.32046263530236    2.58385145144892   -0.60743737845722
C        -2.93730359011696   -0.67992979929491   -1.83318549277593
C        -1.94168522144065   -1.39889842804846   -2.58412968249352
C        -1.56488663169304   -2.56575580513003   -1.82476383677318
C        -2.32281039352207   -2.57009971757903   -0.61430213216713
C        -3.16932297617479   -1.40240679283711   -0.60656401203573
C        -0.98883937317219   -0.70546356622675   -3.30425992635382
C        -0.99053981549168    0.73350883187292   -3.30847984136689
C         0.37780747479944    1.17978912587477   -3.31892765268971
C         1.22187985412942    0.01844560918398   -3.31443397540245
C         0.38177940066090   -1.14870652645475   -3.29556940962871
Cl       -2.11604955472488    0.28596266590022    5.19960239626280
Cl       -0.35165270851239   -2.14462699216571    5.17467532568323
Cl        2.45599586353394   -4.11996520426191    2.87129462231150
63
 energy: -142.117321808031 gnorm: 0.020817593562 xtb: 6.4.1 (a3dbbd7)
C        -1.31231889771387    0.00554475116035    3.58001731238938
C        -0.38019029319773   -1.27121686854198    3.58924530672321
C         0.99813004773852   -0.72744618166759    3.27854939354684
C         0.97608859349438    0.70053896122462    3.24207460802675
C        -0.37246874041246    1.14616723403593    3.28083534442017
C         2.34526492216679   -2.58140290458652    0.57141081777771
C         3.15636329225612   -1.40581010935181    0.56407042582618
C         2.90421842487976   -0.68468967849263    1.78318150875816
C         1.94294199985292   -1.40411109121590    2.56225647008203
C         1.70704878459140   -2.75687775366044    1.93215776494449
C         3.17865070204352    1.42942388068483    0.55972993755279
C         2.33405656872418    2.59770783055227    0.56310866470581
C         1.57470217046687    2.58187142616279    1.78659458149537
C         1.93684881750643    1.41080230180153    2.52459979059321
C         2.92570419035542    0.70192419859969    1.77690867885352
C        -0.36480868811595    3.45118225432198    0.57803735756044
C        -1.73779253435145    3.00328360987496    0.58290392711828
C        -1.96752659920041    2.28670420461960    1.79901633303113
C        -0.72860514396576    2.26249261033712    2.55629272458160
C         0.24966397263812    2.99038994159567    1.79516024583169
C        -3.38570143701524    0.71505573207567    0.57005330761958
C        -3.39147697214485   -0.71468414589888    0.56534057859355
C        -2.75477520907907   -1.14613431255829    1.80262301405446
C        -2.39434525848304   -0.01051615242213    2.55215535357094
C        -2.75909822138724    1.14443604769550    1.80653315046605
C        -1.72829208130073   -2.98568465829410    0.56390837176739
C        -0.35603706382394   -3.42070595231487    0.56661774916895
C         0.23791635337006   -2.95839723184242    1.80281588529573
C        -0.70388821570895   -2.26537031495779    2.52226491608671
C        -1.93916604112939   -2.27319095272091    1.78453028593455
C        -0.24702958501799   -3.00170654873801   -1.83011105762111
C         0.74326037354781   -2.27250498206801   -2.57925611041904
C         1.96882374240452   -2.26679225721792   -1.81934155307752
C         1.75184439679532   -2.98843036666672   -0.59764625373656
C         0.35969031555665   -3.44329481068209   -0.60685045730486
C         2.78831342531462   -1.14522973591494   -1.83942166081575
C         2.40933017434450    0.01911174727375   -2.59718285072832
C         2.78918825662473    1.18634598578970   -1.84399281949110
C         3.40104321620186    0.73528063248442   -0.61843377851466
C         3.39234085251911   -0.70527142157520   -0.61663423056458
C         1.96950893213575    2.30759028339114   -1.83866010554442
C         0.73990712464668    2.30457294049448   -2.59078651368104
C        -0.25123156925216    3.02187917951510   -1.83262068551912
C         0.36130495399563    3.46123214016468   -0.60338222561890
C         1.73696319193085    3.02708976012009   -0.61258032675198
C        -1.57238317879240    2.58868160429833   -1.82711142099605
C        -1.95202278705535    1.42493723766375   -2.58907591496749
C        -2.94521668402417    0.70141536257067   -1.83307682957853
C        -3.17505609105011    1.41816174617619   -0.60440286774093
C        -2.32940026677594    2.58628789418939   -0.60603929245813
C        -2.94663261671933   -0.68625576377405   -1.83734239616330
C        -1.95088920261696   -1.40650118667636   -2.59256332452825
C        -1.57375146949144   -2.57518550832532   -1.83570708020122
C        -2.33061008479417   -2.57934768392701   -0.61922653712482
C        -3.17806471148988   -1.40856748681013   -0.61150481864455
C        -0.99504967986652   -0.71004454869776   -3.31440934990853
C        -0.99567447525992    0.73123180360945   -3.31375683614943
C         0.37537139748629    1.17779819989000   -3.31774417763954
C         1.22172362233212    0.01547420637815   -3.31760553909156
C         0.37759750946385   -1.15245179968516   -3.30960821920774
Cl       -2.09927508458535    0.28478629375221    5.19494525096500
Cl       -0.37177259732159   -2.11488480786638    5.18035281058110
Cl        2.47482324302493   -4.10721779153550    2.86777806155294
63
 energy: -142.117505051671 gnorm: 0.007582979603 xtb: 6.4.1 (a3dbbd7)
C        -1.31417194359162    0.00950671737811    3.57845716783767
C        -0.37927279056834   -1.27301441396593    3.58874914344998
C         0.99856827576370   -0.72557919466767    3.27551373889142
C         0.97542502354672    0.70029078810764    3.24444811371812
C        -0.37083970051836    1.15089706029123    3.28096221498868
C         2.34614562596162   -2.58191524023725    0.56685920163871
C         3.15687571200371   -1.40852375316252    0.56443030052020
C         2.91188896783501   -0.68612092741491    1.78761543232493
C         1.95018796621829   -1.40374406070431    2.56369019259368
C         1.70774572242232   -2.75693783390048    1.93154094079347
C         3.18296225912697    1.42994016053572    0.56720142684384
C         2.33683921203096    2.59799123302620    0.57185213337085
C         1.57767860734274    2.58666275966682    1.79690436911913
C         1.94564160338848    1.41509666654201    2.53645612955569
C         2.93482622847809    0.70373311272631    1.78737758091347
C        -0.36556821059900    3.45310651385833    0.58058729976180
C        -1.73994690076396    3.00657752873350    0.58486091541576
C        -1.97289209975205    2.29304288327973    1.80405793050154
C        -0.73093603376212    2.26590099409815    2.55453812801716
C         0.25054840781274    2.99672329402454    1.79907014842929
C        -3.39298500718675    0.71729361134454    0.57131515156766
C        -3.39440210172781   -0.71605966118000    0.56656829478694
C        -2.75614439365878   -1.14575497345413    1.79783223046802
C        -2.39508861624280   -0.00734054003068    2.54865086849135
C        -2.76349324516298    1.14579656482095    1.80345842918600
C        -1.73051686359630   -2.99441143753120    0.56438051420694
C        -0.35824681188254   -3.42478598103740    0.56631113677429
C         0.23919937022171   -2.96228202700422    1.80044748203084
C        -0.70362590913678   -2.26601108929947    2.51902435404242
C        -1.94041118726529   -2.27481993748351    1.78585024715702
C        -0.24866086217846   -3.00519072515553   -1.83400417407639
C         0.74097173928850   -2.27504940645678   -2.58432766534547
C         1.96875648565000   -2.27052016316369   -1.82554479944004
C         1.74639381783538   -2.98870981136067   -0.60258112751281
C         0.36033638965773   -3.44887756840037   -0.61113754473392
C         2.79094201019944   -1.14830662114127   -1.83880392905535
C         2.40984272209740    0.01652873967195   -2.59616442019150
C         2.78951307432548    1.18254358653713   -1.83840566893745
C         3.40401165772581    0.73536689758502   -0.61402354853099
C         3.39751731490608   -0.70715659813536   -0.61591682006862
C         1.96866943864956    2.30530977497827   -1.83325622014186
C         0.73890326766105    2.30237394432520   -2.58599859529047
C        -0.25236682945162    3.02033682021632   -1.82819677741016
C         0.36239489639027    3.46294319689406   -0.60094174794722
C         1.73765625498288    3.02498609670066   -0.60671849793854
C        -1.57518037510548    2.58744504314982   -1.82560570132711
C        -1.95443976378393    1.42363694546242   -2.58850585959741
C        -2.94913685444364    0.69998948173522   -1.83377955498938
C        -3.18014778946867    1.41861173545547   -0.60586755614181
C        -2.33292822603170    2.58669526091933   -0.60434098583226
C        -2.95009543773417   -0.68877473811834   -1.83858745872699
C        -1.95459014156732   -1.40985173101588   -2.59593647223679
C        -1.57743467254220   -2.57873232939629   -1.84010145971659
C        -2.33269648482534   -2.58181973586583   -0.62010754928072
C        -3.18075457158313   -1.41090627407520   -0.61353527071484
C        -0.99770214771193   -0.71224360180658   -3.31899413326018
C        -0.99789832288158    0.72988844776679   -3.31556458221543
C         0.37392309199440    1.17626812728462   -3.31570544701509
C         1.22129074536244    0.01396755860705   -3.31762603040522
C         0.37553863620410   -1.15439553849667   -3.31573643392036
Cl       -2.12014490906187    0.34181646041069    5.17573505019799
Cl       -0.33980534536307   -2.14306173490440    5.16723943826500
Cl        2.48941211133232   -4.10089336375008    2.86402502182777
63
 energy: -142.117760248143 gnorm: 0.003175672281 xtb: 6.4.1 (a3dbbd7)
C        -1.31222130268832    0.00962960796949    3.57340454067584
C        -0.38003076756390   -1.27013890489417    3.58433578998826
C         0.99817925942469   -0.72369430650255    3.27302558761768
C         0.97627504148859    0.70074010181047    3.24268648816613
C        -0.36866056800571    1.15250046560833    3.27995587386569
C         2.34571716566244   -2.58059453276578    0.56667644052989
C         3.15589687656287   -1.40829921326700    0.56418223896422
C         2.91236337332485   -0.68591769262705    1.78768806016154
C         1.95056642387452   -1.40295279789273    2.56294530318830
C         1.70658320088268   -2.75701495329906    1.93208808857480
C         3.18312262333217    1.43005695306650    0.56673431189173
C         2.33714276739375    2.59795666430009    0.57151604431060
C         1.57840675363096    2.58687696003560    1.79692127361797
C         1.94877087239850    1.41649215478956    2.53749349431747
C         2.93644234709001    0.70433415630260    1.78779767181791
C        -0.36522292111300    3.45265988431551    0.58042769127455
C        -1.73940731746145    3.00646443523567    0.58519577196087
C        -1.97266693435905    2.29369156251459    1.80532275656666
C        -0.73068500400793    2.26679865219838    2.55421412134135
C         0.25130109643569    2.99721025543416    1.79859450982063
C        -3.39379592385034    0.71800208117478    0.57148186003718
C        -3.39470901487188   -0.71621271721910    0.56617000552249
C        -2.75616757615963   -1.14567869681307    1.79489793352777
C        -2.39527595784738   -0.00723594895428    2.54714801116650
C        -2.76360219010240    1.14549629563173    1.80244189478883
C        -1.73065322710704   -2.99576334085026    0.56386673490963
C        -0.35896685630890   -3.42498133295880    0.56676512081766
C         0.23876323730491   -2.96342673942748    1.80073110575404
C        -0.70472547780887   -2.26547845908409    2.51768306190899
C        -1.94080559890377   -2.27454166510402    1.78526209417155
C        -0.24866089443460   -3.00510188862027   -1.83352286166548
C         0.74062197342856   -2.27511847464615   -2.58404145693756
C         1.96840333640393   -2.27049030476977   -1.82526888160025
C         1.74467322104652   -2.98770354528304   -0.60200801682837
C         0.36079071262119   -3.44894911191581   -0.61082452109126
C         2.79073735762883   -1.14839003904793   -1.83777902937504
C         2.40925416783689    0.01600231448433   -2.59577664847158
C         2.78878547656294    1.18196561623895   -1.83802135753840
C         3.40366213698385    0.73576853295107   -0.61456069135543
C         3.39826436817384   -0.70701313292351   -0.61603445059862
C         1.96795664362873    2.30475599233660   -1.83313576777908
C         0.73843378289610    2.30155856082405   -2.58555637334657
C        -0.25238588470347    3.01976412805200   -1.82781441613630
C         0.36269691095166    3.46274218114838   -0.60124026579110
C         1.73755635475051    3.02437424823418   -0.60704982725003
C        -1.57504886314453    2.58709535456060   -1.82540384507409
C        -1.95395659214586    1.42352701967250   -2.58825955372866
C        -2.94910326779352    0.70021939158750   -1.83408509188775
C        -3.17995543741030    1.41857193227060   -0.60622436284399
C        -2.33258522414303    2.58636345724924   -0.60384848257879
C        -2.94996365536218   -0.68849839448186   -1.83910498373820
C        -1.95454599050271   -1.40991351465344   -2.59648140547785
C        -1.57754143416712   -2.57848362682944   -1.84066365807920
C        -2.33233061766532   -2.58087084688147   -0.62025632430448
C        -3.18060128837138   -1.41060318489954   -0.61453051366892
C        -0.99770971056567   -0.71243359295520   -3.31975366080362
C        -0.99791500708586    0.72965960886422   -3.31582882831407
C         0.37374448301461    1.17570539604862   -3.31533915635249
C         1.22111576104332    0.01357514776275   -3.31724701077837
C         0.37532552645441   -1.15481342035113   -3.31621683375062
Cl       -2.09875786436164    0.30105403424829    5.18657537295521
Cl       -0.36795996991173   -2.11312477482843    5.17801289330124
Cl        2.49314717496237   -4.09869699835774    2.86363082531961
63
 energy: -142.117786387439 gnorm: 0.001821356535 xtb: 6.4.1 (a3dbbd7)
C        -1.31287298237003    0.00878242955360    3.57523856263644
C        -0.38024874004264   -1.27063667676030    3.58544384885939
C         0.99756864167522   -0.72453570529626    3.27403619382771
C         0.97571681627767    0.69995838097044    3.24236673131782
C        -0.36936158763197    1.15105973874632    3.28011141153633
C         2.34578867198409   -2.58045551258961    0.56735163937629
C         3.15530848035720   -1.40780786214763    0.56408124790637
C         2.90987030833688   -0.68591285552710    1.78680231065088
C         1.94854682836699   -1.40327587852287    2.56280671559340
C         1.70618449267623   -2.75714857945540    1.93206852026641
C         3.18156221540221    1.42955791180530    0.56518546486726
C         2.33595290166898    2.59736584721497    0.56971435620979
C         1.57711018660396    2.58494718410200    1.79474312441710
C         1.94653933990885    1.41499732202166    2.53530576384020
C         2.93369996928565    0.70358048428006    1.78568715752315
C        -0.36511454124451    3.45181416595002    0.57992137054972
C        -1.73887407629524    3.00552349466097    0.58480369751753
C        -1.97142688771715    2.29237523841955    1.80460936050217
C        -0.73061440374736    2.26550785220342    2.55462130777398
C         0.25085351287277    2.99527487100596    1.79765435082576
C        -3.39204864719466    0.71762260821841    0.57143140141151
C        -3.39380917896007   -0.71606798750329    0.56633335280469
C        -2.75547375672415   -1.14576206016361    1.79572300208657
C        -2.39454173839799   -0.00765466894789    2.54807481636240
C        -2.76215828908160    1.14485957913285    1.80278820368049
C        -1.72985144391831   -2.99386959576871    0.56386330381130
C        -0.35853312666319   -3.42390741360576    0.56695986790355
C         0.23872945339303   -2.96262197330339    1.80114272902040
C        -0.70456083372096   -2.26511773916748    2.51846621505581
C        -1.94014189138730   -2.27393737543262    1.78549230427794
C        -0.24828113154542   -3.00412198141224   -1.83235723328804
C         0.74103074545788   -2.27441005572019   -2.58271384006615
C         1.96835975080170   -2.26959354693600   -1.82381008331423
C         1.74562103796926   -2.98774447653858   -0.60090723622593
C         0.36091954742486   -3.44757322677824   -0.60977657069110
C         2.79001133773484   -1.14767648584305   -1.83744912174212
C         2.40891262402689    0.01653845283095   -2.59569846692280
C         2.78846335001149    1.18274408030748   -1.83891019867515
C         3.40262779276104    0.73580105252028   -0.61547972071201
C         3.39726688453236   -0.70667539243383   -0.61613815318730
C         1.96794949512853    2.30523150727672   -1.83410650949264
C         0.73861847670368    2.30199900427034   -2.58645749081532
C        -0.25209402456907    3.02008858810936   -1.82866107152096
C         0.36242837256961    3.46228673173742   -0.60171845939248
C         1.73716264801284    3.02455031834018   -0.60821250221769
C        -1.57429411841051    2.58731982280479   -1.82565485045454
C        -1.95317621228050    1.42387551601956   -2.58822780632822
C        -2.94813695251313    0.70060565323095   -1.83392674723880
C        -3.17852511590030    1.41822654722261   -0.60585310825162
C        -2.33172018103159    2.58606863784020   -0.60406055235050
C        -2.94905818816066   -0.68782366755066   -1.83870458147276
C        -1.95357885237995   -1.40904640237238   -2.59557838273620
C        -1.57662823401037   -2.57739203387985   -1.83947198856011
C        -2.33146087855876   -2.57962905021855   -0.61959484400389
C        -3.17972379858618   -1.40987590210286   -0.61393469365785
C        -0.99708897058821   -0.71184474167270   -3.31868990119963
C        -0.99735503209854    0.73003984387423   -3.31537919853983
C         0.37410667805753    1.17605325086546   -3.31558883099691
C         1.22121243607697    0.01394742498550   -3.31693482471050
C         0.37572831684301   -1.15434433608925   -3.31476478237365
Cl       -2.10266232332747    0.30505260567581    5.18611835879811
Cl       -0.36338179944381   -2.11786279073767    5.17654831856458
Cl        2.49102871284575   -4.09985317790223    2.86326143705052
63
 energy: -142.117788729389 gnorm: 0.000320127983 xtb: 6.4.1 (a3dbbd7)
C        -1.31295803234980    0.00871562187782    3.57500516002719
C        -0.38033778890713   -1.27070253315442    3.58536403985610
C         0.99728974793214   -0.72441796294206    3.27390199398519
C         0.97549765702711    0.69977918328355    3.24224602777364
C        -0.36923517393797    1.15132886577011    3.28016955449727
C         2.34591299349173   -2.58025868588981    0.56711445503577
C         3.15504203833350   -1.40782467747967    0.56408474275767
C         2.90972329522662   -0.68600845369749    1.78697940836766
C         1.94847861061936   -1.40328255308274    2.56280594099663
C         1.70599275367474   -2.75727226237229    1.93212609247251
C         3.18145505246452    1.42945275587917    0.56521788867607
C         2.33581901379063    2.59719574482828    0.56975395506996
C         1.57694682482935    2.58477087791922    1.79481776204681
C         1.94683899233062    1.41504853538446    2.53559190393997
C         2.93366434669337    0.70356165821054    1.78591624558688
C        -0.36509612240179    3.45168607396352    0.57985766787789
C        -1.73881866872991    3.00550713499930    0.58477328130342
C        -1.97147059398716    2.29271865691178    1.80499223621597
C        -0.73090236968275    2.26561763401248    2.55461425508553
C         0.25088494559186    2.99535879112196    1.79755685922885
C        -3.39219901472988    0.71785685709488    0.57155924720913
C        -3.39384644114514   -0.71613921886695    0.56650955952615
C        -2.75544611405674   -1.14574923008068    1.79524663992258
C        -2.39439851592319   -0.00737150536560    2.54798969099668
C        -2.76208420418480    1.14480306423062    1.80252554143301
C        -1.72977312035520   -2.99413439082175    0.56383272939678
C        -0.35869106468623   -3.42396519999708    0.56707736312449
C         0.23885096390441   -2.96287681053609    1.80114966106973
C        -0.70461416752565   -2.26507655048360    2.51846280025975
C        -1.93999857113191   -2.27372240597535    1.78574776038733
C        -0.24830554723318   -3.00407152058409   -1.83217362985940
C         0.74093379130187   -2.27438655082976   -2.58266313763507
C         1.96835710548013   -2.26967088915566   -1.82388252734878
C         1.74527446769704   -2.98780042068468   -0.60091869363736
C         0.36109244790174   -3.44763856566724   -0.60972256491216
C         2.78999466545473   -1.14773988710591   -1.83713964827821
C         2.40879958696978    0.01643662318599   -2.59558054264431
C         2.78840306707042    1.18265643017476   -1.83874444679595
C         3.40257457096282    0.73591706558425   -0.61551362306316
C         3.39752719594957   -0.70673670334046   -0.61615217629686
C         1.96790561397122    2.30523249111403   -1.83407424727758
C         0.73861534195220    2.30196391999193   -2.58645082873755
C        -0.25206427106327    3.02010175802150   -1.82864391617094
C         0.36250035449144    3.46238389607567   -0.60180305595018
C         1.73713929610304    3.02444850574183   -0.60823294393891
C        -1.57423948536194    2.58727526077070   -1.82566425235894
C        -1.95306994988377    1.42390191528847   -2.58820482258784
C        -2.94817264076205    0.70061881185338   -1.83401886600266
C        -3.17843373340992    1.41808396779288   -0.60591625053682
C        -2.33170565754266    2.58595508536560   -0.60397078505400
C        -2.94908179121226   -0.68781982976814   -1.83877300645446
C        -1.95356983009339   -1.40909312358583   -2.59561679619325
C        -1.57664188844977   -2.57730142901747   -1.83943472555472
C        -2.33130680845822   -2.57919567379247   -0.61933210523000
C        -3.17966657016645   -1.40974895290539   -0.61398832120301
C        -0.99713104738869   -0.71186867466859   -3.31881319350457
C        -0.99737148238613    0.73004765484296   -3.31548912945574
C         0.37411339227810    1.17601963434860   -3.31555373724026
C         1.22122419961568    0.01391197928377   -3.31681141216105
C         0.37564768121067   -1.15441116476461   -3.31483616872447
Cl       -2.10281354548795    0.30518329020500    5.18581850369922
Cl       -0.36285317828369   -2.11821170248345    5.17659797463251
Cl        2.49187946386456   -4.09956522221252    2.86270730803658
63
 energy: -142.117788774946 gnorm: 0.000091079773 xtb: 6.4.1 (a3dbbd7)
C        -1.31300997443543    0.00866294358956    3.57509289682479
C        -0.38034711834722   -1.27060861515430    3.58528024903001
C         0.99730436889790   -0.72442286278222    3.27397070208769
C         0.97552470522893    0.69978127975056    3.24223952983542
C        -0.36921979427102    1.15129707071964    3.28022919847830
C         2.34595464059519   -2.58021182335195    0.56710314420906
C         3.15504806274336   -1.40779184632665    0.56407858796032
C         2.90964171006534   -0.68601177780842    1.78696360232953
C         1.94839372479443   -1.40330012437149    2.56277427131833
C         1.70596336685187   -2.75729435341888    1.93213956953127
C         3.18142005860639    1.42943307458549    0.56511049336129
C         2.33578642750210    2.59716932899698    0.56963345557507
C         1.57688648684897    2.58467938341630    1.79467111059122
C         1.94675159190042    1.41497009300407    2.53540690529304
C         2.93352640326880    0.70352293891138    1.78578473831807
C        -0.36507574817640    3.45163365146970    0.57983865909741
C        -1.73877653563029    3.00543283779396    0.58475439623255
C        -1.97138499481480    2.29266620335984    1.80501501705682
C        -0.73092720658104    2.26556437197161    2.55466972360154
C         0.25091267637126    2.99530311071725    1.79751275150630
C        -3.39211923203638    0.71782002506263    0.57157878643094
C        -3.39386103975730   -0.71618760843158    0.56651974060171
C        -2.75550389604414   -1.14583731162113    1.79527197956053
C        -2.39438334761842   -0.00739489572489    2.54808151700965
C        -2.76199883509797    1.14472721807081    1.80257080537180
C        -1.72973216563397   -2.99404221826257    0.56376557144204
C        -0.35868771208650   -3.42392851261116    0.56706078354358
C         0.23885055084071   -2.96283441999777    1.80113768185816
C        -0.70462900407556   -2.26504877712822    2.51849426892438
C        -1.93993931853149   -2.27364438416964    1.78578311179510
C        -0.24828061759314   -3.00402044447422   -1.83211408462965
C         0.74097312273740   -2.27434345804534   -2.58261393129087
C         1.96839122521214   -2.26965818792920   -1.82384847494284
C         1.74535388090267   -2.98788595060414   -0.60089058292136
C         0.36112221900026   -3.44758276821068   -0.60967928664555
C         2.78995842753733   -1.14771600076785   -1.83711383782785
C         2.40878165059740    0.01647104962761   -2.59559670216712
C         2.78842155926482    1.18271979190897   -1.83881855930097
C         3.40256874012185    0.73594424095044   -0.61558966799556
C         3.39750917927266   -0.70673868378959   -0.61619038862202
C         1.96794317686586    2.30529475101904   -1.83416344326538
C         0.73863680307275    2.30202123734625   -2.58653466655587
C        -0.25205260893086    3.02014669637418   -1.82869470531993
C         0.36249562864471    3.46239347689570   -0.60182467020246
C         1.73715388565233    3.02449738591268   -0.60831437226650
C        -1.57419422719660    2.58727490151522   -1.82565690114714
C        -1.95303868074509    1.42393002898876   -2.58819849692258
C        -2.94813683970331    0.70060952890898   -1.83401084792708
C        -3.17835022804668    1.41799683790051   -0.60587250852731
C        -2.33165940147340    2.58590427283313   -0.60394088953010
C        -2.94905699020984   -0.68781983434462   -1.83878849859951
C        -1.95351924963583   -1.40908075898010   -2.59558859213084
C        -1.57657171270330   -2.57726440774399   -1.83938003461133
C        -2.33127821422576   -2.57910619827553   -0.61927921794198
C        -3.17966137208393   -1.40972585287639   -0.61398341542819
C        -0.99710784141804   -0.71184112291299   -3.31875384376507
C        -0.99735692057376    0.73007522654192   -3.31546979339937
C         0.37412665801874    1.17605754247943   -3.31558088415740
C         1.22123548934011    0.01394655328453   -3.31679385221921
C         0.37566008715346   -1.15439116274214   -3.31474467753745
Cl       -2.10278959499156    0.30475097729673    5.18606515207824
Cl       -0.36320865993058   -2.11785390474575    5.17674343232713