62
 energy: -137.556089978354 gnorm: 0.000138272105 xtb: 6.4.1 (a3dbbd7)
C        -1.29747715530513   -0.00358708397313    3.53230193336494
C        -0.36669663735884   -1.17692772720535    3.30647268891957
C         0.98611658869359   -0.71942144246369    3.28330694071521
C         0.97960026262070    0.72264567856976    3.28099076835039
C        -0.37123191582576    1.17251295922721    3.30683324970626
C         2.33882038360045   -2.57328812620707    0.59264129170045
C         3.18759797026461   -1.40636996851949    0.58909819951971
C         2.95367791335086   -0.68643304494652    1.81392682260187
C         1.96110610153108   -1.41079682303161    2.57038429803574
C         1.59021374347384   -2.57389569655930    1.81661057724401
C         3.18505755673520    1.42510601347417    0.58653028739775
C         2.33644912706554    2.58913063056513    0.58687460501591
C         1.57734801208348    2.58231444612729    1.81098510566420
C         1.95121806868599    1.42024918709727    2.56318610836151
C         2.94731506764033    0.70135716339444    1.81219506002904
C        -0.36226808320010    3.44951357497718    0.58627311063654
C        -1.73565801094559    3.00826195133281    0.58600379578211
C        -1.97464861616072    2.29025223683860    1.80801838393953
C        -0.73499157075744    2.27433545799357    2.56634981315096
C         0.25017509664268    2.99640855247391    1.80696574411355
C        -3.40564167184365    0.73603033934169    0.57384473387111
C        -3.39666760053438   -0.70110361522043    0.57325593095576
C        -2.76878888359163   -1.13766877531225    1.81117048363406
C        -2.41612753777814   -0.00958406575001    2.54934919222163
C        -2.77765694676613    1.16157945983788    1.80185562013167
C        -1.73915939789468   -3.00401012508581    0.61019476870669
C        -0.34695532680616   -3.43952845486526    0.58915534370186
C         0.26525066282112   -2.99441885444072    1.81073595221025
C        -0.72459376613234   -2.27728923706897    2.56646061771028
C        -1.96673244636517   -2.30361133822441    1.80177823116993
C        -0.25329275036940   -3.21742293319046   -1.93533278082073
C         0.75288700836923   -2.28702855792113   -2.57888450746372
C         1.95214648699642   -2.27051948689205   -1.81125053086807
C         1.72467263296413   -2.99246890003609   -0.58379248521206
C         0.37537722060026   -3.46075249997591   -0.57887246144700
C         2.78739856638193   -1.15325132241660   -1.81510092438796
C         2.41415336464227    0.00689453245988   -2.57055140254103
C         2.79595616044599    1.17492121470662   -1.81910885844363
C         3.41056215768390    0.73107306572028   -0.59422318836961
C         3.40655383268349   -0.71203578888200   -0.59240704092175
C         1.97412082147271    2.29556913705765   -1.81698154142674
C         0.74450434367755    2.29402805947206   -2.57398698144423
C        -0.24521008497776    3.02234651996002   -1.82332865421710
C         0.36645517581066    3.45752622455678   -0.59452343309217
C         1.74064531021134    3.01411950888418   -0.59451228723163
C        -1.56831157016725    2.59331609762291   -1.82384763525694
C        -1.95104566447129    1.43058608326895   -2.58197223392922
C        -2.95248548956691    0.71417058576885   -1.82983960037164
C        -3.18636622927973    1.43397135736705   -0.60525149682068
C        -2.32928837740453    2.59467327362739   -0.60151617636925
C        -2.94767926175849   -0.67341863866361   -1.82405331304030
C        -1.94427091582493   -1.40322153865419   -2.56163426735136
C        -1.58546141018624   -2.56588342750166   -1.79972006108597
C        -2.30685729321300   -2.55933856722728   -0.60750131934907
C        -3.17282902538156   -1.39003453179608   -0.59881671996050
C        -0.99858810933762   -0.71368115565126   -3.30256817859327
C        -0.99333346877508    0.72366711882435   -3.30078978211225
C         0.37931437513050    1.16719049456032   -3.29665761885701
C         1.22321029362744    0.00174897312843   -3.28784735763559
C         0.38263437554987   -1.16530986795609   -3.28550973756222
Cl       -1.93965192231594   -0.00678291137818    5.24297582673072
Cl       -0.38957943186216   -4.77823941968688   -2.87509724986502
