62
 energy: -137.582502282538 gnorm: 0.000157622659 xtb: 6.4.1 (a3dbbd7)
C        -1.29581009432011   -0.00000000000001    3.58340174400666
C        -0.37310674707579   -1.16621533989082    3.28961257073952
C         0.98196004359773   -0.71952775153447    3.26893278471570
C         0.98196004359773    0.71952775153447    3.26893278471570
C        -0.37310674707580    1.16621533989081    3.28961257073953
C         2.33817093442705   -2.58177359685270    0.58008200806418
C         3.18695335227257   -1.41551140112090    0.57862383800608
C         2.95136679837155   -0.69331553748449    1.80335293499515
C         1.95357429543626   -1.41428791413491    2.55517989636615
C         1.58096449275327   -2.57707020738455    1.80478902462258
C         3.18695335227257    1.41551140112091    0.57862383800608
C         2.33817093442704    2.58177359685270    0.58008200806418
C         1.58096449275326    2.57707020738455    1.80478902462259
C         1.95357429543625    1.41428791413491    2.55517989636615
C         2.95136679837155    0.69331553748450    1.80335293499514
C        -0.35992304786187    3.43716376216470    0.58234293790959
C        -1.73010546679244    2.99269023727073    0.58152779150781
C        -1.97194475384804    2.27490931521741    1.80141891716023
C        -0.72936250121485    2.27497222619586    2.56935345303640
C         0.25357853098136    2.99276922710762    1.80754395391453
C        -3.36296034127033    0.71953376671244    0.58358606130660
C        -3.36296034127034   -0.71953376671246    0.58358606130660
C        -2.77549783021455   -1.16615401383818    1.80490251751909
C        -2.62586594074058   -0.00000000000000    2.76160244461000
C        -2.77549783021454    1.16615401383817    1.80490251751908
C        -1.73010546679244   -2.99269023727073    0.58152779150780
C        -0.35992304786187   -3.43716376216470    0.58234293790958
C         0.25357853098136   -2.99276922710763    1.80754395391453
C        -0.72936250121485   -2.27497222619587    2.56935345303639
C        -1.97194475384804   -2.27490931521742    1.80141891716023
C        -0.24277675504719   -3.00743718024279   -1.82730510322167
C         0.74837293735666   -2.28842186883110   -2.58335725925273
C         1.97594538366975   -2.28842325310876   -1.82466301202030
C         1.74295752587392   -3.00744493576151   -0.60003804720357
C         0.36935816099217   -3.44809772668990   -0.59764358209512
C         2.79333344709216   -1.16585863505755   -1.82683219543352
C         2.41298366356262    0.00000000000000   -2.58387935667918
C         2.79333344709216    1.16585863505756   -1.82683219543352
C         3.40995699264394    0.72110153506107   -0.60269283725569
C         3.40995699264394   -0.72110153506107   -0.60269283725569
C         1.97594538366975    2.28842325310877   -1.82466301202029
C         0.74837293735666    2.28842186883110   -2.58335725925273
C        -0.24277675504719    3.00743718024279   -1.82730510322167
C         0.36935816099216    3.44809772668990   -0.59764358209512
C         1.74295752587391    3.00744493576151   -0.60003804720357
C        -1.56449634243339    2.58177725720885   -1.83193605093290
C        -1.94277696376601    1.41551533024078   -2.59176644653705
C        -2.93284771678098    0.69331392409857   -1.83334200498222
C        -3.15906926736110    1.41426811848972   -0.60465128981851
C        -2.32126942043712    2.57705157456059   -0.60695720950568
C        -2.93284771678098   -0.69331392409858   -1.83334200498221
C        -1.94277696376601   -1.41551533024078   -2.59176644653704
C        -1.56449634243339   -2.58177725720885   -1.83193605093290
C        -2.32126942043712   -2.57705157456059   -0.60695720950568
C        -3.15906926736110   -1.41426811848973   -0.60465128981851
C        -0.98589671288991   -0.72110204465570   -3.31951857653157
C        -0.98589671288991    0.72110204465570   -3.31951857653157
C         0.38477101262157    1.16585890011020   -3.31542762083822
C         1.23199146057378    0.00000000000000   -3.31378506857732
C         0.38477101262157   -1.16585890011020   -3.31542762083822
Cl       -1.59616643338832   -0.00000000000010    5.37027201658000
Cl       -4.08941169164279    0.00000000000019    3.82988005957531
