62
 energy: -137.543519248513 gnorm: 0.000260852147 xtb: 6.4.1 (a3dbbd7)
C        -1.30184043211831    0.00931906825590    3.53799671730935
C        -0.37363893508540   -1.16336087592999    3.31037709144418
C         0.97579661660403   -0.71170682263489    3.28057643686864
C         0.97372319723130    0.73016721816597    3.28276114238317
C        -0.37268365610345    1.18522747171882    3.31532407771989
C         2.49789969621033   -2.75142149295453    0.63535806896973
C         3.19511785291518   -1.40676487641155    0.58990900531141
C         2.92936498364140   -0.69065322317874    1.78884479731728
C         1.93558753767745   -1.40902633618968    2.54736882734987
C         1.57505326886054   -2.57918531187102    1.82167534731596
C         3.17957108274518    1.43011001916048    0.58839592498671
C         2.33870878747960    2.60020694057892    0.58849335923501
C         1.57777265655866    2.59387512797808    1.81205876708302
C         1.94753134680679    1.42311791486921    2.56015862664758
C         2.93471074720540    0.70589321605874    1.80601322727641
C        -0.36118663246025    3.45401913402865    0.58617551531881
C        -1.73621155701661    3.00527428248872    0.59434947887238
C        -1.96656628439509    2.30291811238136    1.80990057432129
C        -0.73648341462899    2.28819819662473    2.56957819927362
C         0.25412522797260    3.00941297922048    1.81023734213151
C        -3.39397285852154    0.71104391297365    0.57077113773941
C        -3.40590709355990   -0.71873164566607    0.56854643993237
C        -2.77283393339420   -1.14817764655256    1.79485083734276
C        -2.41810014868947    0.01149301125360    2.55672890887698
C        -2.76628485723880    1.14480014203297    1.80867444236259
C        -1.73688892515156   -2.99626616925874    0.57599757020829
C        -0.37340487362087   -3.43398716893743    0.57424163117178
C         0.25910230668059   -2.97627514940890    1.80735428038124
C        -0.72674843865264   -2.26000089433973    2.56048727054884
C        -1.96745253334393   -2.27589281137926    1.79197032178636
C        -0.26297397126416   -3.00219807507876   -1.83241701646439
C         0.72322231169933   -2.28023666680621   -2.57445491389596
C         1.95061524181411   -2.28216836393045   -1.79469993122304
C         1.73032969565278   -3.00234587104812   -0.61232201779292
C         0.36226610506800   -3.42590300699768   -0.60011983695926
C         2.79072111710395   -1.15340606099485   -1.82429626434733
C         2.40664077243750   -0.00464245902522   -2.57048886279582
C         2.78211628404043    1.17029985413940   -1.81509170162615
C         3.39434763854370    0.72791626598062   -0.58867964950121
C         3.39524344535351   -0.71362224560832   -0.58674375985759
C         1.96897889192210    2.29063626920814   -1.81551364674682
C         0.73633485992189    2.29202871001439   -2.57569213983154
C        -0.24757584007046    3.00687974106735   -1.82405722848498
C         0.36659540175232    3.45482403941822   -0.59140228480726
C         1.73901350855062    3.01704784728216   -0.59295604499901
C        -1.57292999416926    2.57838752374170   -1.81880166402562
C        -1.95358395559434    1.41553724260526   -2.58560585751782
C        -2.95000442219139    0.69390295192518   -1.83355907836532
C        -3.17531661765718    1.41360048900982   -0.60372663465893
C        -2.32655992395180    2.57606662026791   -0.60040129303471
C        -2.95596031658800   -0.69333077753552   -1.83853160953186
C        -1.96353152018083   -1.41437181707778   -2.59667496296802
C        -1.58897662224655   -2.58104782341333   -1.83290112500927
C        -2.35099523338102   -2.58617649132303   -0.61791632499744
C        -3.18641025773946   -1.42044953977626   -0.61258192603719
C        -1.00494039480823   -0.71926055072992   -3.31945129067212
C        -0.99991580864384    0.72266041077228   -3.31414289401292
C         0.37530155770917    1.16292165672079   -3.30710779094842
C         1.21557606906280    0.00257451312793   -3.30631718307194
C         0.36836915927437   -1.16102323666565   -3.31083923304237
Cl       -1.93983472796208    0.00756320099128    5.25586297803994
Cl        3.70554063462604   -4.09474997971200    0.94265402303365
