62
 energy: -137.558949908972 gnorm: 0.000243541990 xtb: 6.4.1 (a3dbbd7)
C        -1.33102036516540    0.01458098125736    3.59052772184166
C        -0.39743030221393   -1.27039234058289    3.59053003619969
C         0.97976833616192   -0.72070081218754    3.28944360623158
C         0.96372674554808    0.70019401889721    3.25876219043310
C        -0.38267667398544    1.15452851240673    3.28943396726081
C         2.32599433507493   -2.58646945414046    0.57437518605681
C         3.16463315326959   -1.41537649279689    0.57546121679910
C         2.91433932189917   -0.69069890253028    1.79696694736628
C         1.92316321590088   -1.40120599457030    2.55404569939716
C         1.56808299340962   -2.59297570381958    1.79821259523044
C         3.18119603002592    1.41949943622145    0.57598170288993
C         2.33306159193698    2.58682669031423    0.57606494145842
C         1.57022042686250    2.57434275705140    1.79783372964788
C         1.93844603498408    1.40835779667733    2.54443590742675
C         2.93356122804327    0.69786374732395    1.79781734910475
C        -0.36819912353764    3.44711238307839    0.57546066827517
C        -1.74112761173666    3.01142011126765    0.57434929123087
C        -1.98151538175468    2.29261853250070    1.79819446056152
C        -0.73835479638664    2.26203116992942    2.55403809282611
C         0.24366997930251    2.98515865824361    1.79697799154582
C        -3.39846847387326    0.73399675692457    0.57025221706623
C        -3.38289148781128   -0.69987618235473    0.57498373937841
C        -2.75511340639000   -1.12203055225440    1.81932940943801
C        -2.40637051011058   -0.00634048364207    2.55590039893174
C        -2.77843544040371    1.16680528682200    1.79706092705429
C        -1.71101144236582   -3.00104479739874    0.57497139877736
C        -0.35211913755801   -3.45893013761525    0.57023823262529
C         0.25110264178632   -3.00298676336102    1.79705258421726
C        -0.74965310066239   -2.28661825254575    2.55589367267188
C        -1.91850144808036   -2.27352166523775    1.81931060870393
C        -0.23732331694643   -3.01451430471178   -1.83444046285839
C         0.75166545050369   -2.28970140333837   -2.59316593355832
C         1.97971328229331   -2.29108897448565   -1.83577052659365
C         1.74568475165378   -3.01987241552097   -0.61240850340093
C         0.37704119308818   -3.46596631469933   -0.61401446562049
C         2.79167141900010   -1.16711164199662   -1.83198473287593
C         2.41158126291243    0.00283368091868   -2.58662742524682
C         2.78934740137097    1.16632582324391   -1.82810829706686
C         3.40215437048035    0.72214876013966   -0.60359035152767
C         3.39922613121935   -0.72109275399247   -0.60224059148326
C         1.97117323664982    2.29239838128276   -1.82802914868593
C         0.74790766481847    2.29264157708430   -2.58659666900879
C        -0.24731989644210    3.01566779927310   -1.83196282949397
C         0.36461369610045    3.45565514891966   -0.60220387371495
C         1.73812407200148    3.01244330329973   -0.60347300013335
C        -1.56719282719422    2.59079298340415   -1.83578716783383
C        -1.94534546716235    1.42241322761401   -2.59316539487226
C        -2.94031606230046    0.70583808382123   -1.83443648801443
C        -3.17983220448918    1.42963018683034   -0.61400653897738
C        -2.33263710651784    2.59343740185308   -0.61242606105173
C        -2.93178950634882   -0.68536914938311   -1.82491488236891
C        -1.94010478433730   -1.40956480314084   -2.58109807668747
C        -1.55780575194066   -2.57649740703463   -1.82491825582418
C        -2.30166356864136   -2.57152083432980   -0.59584370057900
C        -3.15692658918276   -1.39435040679835   -0.59583699552641
C        -0.98729753896663   -0.71732917659285   -3.31348796164130
C        -0.98848461007163    0.72473456196383   -3.31588952187433
C         0.38357471781053    1.16852369179303   -3.31550126280194
C         1.22988700917528    0.00368378799981   -3.31551795676065
C         0.38382406219389   -1.16408323877849   -3.31589023127547
Cl       -2.10910658646201    0.30434161768935    5.20289463792642
Cl       -0.36231873211707   -2.09999193247048    5.20284633412734
