63
 energy: -142.085746626778 gnorm: 0.135989163541 xtb: 6.4.1 (a3dbbd7)
C        -1.30524132879597    0.00000000000538    3.57807329023422
C        -0.38198622120159   -1.16615737488772    3.28622995044209
C         0.97316446785684   -0.71953336628746    3.26852105894251
C         0.97316446785530    0.71953336630216    3.26852105894473
C        -0.38198622120459    1.16615737490379    3.28622995045274
C         2.33525790565848   -2.58178581715533    0.58265918378867
C         3.18402429064640   -1.41551052449968    0.58305164633927
C         2.94575551469093   -0.69331830539435    1.80727245276214
C         1.94633616722705   -1.41428833030776    2.55691587181014
C         1.57537284635923   -2.57710002453835    1.80571263196464
C         3.18402429064568    1.41551052450295    0.58305164633618
C         2.33525790565840    2.58178581715875    0.58265918378237
C         1.57537284635929    2.57710002454614    1.80571263195897
C         1.94633616722623    1.41428833031814    2.55691587180842
C         2.94575551468950    0.69331830540176    1.80727245276124
C        -0.36286725388684    3.43716117593932    0.57905462418204
C        -1.73307079475598    2.99275061625332    0.57524951534827
C        -1.97752320629156    2.27496221823572    1.79457083857807
C        -0.73661625909686    2.27496497778529    2.56523814188962
C         0.24797249911112    2.99276091828423    1.80557303834060
C        -3.36590164017822    0.71953732333088    0.57375248902312
C        -3.36590164017888   -0.71953732332215    0.57375248902510
C        -2.78105190250946   -1.16617827543313    1.79633080427055
C        -2.63331800734743    0.00000000000824    2.75326019131418
C        -2.78105190250706    1.16617827544612    1.79633080426590
C        -1.73307079475815   -2.99275061624643    0.57524951535621
C        -0.36286725388906   -3.43716117593443    0.57905462419038
C         0.24797249911082   -2.99276091827599    1.80557303834608
C        -0.73661625909661   -2.27496497777287    2.56523814188986
C        -1.97752320629363   -2.27496221822376    1.79457083858313
C        -0.24045690066217   -3.00743782548085   -1.83034246730529
C         0.75231661586805   -2.28840993805800   -2.58424128273324
C         1.97824017738855   -2.28845527885670   -1.82288383798471
C         1.74258918722144   -3.00745695556584   -0.59875134393160
C         0.36899288245124   -3.44813425118672   -0.59934302533638
C         2.79566620008723   -1.16591822783908   -1.82325695863853
C         2.41697359109874   -0.00000000000271   -2.58108531976838
C         2.79566620008779    1.16591822783556   -1.82325695864148
C         3.40959680691412    0.72110795434846   -0.59778286565664
C         3.40959680691433   -0.72110795434857   -0.59778286565546
C         1.97824017738961    2.28845527885345   -1.82288383799084
C         0.75231661586926    2.28840993805322   -2.58424128273948
C        -0.24045690066036    3.00743782547884   -1.83034246731341
C         0.36899288245285    3.44813425118749   -0.59934302534530
C         1.74258918722258    3.00745695556589   -0.59875134393955
C        -1.56217286029713    2.58178679356912   -1.83784975797872
C        -1.93879975252934    1.41553008402889   -2.59849355392507
C        -2.93052386427469    0.69331652856981   -1.84222173469045
C        -3.15943698990261    1.41427069975303   -0.61403881020582
C        -2.32163160591617    2.57707956787764   -0.61452432163280
C        -2.93052386427455   -0.69331652856949   -1.84222173468868
C        -1.93879975252999   -1.41553008403179   -2.59849355392122
C        -1.56217286029877   -2.58178679357009   -1.83784975797151
C        -2.32163160591823   -2.57707956787401   -0.61452432162573
C        -3.15943698990344   -1.41427069974849   -0.61403881020168
C        -0.98033776527170   -0.72109715720207   -3.32415755726590
C        -0.98033776527144    0.72109715719620   -3.32415755726739
C         0.39032106020777    1.16579648770428   -3.31706046827290
C         1.23757908177170   -0.00000000000348   -3.31355725238661
C         0.39032106020722   -1.16579648771087   -3.31706046826971
Cl       -1.60949318930206   -0.00000000015797    5.36443419001363
Cl       -4.09957109178614    0.00000000004209    3.81802953081684
Cl        3.66806733197237   -0.00000000000467   -3.88908549237801
63
 energy: -142.109747751734 gnorm: 0.057821709386 xtb: 6.4.1 (a3dbbd7)
C        -1.30622948887309    0.00000000000958    3.57957598076681
C        -0.38295619580310   -1.16601727540151    3.28789983108824
C         0.97173790506405   -0.71958681853242    3.27133272935641
C         0.97173790506246    0.71958681855070    3.27133272935961
C        -0.38295619580598    1.16601727542291    3.28789983110130
C         2.33691355702523   -2.58493600542506    0.58948063151237
C         3.18309357137250   -1.41965448719251    0.59107924440571
C         2.94480742273814   -0.69386291110051    1.81261559986657
C         1.94576033371741   -1.41505748573700    2.56169536243247
C         1.57491439496970   -2.57791170441093    1.81038203034723
C         3.18309357137141    1.41965448719646    0.59107924440223
C         2.33691355702495    2.58493600542921    0.58948063150487
C         1.57491439496963    2.57791170442026    1.81038203034041
C         1.94576033371672    1.41505748574954    2.56169536243069
C         2.94480742273626    0.69386291110921    1.81261559986570
C        -0.36349605379480    3.43647226066086    0.58058723651730
C        -1.73383685302370    2.99295855239707    0.57622084648941
C        -1.97800855990941    2.27476541509319    1.79528143604738
C        -0.73735620199821    2.27482775538293    2.56637384621170
C         0.24733736012628    2.99267621259546    1.80761304246761
C        -3.36716955181683    0.71949397018622    0.57502819596293
C        -3.36716955181740   -0.71949397017731    0.57502819596519
C        -2.78166832669052   -1.16610783060203    1.79750685201938
C        -2.63399615491243    0.00000000001011    2.75424632842183
C        -2.78166832668769    1.16610783061634    1.79750685201345
C        -1.73383685302562   -2.99295855238937    0.57622084649895
C        -0.36349605379677   -3.43647226065507    0.58058723652741
C         0.24733736012600   -2.99267621258506    1.80761304247451
C        -0.73735620199798   -2.27482775536743    2.56637384621297
C        -1.97800855991135   -2.27476541507951    1.79528143605356
C        -0.24137688755313   -3.00549473165385   -1.82932586003324
C         0.74737160204144   -2.28730645847453   -2.58129522985906
C         1.97219870013814   -2.28455705521444   -1.81049453914787
C         1.74250151604065   -3.01080479381762   -0.59260363845933
C         0.36854901083277   -3.44714815622950   -0.59723529411512
C         2.79179619678347   -1.17144270236065   -1.80827209014127
C         2.49378270068950   -0.00000000000307   -2.65913854870955
C         2.79179619678396    1.17144270235696   -1.80827209014460
C         3.39952782728499    0.72184717239652   -0.59142059512381
C         3.39952782728536   -0.72184717239641   -0.59142059512263
C         1.97219870013902    2.28455705521094   -1.81049453915503
C         0.74737160204245    2.28730645846908   -2.58129522986630
C        -0.24137688755166    3.00549473165131   -1.82932586004269
C         0.36854901083409    3.44714815623044   -0.59723529412571
C         1.74250151604154    3.01080479381782   -0.59260363846865
C        -1.56667455203073    2.58209986333218   -1.83751442594494
C        -1.94754173435492    1.41669211972207   -2.59838694303360
C        -2.93654314598360    0.69339167688513   -1.84060923595047
C        -3.16212760966273    1.41453418730252   -0.61234503400894
C        -2.32327463463572    2.57717648388415   -0.61396373246036
C        -2.93654314598301   -0.69339167688563   -1.84060923594856
C        -1.94754173435518   -1.41669211972604   -2.59838694302928
C        -1.56667455203206   -2.58209986333387   -1.83751442593665
C        -2.32327463463746   -2.57717648388064   -0.61396373245210
C        -3.16212760966336   -1.41453418729830   -0.61234503400427
C        -0.99419732629622   -0.72016289292487   -3.32557725182219
C        -0.99419732629617    0.72016289291778   -3.32557725182366
C         0.37960146543053    1.15892911922437   -3.31026371100550
C         1.22045571193421   -0.00000000000392   -3.33348479452451
C         0.37960146543018   -1.15892911923191   -3.31026371100179
Cl       -1.61051354933936   -0.00000000019910    5.36571705826209
Cl       -4.10027845383215    0.00000000005984    3.81907130613836
Cl        3.77846837174875   -0.00000000000573   -3.99312827550357
63
 energy: -142.115584467444 gnorm: 0.013018857186 xtb: 6.4.1 (a3dbbd7)
C        -1.30879808753809    0.00000000001434    3.58285462487030
C        -0.38526995933213   -1.16586401878722    3.29127304135101
C         0.96912368626436   -0.71963852195911    3.27526172431451
C         0.96912368626168    0.71963852198789    3.27526172432064
C        -0.38526995933708    1.16586401882020    3.29127304137434
C         2.33427884066503   -2.58233062880875    0.59299684171379
C         3.17817875125672   -1.41940935215078    0.59259857781360
C         2.94155765301745   -0.69392119514987    1.81478631911475
C         1.94365805421005   -1.41503769182138    2.56567956244698
C         1.57333647339429   -2.57857146049150    1.81486252907572
C         3.17817875125416    1.41940935215861    0.59259857780823
C         2.33427884066311    2.58233062881642    0.59299684170235
C         1.57333647339292    2.57857146050684    1.81486252906556
C         1.94365805420826    1.41503769184196    2.56567956244481
C         2.94155765301410    0.69392119516512    1.81478631911357
C        -0.36529112093804    3.43493286759504    0.58267345920479
C        -1.73598240807485    2.99246501625511    0.57871507597221
C        -1.97999509053894    2.27406341740490    1.79756779883554
C        -0.73938311123248    2.27439492744733    2.56876549968146
C         0.24546039457874    2.99247622901705    1.81065940876728
C        -3.37008074373191    0.71942859820652    0.57776239800446
C        -3.37008074373310   -0.71942859819458    0.57776239800824
C        -2.78416588195738   -1.16584423253960    1.80045605729640
C        -2.63645167254100    0.00000000001580    2.75719297391667
C        -2.78416588195135    1.16584423255985    1.80045605728614
C        -1.73598240807690   -2.99246501624429    0.57871507598698
C        -0.36529112093966   -3.43493286758626    0.58267345922023
C         0.24546039457974   -2.99247622900073    1.81065940877740
C        -0.73938311123142   -2.27439492742366    2.56876549968197
C        -1.97999509054216   -2.27406341738503    1.79756779884514
C        -0.24145795772108   -3.00053192633057   -1.82817016967294
C         0.74659458670970   -2.28777425429718   -2.58205072436586
C         1.97340400718170   -2.27802078296633   -1.80872028551306
C         1.73895055206487   -3.00312193817018   -0.59063502206805
C         0.36682810605367   -3.44308407291316   -0.59513771227353
C         2.79629586614425   -1.17354245030248   -1.80956290365177
C         2.56264205237727   -0.00000000000430   -2.72500659657540
C         2.79629586614434    1.17354245029803   -1.80956290365696
C         3.38806510786941    0.72183119907156   -0.59480060098334
C         3.38806510787048   -0.72183119906963   -0.59480060098149
C         1.97340400718177    2.27802078296174   -1.80872028552412
C         0.74659458671004    2.28777425428880   -2.58205072437717
C        -0.24145795772029    3.00053192632631   -1.82817016968765
C         0.36682810605398    3.44308407291472   -0.59513771228994
C         1.73895055206462    3.00312193817128   -0.59063502208242
C        -1.57025949044247    2.58162061609343   -1.83530355121711
C        -1.95089336534857    1.41597589736637   -2.59512591566658
C        -2.94184606651836    0.69354138915857   -1.83840620848741
C        -3.16586562304285    1.41446709442580   -0.60954930739724
C        -2.32540110495139    2.57660659551320   -0.61191698198487
C        -2.94184606651726   -0.69354138916113   -1.83840620848423
C        -1.95089336534841   -1.41597589737385   -2.59512591565966
C        -1.57025949044336   -2.58162061609714   -1.83530355120411
C        -2.32540110495322   -2.57660659550921   -0.61191698197205
C        -3.16586562304356   -1.41446709442108   -0.60954930738977
C        -0.99646797994696   -0.71877319311391   -3.32032154861414
C        -0.99646797994716    0.71877319310200   -3.32032154861658
C         0.38185003404147    1.15178048302177   -3.30337049887621
C         1.21588864964287   -0.00000000000594   -3.33296862618523
C         0.38185003404150   -1.15178048303362   -3.30337049887038
Cl       -1.61319826010573   -0.00000000032667    5.36873689928940
Cl       -4.10309344647921    0.00000000011731    3.82174782480087
Cl        3.85402194274325   -0.00000000000934   -4.07409316367664
63
 energy: -142.115880860225 gnorm: 0.007764070824 xtb: 6.4.1 (a3dbbd7)
C        -1.31044014065113    0.00000000001689    3.58489888444241
C        -0.38661253728121   -1.16594152856678    3.29359106500179
C         0.96784941000608   -0.71975175549852    3.27742965658736
C         0.96784941000072    0.71975175554771    3.27742965659888
C        -0.38661253729207    1.16594152861956    3.29359106504909
C         2.33239303694024   -2.57988799737708    0.59308863686064
C         3.17537653696036   -1.41748070197880    0.59121000571379
C         2.93908704336720   -0.69363453663241    1.81438056325945
C         1.94229462900847   -1.41479864559643    2.56694099080402
C         1.57221252258495   -2.57828870855744    1.81609985292039
C         3.17537653695438    1.41748070199630    0.59121000570423
C         2.33239303693390    2.57988799739312    0.59308863684105
C         1.57221252258003    2.57828870858572    1.81609985290380
C         1.94229462900338    1.41479864563396    2.56694099080082
C         2.93908704336078    0.69363453666268    1.81438056325720
C        -0.36598191688262    3.43339889484935    0.58344013279132
C        -1.73698302693078    2.99207543835141    0.58009509356519
C        -1.98121336542811    2.27378153938807    1.79904632393751
C        -0.74063845500534    2.27425936415662    2.57043757083004
C         0.24432285185019    2.99183210548928    1.81198035967552
C        -3.37165615854995    0.71948914712423    0.57909656093556
C        -3.37165615855311   -0.71948914710565    0.57909656094320
C        -2.78583259471145   -1.16585698588596    1.80212551577317
C        -2.63809634218498    0.00000000002741    2.75889403850207
C        -2.78583259469704    1.16585698591849    1.80212551575296
C        -1.73698302693344   -2.99207543833448    0.58009509359088
C        -0.36598191688348   -3.43339889483516    0.58344013281707
C         0.24432285185502   -2.99183210546229    1.81198035969073
C        -0.74063845500168   -2.27425936411817    2.57043757082558
C        -1.98121336543518   -2.27378153935602    1.79904632395436
C        -0.24140844551978   -2.99875112259260   -1.82795932728508
C         0.74731397734280   -2.28935904458678   -2.58355903567087
C         1.97651325940656   -2.27674390117575   -1.81195572004098
C         1.73758000125898   -2.99776006150079   -0.59126127797059
C         0.36622004580278   -3.43969675176665   -0.59449356147886
C         2.80326132514093   -1.17430945735503   -1.81682290246294
C         2.58066442890433   -0.00000000000663   -2.74028507312166
C         2.80326132514005    1.17430945734964   -1.81682290247256
C         3.38604265515038    0.72183762884672   -0.59842411048461
C         3.38604265515293   -0.72183762883949   -0.59842411048103
C         1.97651325940465    2.27674390116934   -1.81195572006066
C         0.74731397734147    2.28935904457220   -2.58355903569115
C        -0.24140844552065    2.99875112258469   -1.82795932731113
C         0.36622004580045    3.43969675176933   -0.59449356150729
C         1.73758000125582    2.99776006150434   -0.59126127799587
C        -1.57089181092980    2.58129654916024   -1.83397776855342
C        -1.95057138078117    1.41521433042836   -2.59327897958021
C        -2.94287882184413    0.69357332008306   -1.83733302313077
C        -3.16726294152465    1.41448038756493   -0.60831816086027
C        -2.32602116193732    2.57628861531961   -0.61072658931395
C        -2.94287882184222   -0.69357332009023   -1.83733302312439
C        -1.95057138078018   -1.41521433044355   -2.59327897956722
C        -1.57089181092961   -2.58129654916830   -1.83397776852986
C        -2.32602116193963   -2.57628861531473   -0.61072658929121
C        -3.16726294152571   -1.41448038755912   -0.60831816084620
C        -0.99443898670637   -0.71822134002535   -3.31679118531651
C        -0.99443898670706    0.71822134000280   -3.31679118532160
C         0.38588726244982    1.15028170924097   -3.30246410610812
C         1.21895427800534   -0.00000000001032   -3.32958518843325
C         0.38588726245069   -1.15028170926226   -3.30246410609757
Cl       -1.61658831316868   -0.00000000059049    5.37045333550050
Cl       -4.10455435099513    0.00000000024835    3.82400008345938
Cl        3.86359013108944   -0.00000000001676   -4.09113157908070
63
 energy: -142.115969224184 gnorm: 0.004591894589 xtb: 6.4.1 (a3dbbd7)
C        -1.31098238928924    0.00000000002563    3.58605216848104
C        -0.38701350679910   -1.16599052018544    3.29457884557356
C         0.96749836842852   -0.71988516483069    3.27845348551173
C         0.96749836841717    0.71988516492688    3.27845348553521
C        -0.38701350682319    1.16599052028530    3.29457884567410
C         2.33147900532053   -2.57891513791027    0.59312993872600
C         3.17359500383947   -1.41621147177130    0.59052815883638
C         2.93774818462582   -0.69347901240930    1.81410746859004
C         1.94177681374356   -1.41491334307419    2.56756470411162
C         1.57171979443351   -2.57836542301626    1.81677786040997
C         3.17359500382542    1.41621147181074    0.59052815881790
C         2.33147900530366    2.57891513794527    0.59312993868832
C         1.57171979441986    2.57836542307340    1.81677786037880
C         1.94177681373128    1.41491334314981    2.56756470410612
C         2.93774818461225    0.69347901247279    1.81410746858543
C        -0.36617407348196    3.43290725359941    0.58372863661555
C        -1.73728804105561    2.99208441164822    0.58059245596367
C        -1.98158093347954    2.27371772707877    1.79957714097649
C        -0.74111191388282    2.27428411879813    2.57118036563321
C         0.24383908837208    2.99156932952494    1.81254034814461
C        -3.37197592473593    0.71953622356090    0.57927566091744
C        -3.37197592474378   -0.71953622353328    0.57927566093463
C        -2.78625261892417   -1.16584984773745    1.80255499018190
C        -2.63874724758578    0.00000000005222    2.75944620664987
C        -2.78625261888843    1.16584984779255    1.80255499013596
C        -1.73728804105773   -2.99208441161968    0.58059245601478
C        -0.36617407347899   -3.43290725357381    0.58372863666475
C         0.24383908838641   -2.99156932947389    1.81254034817206
C        -0.74111191387266   -2.27428411872695    2.57118036562042
C        -1.98158093349416   -2.27371772702208    1.79957714101127
C        -0.24146349613621   -2.99862538441005   -1.82801638567303
C         0.74748045671967   -2.29111149532311   -2.58438384583919
C         1.97783547367251   -2.27635480936386   -1.81352628747919
C         1.73702624007736   -2.99503966308567   -0.59153993198951
C         0.36600296544691   -3.43797351829222   -0.59420820799757
C         2.80664788504230   -1.17459793017975   -1.82093871785782
C         2.58799677674972   -0.00000000001083   -2.74610456105793
C         2.80664788503893    1.17459793017404   -1.82093871787676
C         3.38454602148841    0.72186559900841   -0.60001853648833
C         3.38454602149414   -0.72186559898831   -0.60001853648130
C         1.97783547366504    2.27635480935463   -1.81352628751759
C         0.74748045671320    2.29111149529555   -2.58438384587868
C        -0.24146349614300    2.99862538439358   -1.82801638572368
C         0.36600296543675    3.43797351829730   -0.59420820805262
C         1.73702624006627    2.99503966309516   -0.59153993203857
C        -1.57103947285163    2.58152927921737   -1.83348532599918
C        -1.95014395704755    1.41497414202708   -2.59264321262415
C        -2.94287641697999    0.69361577312452   -1.83713792146091
C        -3.16759470550711    1.41459403336631   -0.60811646181337
C        -2.32607928996003    2.57636000094909   -0.61037360286952
C        -2.94287641697522   -0.69361577314523   -1.83713792144718
C        -1.95014395704313   -1.41497414206115   -2.59264321259786
C        -1.57103947284696   -2.58152927923683   -1.83348532595250
C        -2.32607928996109   -2.57636000094513   -0.61037360282446
C        -3.16759470550805   -1.41459403336239   -0.60811646178449
C        -0.99303451454087   -0.71790165156098   -3.31463548189723
C        -0.99303451454324    0.71790165151444   -3.31463548190781
C         0.38841543867547    1.14985136421133   -3.30178906402197
C         1.22074217741878   -0.00000000001920   -3.32562598728152
C         0.38841543867908   -1.14985136425263   -3.30178906400128
Cl       -1.61541739925770   -0.00000000122178    5.37192468854071
Cl       -4.10680290353616    0.00000000059717    3.82268985263959
Cl        3.86070283401640   -0.00000000003191   -4.09549885830849
63
 energy: -142.116003442740 gnorm: 0.002584498399 xtb: 6.4.1 (a3dbbd7)
C        -1.31083165998994    0.00000000004574    3.58528280338791
C        -0.38688613208498   -1.16620042174417    3.29469173603674
C         0.96758062135174   -0.72000587938797    3.27876490291461
C         0.96758062132528    0.72000587959402    3.27876490296811
C        -0.38688613214212    1.16620042195329    3.29469173626727
C         2.33134573375810   -2.57884333755196    0.59321097487519
C         3.17288882136027   -1.41564532165128    0.59041958559991
C         2.93732705086840   -0.69344267867649    1.81403255464906
C         1.94178365456845   -1.41515097267127    2.56782444932044
C         1.57175110389854   -2.57861786301797    1.81709347255007
C         3.17288882132502    1.41564532174556    0.59041958556098
C         2.33134573371272    2.57884333763360    0.59321097479586
C         1.57175110386104    2.57861786314347    1.81709347248593
C         1.94178365453731    1.41515097283703    2.56782444931082
C         2.93732705083673    0.69344267882053    1.81403255463920
C        -0.36601743217048    3.43310510396659    0.58364388697142
C        -1.73715660087748    2.99234518847104    0.58046676773286
C        -1.98144197167778    2.27388045342384    1.79942354372699
C        -0.74103689168952    2.27447543162348    2.57116458499616
C         0.24388590276731    2.99162664534579    1.81254844149995
C        -3.37179481419503    0.71957885048185    0.57899185727049
C        -3.37179481421569   -0.71957885044219    0.57899185731241
C        -2.78611229859108   -1.16605069172159    1.80232325643900
C        -2.63800333534550    0.00000000010800    2.75872256669923
C        -2.78611229849779    1.16605069182058    1.80232325632578
C        -1.73715660087529   -2.99234518841936    0.58046676784470
C        -0.36601743215420   -3.43310510391552    0.58364388707526
C         0.24388590280781   -2.99162664523894    1.81254844155518
C        -0.74103689166186   -2.27447543147826    2.57116458496266
C        -1.98144197171017   -2.27388045331483    1.79942354380594
C        -0.24141353095738   -2.99918008455529   -1.82823214947799
C         0.74743234008935   -2.29233880033413   -2.58466520155627
C         1.97807588494375   -2.27620640082368   -1.81377179157411
C         1.73704408997787   -2.99412668552688   -0.59158054030641
C         0.36612734932097   -3.43757365421823   -0.59422846709244
C         2.80743184860448   -1.17455913110711   -1.82226671744530
C         2.59065832524319   -0.00000000001917   -2.74830782560524
C         2.80743184859361    1.17455913110413   -1.82226671748585
C         3.38349698396159    0.72189074625013   -0.60031151570426
C         3.38349698397566   -0.72189074619567   -0.60031151568939
C         1.97807588491981    2.27620640081002   -1.81377179165607
C         0.74743234006743    2.29233880027644   -2.58466520164078
C        -0.24141353098241    2.99918008451766   -1.82823214958632
C         0.36612734928755    3.43757365422887   -0.59422846720980
C         1.73704408994388    2.99412668555195   -0.59158054041062
C        -1.57095645557290    2.58194454004745   -1.83351060262795
C        -1.94987810030343    1.41502880356641   -2.59269301514905
C        -2.94252280760200    0.69364982348885   -1.83730270273174
C        -3.16744458376056    1.41470349741714   -0.60833789558486
C        -2.32587452524146    2.57656816763241   -0.61053617398061
C        -2.94252280758941   -0.69364982354731   -1.83730270269926
C        -1.94987810028891   -1.41502880364879   -2.59269301509038
C        -1.57095645555403   -2.58194454009712   -1.83351060252628
C        -2.32587452523654   -2.57656816763586   -0.61053617388247
C        -3.16744458376036   -1.41470349742467   -0.60833789551994
C        -0.99242224871669   -0.71772257971231   -3.31369278787008
C        -0.99242224872377    0.71772257960684   -3.31369278789413
C         0.38956123692536    1.14970876045998   -3.30105107264394
C         1.22122689021185   -0.00000000003952   -3.32217527156677
C         0.38956123693702   -1.14970876054852   -3.30105107259943
Cl       -1.62201665096904   -0.00000000278334    5.36983397049385
Cl       -4.10241652443212    0.00000000153647    3.82698705443551
Cl        3.85329009501727   -0.00000000006443   -4.09474439760239
63
 energy: -142.116011841949 gnorm: 0.002187318579 xtb: 6.4.1 (a3dbbd7)
C        -1.31082443476817    0.00000000007453    3.58610758289055
C        -0.38673073360553   -1.16591581987589    3.29430663776471
C         0.96775720588610   -0.71998597548902    3.27848271519372
C         0.96775720582718    0.71998597590012    3.27848271530651
C        -0.38673073373187    1.16591582028296    3.29430663825146
C         2.33156215039788   -2.57918773733161    0.59339374428323
C         3.17300547382513   -1.41567449638131    0.59067302440859
C         2.93754364608597   -0.69347733859839    1.81412268404349
C         1.94199077076153   -1.41528278397905    2.56780924355110
C         1.57190217714696   -2.57876513998977    1.81721657090074
C         3.17300547374405    1.41567449658745    0.59067302433160
C         2.33156215028881    2.57918773750616    0.59339374412625
C         1.57190217705510    2.57876514024500    1.81721657077592
C         1.94199077068820    1.41528278431697    2.56780924353550
C         2.93754364601679    0.69347733890145    1.81412268402407
C        -0.36589353163137    3.43336808535322    0.58363570698727
C        -1.73697860400296    2.99238110561240    0.58033449890242
C        -1.98126707583553    2.27375998650397    1.79925555691965
C        -0.74093726587327    2.27434441357932    2.57101972299060
C         0.24398166502512    2.99156491247247    1.81250297090381
C        -3.37133042094929    0.71951854558824    0.57854973864133
C        -3.37133042099733   -0.71951854553941    0.57854973873555
C        -2.78569095379668   -1.16578355963357    1.80195824838068
C        -2.63869302096489    0.00000000021462    2.75896194641008
C        -2.78569095357945    1.16578355980382    1.80195824812507
C        -1.73697860398728   -2.99238110552393    0.58033449913307
C        -0.36589353158174   -3.43336808525763    0.58363570719409
C         0.24398166512460   -2.99156491226433    1.81250297100942
C        -0.74093726580736   -2.27434441330354    2.57101972291456
C        -1.98126707590325   -2.27375998630416    1.79925555708753
C        -0.24132686641193   -2.99980533768919   -1.82831488604264
C         0.74731348541885   -2.29283239544342   -2.58449492781297
C         1.97775904055829   -2.27621468509908   -1.81320246185157
C         1.73724005944885   -2.99436730063019   -0.59137362837488
C         0.36626693028471   -3.43790014116532   -0.59418556921745
C         2.80676026660894   -1.17442629210721   -1.82169193844715
C         2.59075925217898   -0.00000000003176   -2.74861944793973
C         2.80676026657980    1.17442629211687   -1.82169193852819
C         3.38310637055681    0.72192024910532   -0.59987191774042
C         3.38310637058902   -0.72192024897618   -0.59987191771097
C         1.97775904049569    2.27621468508144   -1.81320246201566
C         0.74731348536060    2.29283239532856   -2.58449492798297
C        -0.24132686648053    2.99980533760892   -1.82831488626118
C         0.36626693019703    3.43790014118550   -0.59418556945318
C         1.73724005936175    2.99436730068772   -0.59137362858291
C        -1.57082325043068    2.58226852270120   -1.83367107094431
C        -1.94979781161996    1.41523050669798   -2.59302748517446
C        -2.94218994660475    0.69366790789139   -1.83761499887528
C        -3.16709869003738    1.41470227676749   -0.60867632393208
C        -2.32562720332945    2.57666548984035   -0.61076464589788
C        -2.94218994657536   -0.69366790803322   -1.83761499880389
C        -1.94979781158218   -1.41523050688056   -2.59302748505140
C        -1.57082325037752   -2.58226852281522   -1.83367107073542
C        -2.32562720330721   -2.57666548986692   -0.61076464569599
C        -3.16709869003329   -1.41470227680891   -0.60867632379455
C        -0.99244255267601   -0.71767897745050   -3.31369337594805
C        -0.99244255269366    0.71767897722722   -3.31369337599907
C         0.38959732800756    1.14970838384512   -3.30041120002597
C         1.22082333983584   -0.00000000007718   -3.32004854832531
C         0.38959732803793   -1.14970838402446   -3.30041119993601
Cl       -1.61226304737587   -0.00000000590333    5.37244590543340
Cl       -4.10933373057176    0.00000000355997    3.81908996930062