63
 energy: -142.064044573472 gnorm: 0.136956886827 xtb: 6.4.1 (a3dbbd7)
C        -1.32333194775417    0.00617886347970    3.59125188963251
C        -0.38909456310608   -1.27772716531095    3.58793274117145
C         0.98734837171535   -0.72675165446744    3.28582848483634
C         0.97037352147027    0.69420630050098    3.25749094477592
C        -0.37633960723915    1.14742685553706    3.29074190055216
C         2.33092254703306   -2.58746567485154    0.56610397604514
C         3.16875994483946   -1.41579758165486    0.56774606192583
C         2.91978889080344   -0.69314490348597    1.79074016083681
C         1.93018806170321   -1.40549148670748    2.54814074589443
C         1.57476788296703   -2.59634073810083    1.79100274817011
C         3.18328087896891    1.41909085132624    0.57258499213333
C         2.33432229320876    2.58580968143883    0.57559918777772
C         1.57332139543398    2.57095369604789    1.79851755002390
C         1.94352282881158    1.40414426944103    2.54285112768194
C         2.93804115459266    0.69543633516321    1.79366637265872
C        -0.36752716666001    3.44413435035873    0.58029879258012
C        -1.74013210357057    3.00741588983283    0.58054459941955
C        -1.97818665379860    2.28654468588757    1.80361199533287
C        -0.73393250395930    2.25581684802015    2.55761528373596
C         0.24647420110131    2.98080949443068    1.80023381740862
C        -3.39591089216029    0.72883802558845    0.57533866561121
C        -3.37932885665645   -0.70504006359254    0.57786353554246
C        -2.74934612856665   -1.12865052488571    1.82052481704193
C        -2.40026274086307   -0.01382700939334    2.55826017594831
C        -2.77435746218519    1.16021035149421    1.80187148511327
C        -1.70577977915925   -3.00504292266898    0.57191390059864
C        -0.34657433486683   -3.46193150719564    0.56452064530943
C         0.25810980605866   -3.00738238851431    1.79111395103090
C        -0.74203335365356   -2.29289841924391    2.55243835495534
C        -1.91196172287597   -2.27950749485726    1.81757326885181
C        -0.23558165862281   -3.01371296632646   -1.83961821271520
C         0.75175047781152   -2.28700579367404   -2.59867644532734
C         1.98089777627659   -2.28868303835222   -1.84308617931945
C         1.74918768154887   -3.01946296828987   -0.62050040464920
C         0.38088379041600   -3.46658963937948   -0.62079308111870
C         2.79204993046375   -1.16413556659148   -1.83875967224219
C         2.41002754086118    0.00666527739579   -2.59106683151125
C         2.78807241943814    1.16926264052202   -1.83130610074559
C         3.40298548527550    0.72369088805355   -0.60835037131266
C         3.40110069057525   -0.71955382898331   -0.60923004493565
C         1.96912615256614    2.29475463280888   -1.82840259178522
C         0.74474441569639    2.29528025280401   -2.58515694980539
C        -0.24988429155059    3.01642431380723   -1.82795956514323
C         0.36353023978106    3.45499162487799   -0.59844520421847
C         1.73735095077191    3.01278425815446   -0.60243935985793
C        -1.56944867307335    2.59059487249377   -1.83048045584010
C        -1.94787757007795    1.42311330884846   -2.58910001301826
C        -2.94122296022124    0.70465889669871   -1.83002690890673
C        -3.17947337159538    1.42642572884929   -0.60816005298080
C        -2.33307692209202    2.59081264516620   -0.60600270171083
C        -2.93172079240255   -0.68656028280689   -1.82266620418654
C        -1.94059925011627   -1.40887980593779   -2.58138532694875
C        -1.55636984787224   -2.57670213587000   -1.82754179967090
C        -2.29848528094837   -2.57416283302738   -0.59738768824741
C        -3.15456863482430   -1.39758782868201   -0.59434922362650
C        -0.98936986995949   -0.71482485845558   -3.31408037280858
C        -0.99159024528376    0.72723605185279   -3.31429029098428
C         0.38014149579772    1.17201579903766   -3.31523274930469
C         1.22728121177112    0.00778684511203   -3.31823795360647
C         0.38205649969615   -1.16057927312445   -3.31917058806611
Cl       -2.09995733548554    0.29360223981566    5.20530702406437
Cl       -0.35034641589922   -2.11046483688082    5.19906768498811
Cl        4.41896263509004   -1.07490317246488    2.73033513129373
63
 energy: -142.087914320658 gnorm: 0.060117402896 xtb: 6.4.1 (a3dbbd7)
C        -1.32544650433105    0.00510030138120    3.59116999667103
C        -0.39670439282079   -1.28208845966702    3.58807714243380
C         0.97531106953904   -0.72984052003833    3.27406528480816
C         0.96457098247962    0.69389050574883    3.25051399902839
C        -0.37742042796182    1.14519104596086    3.28723322390229
C         2.32232933811608   -2.58224446597226    0.56109684057905
C         3.15885719741657   -1.41970539884005    0.55475594654595
C         3.00915427850939   -0.71736886123023    1.84603865912680
C         1.91372975963321   -1.41248818423230    2.54642497400566
C         1.56635478424892   -2.59181148578301    1.78805908962022
C         3.17081127759898    1.42661028854784    0.57118484155188
C         2.32994335504589    2.59971996627597    0.57287394901735
C         1.56984946042973    2.58447683556554    1.79492602025026
C         1.93846176013370    1.40927811434933    2.53164764129617
C         2.94123329122373    0.71990393615773    1.79609631267278
C        -0.36995201561056    3.44885186233984    0.57806008219188
C        -1.74162316899779    3.00887335671675    0.58035907230991
C        -1.97853034131378    2.28900038461957    1.80421517727857
C        -0.73654599483460    2.25847112647895    2.55462282659792
C         0.24379916968678    2.98847282830358    1.79793979996032
C        -3.39451057347754    0.72795138621615    0.57540702907381
C        -3.38021852531671   -0.70666517398186    0.57683794205655
C        -2.75196995361884   -1.13105139886627    1.81808246509824
C        -2.40058992439245   -0.01436560872271    2.55696161366155
C        -2.77387170431890    1.15887987165249    1.80224255968610
C        -1.71124458794229   -3.00658392198712    0.57024437925715
C        -0.35181069938769   -3.46180809368884    0.56308138119973
C         0.24864483043044   -3.00940604584240    1.79231674513202
C        -0.74783321864387   -2.29770876952105    2.55259894248018
C        -1.91823626982722   -2.28177104775020    1.81491741915704
C        -0.23925709326364   -3.01587072734957   -1.84258289035299
C         0.74867737318634   -2.28903312416013   -2.60077231125988
C         1.97846597894910   -2.29380481761310   -1.84776907126214
C         1.74519569480774   -3.02229873043762   -0.62704311566185
C         0.37661519982865   -3.46702773714053   -0.62286890283009
C         2.79031228500864   -1.16742686515913   -1.84489643898343
C         2.40795306973834    0.00581371058307   -2.59173808863447
C         2.78558981979162    1.17002190954582   -1.83157763589884
C         3.39582899932986    0.72654396107209   -0.61023242615873
C         3.38775819342249   -0.72090414614814   -0.61422454391246
C         1.96661328964233    2.29808304650114   -1.83043713342623
C         0.74377781082307    2.29709485092834   -2.58606781564133
C        -0.25143653801383    3.01850851221517   -1.82960773214816
C         0.36065976773227    3.46020003766062   -0.60124075086390
C         1.73451774881248    3.02089936984060   -0.60601895624093
C        -1.57021487289105    2.59089790408061   -1.83022124940941
C        -1.94845466382407    1.42277453862012   -2.58871860455877
C        -2.94157531118274    0.70472581488525   -1.83020971313723
C        -3.17886749384442    1.42568939230308   -0.60796119678921
C        -2.33352579321391    2.59124999667038   -0.60595711908020
C        -2.93313294775242   -0.68715144054624   -1.82390688059358
C        -1.94217128416627   -1.40901369881724   -2.58262414530352
C        -1.55922042875393   -2.57740429356570   -1.82992054006640
C        -2.30278250539477   -2.57496780677976   -0.60035465833968
C        -3.15721798335948   -1.39914827751534   -0.59704667303795
C        -0.99021589731827   -0.71486310051302   -3.31510111257767
C        -0.99199290589509    0.72747692449658   -3.31454780188906
C         0.37902735832334    1.17210984244709   -3.31599039754676
C         1.22546256128583    0.00745093797496   -3.31854387905267
C         0.38023201476294   -1.16111137079147   -3.32004262738157
Cl       -2.10017590444062    0.29464998551353    5.20631288874981
Cl       -0.34880029161672   -2.10971521612820    5.20164732966041
Cl        4.54151073323473   -1.10790534579563    2.80494150532661
63
 energy: -142.094205497129 gnorm: 0.014309597351 xtb: 6.4.1 (a3dbbd7)
C        -1.32782339579286    0.00363139552791    3.58692217648110
C        -0.39586471397121   -1.27991330358346    3.57951892613362
C         0.98000402660106   -0.73254836561235    3.27046753435443
C         0.96403706045409    0.69264294584698    3.24997499680759
C        -0.37595969274480    1.14076035121104    3.28273091256636
C         2.31776284883251   -2.56984645136417    0.56031697173999
C         3.16133472588682   -1.42219990949712    0.55465078028161
C         3.09177092439515   -0.74148028755323    1.89666304602303
C         1.91641905026640   -1.41732157045732    2.55086205877588
C         1.56265979600374   -2.57976016787084    1.78769133282586
C         3.16357682308004    1.42308171859490    0.57377793900785
C         2.32517933816913    2.60047327606589    0.57065343409721
C         1.56616765972151    2.58452079332211    1.79053590520643
C         1.93881029836163    1.40303013596930    2.52241372788553
C         2.93667636134743    0.72418244119022    1.79368225177619
C        -0.37317425616637    3.45242492083355    0.57608658969951
C        -1.74449038279149    3.01008113025160    0.57896586551368
C        -1.97923804024688    2.28937488026918    1.80316865748202
C        -0.73954137447926    2.25809181677041    2.55130502116761
C         0.24133488913966    2.98895240347709    1.79441737014085
C        -3.39568574246353    0.72787101549008    0.57337897625079
C        -3.38322817239812   -0.70746189377918    0.57424548494889
C        -2.75673287446409   -1.13315287697079    1.81435388713818
C        -2.40330071302471   -0.01480435386461    2.55375619980594
C        -2.77535174075631    1.15730413434771    1.80024414140351
C        -1.71658167206000   -3.00673337117645    0.56763615330509
C        -0.35613744707607   -3.45899584039255    0.56186270757274
C         0.24285406372256   -3.00578136817699    1.79213280091176
C        -0.75233787400179   -2.29886508865515    2.54991277470263
C        -1.92528347622893   -2.28338693006870    1.81169148648466
C        -0.24406723523597   -3.01605221048588   -1.84500009725752
C         0.74451282531089   -2.28997202674472   -2.60324716444672
C         1.97255976330969   -2.29342079023718   -1.84716730981613
C         1.74060672551748   -3.01817131736164   -0.62840116711815
C         0.37243895353395   -3.46433492385816   -0.62396315633962
C         2.78303655537971   -1.16534789936399   -1.84018100557264
C         2.40319994800541    0.00624455578551   -2.58985725495538
C         2.78180200788323    1.17001667939541   -1.82858580748078
C         3.39447176226928    0.72795204912596   -0.61020369589286
C         3.38242718904593   -0.72281364273332   -0.60924405326432
C         1.96287604912763    2.30016435653397   -1.83249005506051
C         0.74136707890823    2.29867091034876   -2.58724803941976
C        -0.25457976636215    3.02105658995604   -1.83188477451057
C         0.35725714278517    3.46461591258547   -0.60398982546708
C         1.73053951796749    3.02320563613182   -0.60800094319315
C        -1.57267328985800    2.59184077848249   -1.83128184129368
C        -1.95114201189977    1.42324974758933   -2.58972490634084
C        -2.94388253694966    0.70539741141004   -1.83187274684933
C        -3.18072191848341    1.42572030063561   -0.60959107185057
C        -2.33562289827308    2.59203531431624   -0.60716364990961
C        -2.93712921030307   -0.68705356171592   -1.82673920446285
C        -1.94617179292473   -1.40869428784263   -2.58505131614697
C        -1.56409262305945   -2.57755704066705   -1.83321756881519
C        -2.30858881703934   -2.57528917051008   -0.60412179595468
C        -3.16202321598954   -1.40002833607436   -0.60099204382070
C        -0.99299281918877   -0.71424874120390   -3.31665338163473
C        -0.99439718453735    0.72843425842753   -3.31568765352123
C         0.37594704573836    1.17282484015239   -3.31753380102987
C         1.22206220458833    0.00808189410875   -3.31885575319122
C         0.37670276504248   -1.16096180147889   -3.32177392130091
Cl       -2.10135885724238    0.29513690312621    5.20265525817032
Cl       -0.34107806078889   -2.10093791709491    5.19515127078353
Cl        4.63655664185181   -1.12762763981529    2.86462703482171
63
 energy: -142.094556793084 gnorm: 0.008921932398 xtb: 6.4.1 (a3dbbd7)
C        -1.32641140329584    0.00277503731095    3.58301900862951
C        -0.39415857071606   -1.27996867985234    3.57640574948026
C         0.98497285713401   -0.73281443193501    3.27281905901825
C         0.96457520223056    0.69274264903805    3.25219383219253
C        -0.37496022307739    1.14007946071791    3.28054620187083
C         2.31796626650236   -2.56483296197845    0.56224547775129
C         3.16989323053191   -1.42365462400174    0.56023247834069
C         3.11233629034208   -0.74808731288599    1.90925264553742
C         1.92509982140618   -1.41906392826551    2.55731491557733
C         1.56287033522428   -2.57465563389181    1.78946642357244
C         3.16480672340480    1.41986167195982    0.57578898301122
C         2.32389445311728    2.59730795628191    0.56987956766261
C         1.56511599591868    2.58095881423568    1.78858761099671
C         1.94123026660598    1.39894702206092    2.52163527944942
C         2.93617276817183    0.71984518859238    1.79357993230588
C        -0.37405050504900    3.45308806736598    0.57502276331040
C        -1.74558027915213    3.01051678262873    0.57779077625739
C        -1.97935906898653    2.28885699255652    1.80179168340286
C        -0.74036431974109    2.25755628843834    2.54943591488350
C         0.24099628367902    2.98745499867442    1.79240187487197
C        -3.39695927605537    0.72787983057109    0.57179119538495
C        -3.38581639791806   -0.70767116404223    0.57259967436174
C        -2.75914954452252   -1.13367129391759    1.81228855802134
C        -2.40341019116689   -0.01488074160689    2.55124398869050
C        -2.77594241949646    1.15659320161902    1.79847054605655
C        -1.71952120039206   -3.00637168263434    0.56652987077437
C        -0.35807030478911   -3.45605996690063    0.56144748655342
C         0.24193502319933   -3.00210337790844    1.79109692257436
C        -0.75368213873777   -2.29796928354210    2.54788284028046
C        -1.92861006594637   -2.28370040995665    1.81032156142535
C        -0.24664317562214   -3.01523067534593   -1.84535594208029
C         0.74228352937440   -2.28940056130386   -2.60322097641105
C         1.96948992153199   -2.29136365913187   -1.84473363457441
C         1.73810129372926   -3.01388520629242   -0.62604128429592
C         0.37020894031236   -3.46129095139946   -0.62355089658713
C         2.77932432265959   -1.16336411317216   -1.83482621378711
C         2.40039214876630    0.00663896681625   -2.58701820613097
C         2.78081441044858    1.17017802298054   -1.82701220530214
C         3.39676308425457    0.72856709830608   -0.61017627676165
C         3.38507459441594   -0.72339146738398   -0.60501280691369
C         1.96168456991234    2.30035889518344   -1.83324623313141
C         0.74036267600108    2.29888298338284   -2.58792395541067
C        -0.25575892290012    3.02194065902269   -1.83314250926250
C         0.35642932397230    3.46550228459275   -0.60514377556734
C         1.72936696748943    3.02251625197033   -0.60833348106484
C        -1.57387421395127    2.59232796924951   -1.83237563647693
C        -1.95284268553562    1.42364368684321   -2.59084418822435
C        -2.94564385677144    0.70574144570710   -1.83329685327581
C        -3.18218126665301    1.42590182850737   -0.61095712120612
C        -2.33676643973192    2.59241275975901   -0.60825200668615
C        -2.94005800505622   -0.68693702023089   -1.82865440110195
C        -1.94903854328099   -1.40868366568853   -2.58680090611599
C        -1.56718960396255   -2.57763587087749   -1.83473459705279
C        -2.31225624603394   -2.57566899507929   -0.60578485687252
C        -3.16552885962489   -1.40037674891583   -0.60305382616973
C        -0.99512005830317   -0.71402318173572   -3.31770545175644
C        -0.99603061802427    0.72881632553793   -3.31667731043200
C         0.37433310582593    1.17305409267730   -3.31830364819435
C         1.22021569998023    0.00841825756622   -3.31795532800429
C         0.37451462667141   -1.16054788103432   -3.32184445407699
Cl       -2.10119823084822    0.29244169713456    5.19846981725021
Cl       -0.33286088935047   -2.10188173494812    5.19171490036374
Cl        4.65351102732367   -1.12631155036066    2.87544011141655
63
 energy: -142.094672969158 gnorm: 0.004897678535 xtb: 6.4.1 (a3dbbd7)
C        -1.32542855731672    0.00238906535144    3.58125994680195
C        -0.39374712089804   -1.27954242703061    3.57370628030412
C         0.98768519969146   -0.73239944007668    3.27372346633834
C         0.96454700021348    0.69291875604540    3.25397395239661
C        -0.37446847065318    1.13992116120344    3.27986885983698
C         2.31777966928809   -2.56141995492559    0.56294095377825
C         3.17521930304177   -1.42394976671604    0.56353770592229
C         3.12202879006362   -0.75110775079945    1.91452436212188
C         1.93097375048489   -1.41961414421536    2.56109522405841
C         1.56274616628854   -2.57094071783937    1.79024211031110
C         3.16608081857687    1.41751364455158    0.57645317133738
C         2.32323931962260    2.59482134504921    0.56929265391578
C         1.56464724355291    2.57811710032661    1.78723201882447
C         1.94300446717969    1.39593013484913    2.52135172032718
C         2.93481843395178    0.71572782887560    1.79251287428699
C        -0.37393432332753    3.45304642677110    0.57484522569177
C        -1.74567562786913    3.01056609861968    0.57766847916979
C        -1.97907530302240    2.28834752527778    1.80154516697903
C        -0.74069401894546    2.25720120337003    2.54894983530247
C         0.24126801050410    2.98632299924782    1.79167602233203
C        -3.39739694804408    0.72759687997927    0.57134764143015
C        -3.38731273997251   -0.70810456689701    0.57207656595423
C        -2.76058858088795   -1.13431425856529    1.81144019685927
C        -2.40344707475526   -0.01502984229765    2.55034949871423
C        -2.77595064412310    1.15591562590164    1.79796708187464
C        -1.72114675467815   -3.00637407340793    0.56622870037972
C        -0.35897137321718   -3.45411912095196    0.56110136216492
C         0.24158664121116   -2.99939643599922    1.79008170711305
C        -0.75410796466614   -2.29712644229223    2.54635148212599
C        -1.93076548629318   -2.28419636129116    1.80972053333885
C        -0.24781689712756   -3.01490820748848   -1.84568491326076
C         0.74117684106939   -2.28915068919307   -2.60338540437742
C         1.96801965331844   -2.29016965565034   -1.84362749116215
C         1.73650726084457   -3.01093648800696   -0.62458559256963
C         0.36899171054768   -3.45935819230455   -0.62330293603103
C         2.77732037545521   -1.16228395922270   -1.83189239070670
C         2.39894854258502    0.00687250756162   -2.58539372336013
C         2.78095278770482    1.17053607421274   -1.82690588962858
C         3.39886545196555    0.72927589056209   -0.61120889304768
C         3.38663977963016   -0.72341985776609   -0.60311861543946
C         1.96156236007170    2.30050830705205   -1.83399657555451
C         0.74025934855418    2.29889252670283   -2.58833643826736
C        -0.25584335552890    3.02226646433192   -1.83361721875976
C         0.35655908627502    3.46557246086788   -0.60543467883817
C         1.72925670221478    3.02202751418755   -0.60853028534313
C        -1.57394363754117    2.59233478410077   -1.83252189906057
C        -1.95328199748946    1.42365257794345   -2.59105921217276
C        -2.94600914835017    0.70566791355335   -1.83356445211081
C        -3.18246339278613    1.42571655118418   -0.61118968864865
C        -2.33676919522701    2.59234212348983   -0.60833301072914
C        -2.94133081955219   -0.68709918925919   -1.82939272029829
C        -1.95036170930282   -1.40888727261204   -2.58764319602581
C        -1.56873113905112   -2.57800779948849   -1.83550386326595
C        -2.31422463651552   -2.57627196377871   -0.60654611466342
C        -3.16732231723221   -1.40088957457139   -0.60387923209758
C        -0.99610029292787   -0.71404505759562   -3.31824983129149
C        -0.99660908854563    0.72888112888857   -3.31711276566080
C         0.37381040436826    1.17307180963974   -3.31877515334246
C         1.21950584219938    0.00855927867648   -3.31762683009089
C         0.37347596430535   -1.16034870075165   -3.32183186424863
Cl       -2.09998825641648    0.28642626703160    5.19809743896112
Cl       -0.33465139284491   -2.09807027068161    5.19124503716174
Cl        4.65637957577350   -1.12114938266128    2.87657227228750
63
 energy: -142.094692925515 gnorm: 0.002977883517 xtb: 6.4.1 (a3dbbd7)
C        -1.32590333644532    0.00233979606576    3.58223000694832
C        -0.39386176311275   -1.28034906326456    3.57409819199940
C         0.98798725733203   -0.73233543443791    3.27382188497746
C         0.96357708549114    0.69260391139022    3.25542667677894
C        -0.37499733606261    1.13968611312268    3.28031818275507
C         2.31726796052517   -2.55981548411442    0.56290607619166
C         3.17675665837899   -1.42370082359223    0.56475530482157
C         3.12553804598144   -0.75213845505563    1.91634137597058
C         1.93292356977231   -1.41966108287913    2.56233519873207
C         1.56232153831935   -2.56898620106230    1.79037666426955
C         3.16615428521793    1.41609693457986    0.57665369241482
C         2.32275322528240    2.59350084345450    0.56929131970708
C         1.56419757895764    2.57651277871236    1.78677915980808
C         1.94310829700269    1.39396328283406    2.52132482298267
C         2.93239529407327    0.71297125657752    1.79138529023281
C        -0.37352332028368    3.45281204927648    0.57507741330653
C        -1.74540492588991    3.01058171362201    0.57786832409750
C        -1.97883842125891    2.28824950344877    1.80172959581567
C        -0.74104519762684    2.25682516641887    2.54912941218410
C         0.24143960166212    2.98571398371678    1.79180049894959
C        -3.39724589893057    0.72743534700693    0.57137026640510
C        -3.38768164017589   -0.70832294843488    0.57230866994068
C        -2.76113630759280   -1.13460950969225    1.81160394955128
C        -2.40328805307123   -0.01478620254411    2.55039010331075
C        -2.77560260652547    1.15557327412298    1.79793481155359
C        -1.72183348250681   -3.00627237870352    0.56665694253677
C        -0.35935077307740   -3.45313261753723    0.56103380585605
C         0.24135438245901   -2.99784514819561    1.78951879404419
C        -0.75384274576706   -2.29639492092869    2.54591056848558
C        -1.93180780337659   -2.28440166395295    1.81002841552949
C        -0.24812124861984   -3.01493931901246   -1.84579289096503
C         0.74086497862430   -2.28926987089534   -2.60350366235861
C         1.96764087152148   -2.28994270667534   -1.84335616078564
C         1.73577803165305   -3.00980733751789   -0.62396937556984
C         0.36844540087382   -3.45862284786132   -0.62308966967141
C         2.77664869466146   -1.16208022406635   -1.83078166641384
C         2.39868368849320    0.00685203537791   -2.58473993991896
C         2.78154975487787    1.17072883824917   -1.82720578611929
C         3.39984790418452    0.72965683051552   -0.61198631292493
C         3.38680444585819   -0.72340723737937   -0.60258426743644
C         1.96193760259086    2.30054584655710   -1.83431440350380
C         0.74065912362173    2.29881484212670   -2.58836563451219
C        -0.25541670628908    3.02228260584619   -1.83358067409550
C         0.35701020644539    3.46535532867467   -0.60523854036390
C         1.72956626515460    3.02182600015078   -0.60843684689919
C        -1.57348245613334    2.59220629442434   -1.83229244870988
C        -1.95298015584582    1.42354357441960   -2.59086283544090
C        -2.94565745034828    0.70554971942035   -1.83336388975796
C        -3.18214555154190    1.42555751509452   -0.61102361472066
C        -2.33630576530930    2.59224383071145   -0.60813188196639
C        -2.94147621636927   -0.68721124706673   -1.82934327456991
C        -1.95055484572550   -1.40902162244652   -2.58766268189151
C        -1.56916173343600   -2.57827164853639   -1.83552301812538
C        -2.31487278037492   -2.57656393933295   -0.60650726418210
C        -3.16772145120515   -1.40112699227492   -0.60382421393590
C        -0.99618650152080   -0.71413766023420   -3.31823744377025
C        -0.99644705370567    0.72881307769991   -3.31710095368053
C         0.37402481277826    1.17296372958600   -3.31883581428705
C         1.21961727167866    0.00851120348654   -3.31755811664206
C         0.37331536309047   -1.16037107714151   -3.32166219882552
Cl       -2.10746899902425    0.29801342496567    5.19434269536626
Cl       -0.32365328720796   -2.10943366408847    5.18691081006047
Cl        4.65254485324242   -1.11506291166239    2.87394522480942
63
 energy: -142.094725587755 gnorm: 0.001933440938 xtb: 6.4.1 (a3dbbd7)
C        -1.32542198273281    0.00206667947329    3.58161200171868
C        -0.39408662271003   -1.27975092758498    3.57341450616912
C         0.98762852587745   -0.73197884361943    3.27336002799018
C         0.96357957191931    0.69273450345299    3.25507476380474
C        -0.37488257088874    1.13999379046417    3.28086936437949
C         2.31693598694272   -2.56014496987662    0.56260707649088
C         3.17539033434852   -1.42335810871885    0.56396690570642
C         3.12447325868027   -0.75145704660330    1.91543133157071
C         1.93205103273240   -1.41943666521832    2.56165228403521
C         1.56205501594738   -2.56917672013344    1.79025667451694
C         3.16575678297778    1.41627497391203    0.57607419213386
C         2.32297709755527    2.59393424046382    0.56918147762908
C         1.56446727393611    2.57708977218567    1.78673913867161
C         1.94297924240670    1.39437203477795    2.52095432257508
C         2.93142514659360    0.71300085435512    1.79057626724763
C        -0.37315362529964    3.45271527970925    0.57522643471470
C        -1.74501513188939    3.01049493247225    0.57812160600010
C        -1.97863201337264    2.28839067063551    1.80211383101475
C        -0.74089135575585    2.25713692310444    2.54966777039344
C         0.24171293287326    2.98608093150242    1.79213112840482
C        -3.39700027966753    0.72750917161578    0.57157269565400
C        -3.38744919663876   -0.70825798727787    0.57241723118084
C        -2.76099919173288   -1.13462073778146    1.81160015985687
C        -2.40352388984820   -0.01477848888105    2.55064593702033
C        -2.77552292085915    1.15565519103485    1.79831592620972
C        -1.72166894611293   -3.00640421857679    0.56679169522831
C        -0.35923573969142   -3.45344942167701    0.56112053396533
C         0.24125349936741   -2.99823467038492    1.78977168262390
C        -0.75382786390753   -2.29654808643135    2.54611259783939
C        -1.93173293256104   -2.28443352972141    1.81000866737961
C        -0.24778520606407   -3.01512223713622   -1.84577591677699
C         0.74116058843033   -2.28950023367232   -2.60356354377452
C         1.96803471566110   -2.29036667269636   -1.84369057991667
C         1.73599213879253   -3.01033829963679   -0.62416385354167
C         0.36861437902834   -3.45900869336876   -0.62306168360864
C         2.77709884963994   -1.16246944650752   -1.83145435560553
C         2.39920997767365    0.00666592357087   -2.58523737945194
C         2.78200298454826    1.17067859490808   -1.82776090008636
C         3.39969517171632    0.72960457519299   -0.61238035186141
C         3.38620011380716   -0.72343345724480   -0.60322623099084
C         1.96232096867354    2.30051222738597   -1.83447488475637
C         0.74100183146852    2.29876056646054   -2.58835488028496
C        -0.25504503234644    3.02213892988975   -1.83343873126682
C         0.35734893488547    3.46519764660891   -0.60512127138787
C         1.72996663676733    3.02202606521514   -0.60861353413685
C        -1.57308451787678    2.59211077203276   -1.83205906766548
C        -1.95253813679176    1.42348993393853   -2.59065398810446
C        -2.94522105577681    0.70555670094357   -1.83314887867733
C        -3.18173937231223    1.42556303268038   -0.61080285611505
C        -2.33585523338677    2.59218203497098   -0.60790632215179
C        -2.94100382744990   -0.68716000048953   -1.82916147050849
C        -1.95007423339807   -1.40899258299736   -2.58744263703613
C        -1.56875025786594   -2.57828383594053   -1.83537513172401
C        -2.31449081505364   -2.57653751000906   -0.60641876977720
C        -3.16724769525755   -1.40106059359979   -0.60368458736077
C        -0.99577056922588   -0.71417522617072   -3.31808677570608
C        -0.99606244355469    0.72875501400039   -3.31696148118257
C         0.37442504835459    1.17286304716475   -3.31878739571774
C         1.22003171204350    0.00838069525164   -3.31780708021821
C         0.37368960832334   -1.16050975275399   -3.32162269480961
Cl       -2.10159544925405    0.28652234696942    5.19824664405778
Cl       -0.33299965829987   -2.10119464074086    5.19045709134660