62
 energy: -137.508692997719 gnorm: 0.138381724730 xtb: 6.4.1 (a3dbbd7)
C        -1.29770965891222    0.00000000000000    3.53163224767276
C        -0.37107604425475   -1.17478800586359    3.31058196643012
C         0.97979757550459   -0.72157705231961    3.28110534952822
C         0.97979757550459    0.72157705231961    3.28110534952822
C        -0.37107604425475    1.17478800586360    3.31058196643013
C         2.33544184946295   -2.58264348698296    0.58346340581249
C         3.18207169571150   -1.41543014636129    0.58234433372313
C         2.94373959867916   -0.69404060100004    1.80708186552027
C         1.95046398470883   -1.41556779135961    2.56176558167067
C         1.57767488865866   -2.57871801508103    1.80912454278211
C         3.18207169571150    1.41543014636129    0.58234433372313
C         2.33544184946295    2.58264348698296    0.58346340581249
C         1.57767488865866    2.57871801508103    1.80912454278211
C         1.95046398470883    1.41556779135961    2.56176558167066
C         2.94373959867916    0.69404060100004    1.80708186552027
C        -0.36119281684147    3.44519252612879    0.58582996047390
C        -1.73469290191499    3.00153459982720    0.58916793337350
C        -1.97220713510261    2.29308475607878    1.81059639720294
C        -0.73400332666893    2.27691900303500    2.56853480078419
C         0.25309257506893    2.99789064535074    1.80898867763471
C        -3.39649784746455    0.71758744312072    0.57410478167568
C        -3.39649784746455   -0.71758744312072    0.57410478167568
C        -2.77168037603652   -1.14964415915414    1.80664876434809
C        -2.42168465399864    0.00000000000000    2.56054627302143
C        -2.77168037603652    1.14964415915414    1.80664876434809
C        -1.73469290191499   -3.00153459982719    0.58916793337351
C        -0.36119281684148   -3.44519252612879    0.58582996047390
C         0.25309257506893   -2.99789064535073    1.80898867763471
C        -0.73400332666892   -2.27691900303499    2.56853480078419
C        -1.97220713510261   -2.29308475607878    1.81059639720295
C        -0.24585893810850   -3.00970705822685   -1.82232538763502
C         0.74439012833927   -2.28841876480361   -2.57822875384061
C         1.97268106729833   -2.28861170675520   -1.82114897801170
C         1.74031203428013   -3.00832022201671   -0.59623578829480
C         0.36724813466371   -3.45114129717027   -0.59443426078026
C         2.79027372790168   -1.16551010025889   -1.82330670861298
C         2.41077011246349    0.00000000000000   -2.58030971859023
C         2.79027372790168    1.16551010025889   -1.82330670861298
C         3.40598095600767    0.72109250237888   -0.59875668403540
C         3.40598095600767   -0.72109250237888   -0.59875668403540
C         1.97268106729833    2.28861170675520   -1.82114897801170
C         0.74439012833927    2.28841876480360   -2.57822875384062
C        -0.24585893810850    3.00970705822685   -1.82232538763502
C         0.36724813466371    3.45114129717027   -0.59443426078026
C         1.74031203428013    3.00832022201671   -0.59623578829480
C        -1.56847069976934    2.58049680433801   -1.82122736601016
C        -1.94730857051169    1.41533687195356   -2.58360676406823
C        -2.94243160962768    0.69434475341889   -1.82977489504240
C        -3.17479380115303    1.41444285760430   -0.60326970185865
C        -2.32688654321742    2.58113588269429   -0.60086409487791
C        -2.94243160962768   -0.69434475341889   -1.82977489504240
C        -1.94730857051169   -1.41533687195356   -2.58360676406823
C        -1.56847069976934   -2.58049680433801   -1.82122736601016
C        -2.32688654321742   -2.58113588269429   -0.60086409487790
C        -3.17479380115303   -1.41444285760429   -0.60326970185865
C        -0.99138524268633   -0.72097607833148   -3.31029871234527
C        -0.99138524268633    0.72097607833148   -3.31029871234528
C         0.38054100031802    1.16548515734434   -3.30884687187952
C         1.22668597234242    0.00000000000000   -3.30783368151334
C         0.38054100031802   -1.16548515734434   -3.30884687187952
Cl       -1.93737486741132   -0.00000000000005    5.25509316806359
Cl        4.80668239742458   -2.14625847132928    0.90270354976633
62
 energy: -137.532106774659 gnorm: 0.060435809383 xtb: 6.4.1 (a3dbbd7)
C        -1.30223924509517    0.00114209688282    3.53223585357191
C        -0.37522720940517   -1.17364062109876    3.31100794418271
C         0.97212118098343   -0.71731659237359    3.28455963215892
C         0.97299936683932    0.72489694126917    3.28461186178597
C        -0.37715221798643    1.17665124321814    3.31235476241006
C         2.31795652233049   -2.58608850378063    0.58290298767176
C         3.27433175821307   -1.45923559239224    0.60199759037261
C         2.92998623305983   -0.68778164213301    1.81564226568913
C         1.94143153084523   -1.40958271507028    2.55658051897135
C         1.56669336904620   -2.57478008263230    1.80213656088250
C         3.17885285490272    1.41587125282738    0.57995895174882
C         2.33231175096157    2.58054759891884    0.58254334983392
C         1.57414856421522    2.57828295676254    1.80896242537188
C         1.94462359616535    1.42001256679616    2.56563484251476
C         2.92871332614670    0.69533930535171    1.80469729078148
C        -0.36251943981630    3.44785590361089    0.58719763941684
C        -1.73557810247237    3.00252523167966    0.59080363507820
C        -1.97741405692733    2.29740565962621    1.81342623932910
C        -0.73906660239144    2.27796654943663    2.56806438302636
C         0.24935013894831    2.99865781690934    1.80815485029584
C        -3.39674056462985    0.71925045702256    0.57478285388599
C        -3.39685269821245   -0.71645228851898    0.57489320917689
C        -2.77382782380085   -1.14756561204408    1.80880798205321
C        -2.42621490208750    0.00191333627656    2.56137740783072
C        -2.77449624154169    1.15243340710850    1.80776779278784
C        -1.73773604778337   -3.00131583674026    0.59090732799988
C        -0.36732517385551   -3.44970124124221    0.58818881393984
C         0.24390352966580   -3.00323660335588    1.80820649385205
C        -0.74073035160001   -2.27858704489837    2.56956946824610
C        -1.97680757361824   -2.29351000413736    1.81486213913966
C        -0.24730001375366   -3.01194455071703   -1.82177486322848
C         0.74453817100488   -2.28819775909455   -2.57760586727801
C         1.97029399287041   -2.28783362061671   -1.82644361190250
C         1.72765346596173   -3.00206827636019   -0.59500990094669
C         0.36097910729913   -3.45516602155879   -0.59561382226295
C         2.78217785793590   -1.15590607066761   -1.82765731131550
C         2.40732235403738    0.00771100032086   -2.59102764684662
C         2.78859047376625    1.17285337978391   -1.83486020400182
C         3.39965214362927    0.72127682602810   -0.60800422632696
C         3.41148318086851   -0.70993337178066   -0.62182658033556
C         1.97127702903643    2.29245697201310   -1.82731284502145
C         0.74265951446343    2.29106738758555   -2.58195805721917
C        -0.24618650808830    3.01088085702536   -1.82223532849833
C         0.36743937504346    3.45276940689128   -0.59453847234323
C         1.73788094960014    3.01037359437018   -0.59786454568018
C        -1.56797176320911    2.58104054691378   -1.82058481610459
C        -1.94774676649462    1.41602416839242   -2.58321368473490
C        -2.94283691378987    0.69521562779653   -1.82936524919884
C        -3.17452153503144    1.41568662019386   -0.60314166072053
C        -2.32628129195032    2.58151353759912   -0.59955268651192
C        -2.94297190857299   -0.69350356853570   -1.82888864347324
C        -1.94784033446006   -1.41520457050769   -2.58145934095903
C        -1.56940752278478   -2.58121420713810   -1.81949040325225
C        -2.32726783462625   -2.58121972795290   -0.59938938490224
C        -3.17484410754166   -1.41277567759570   -0.60167724645881
C        -0.99208488634816   -0.72042070222347   -3.31007465460950
C        -0.99310220544969    0.72201846215465   -3.31124756794782
C         0.37761251026256    1.16879233680510   -3.31289771914896
C         1.22354367620111    0.00395633818821   -3.31450442439355
C         0.37859399607580   -1.16382315654987   -3.30981105296212
Cl       -1.93739194250841   -0.00477594926246    5.25655385886181
Cl        4.93637829385294   -2.19786624610903    0.93549951147241
62
 energy: -137.538215658868 gnorm: 0.014106937472 xtb: 6.4.1 (a3dbbd7)
C        -1.30655441898437    0.00349147111597    3.53068032867076
C        -0.37798982055284   -1.17157974778802    3.30933427371221
C         0.96599678702300   -0.71337662117116    3.27929444102872
C         0.96746293468039    0.72672546353434    3.28262976607917
C        -0.38193026917228    1.17992379939123    3.31307380295443
C         2.32010028209562   -2.59089692794739    0.58163794275819
C         3.36082972665493   -1.50102626818532    0.62053659407552
C         2.92807800083174   -0.68801500695752    1.81694182388191
C         1.93781217566556   -1.40153047801855    2.54254616013237
C         1.56374512222834   -2.56822725739189    1.78861586812501
C         3.17607855261224    1.41397528521472    0.58106219940807
C         2.32793215200530    2.57590983363128    0.58135136850248
C         1.57006530432294    2.57666344037670    1.80782075551605
C         1.94005145877159    1.41873412243894    2.56239588868128
C         2.92692470604649    0.69121638970218    1.80468553524595
C        -0.36560025023659    3.45136936321343    0.58821653787746
C        -1.73840484379380    3.00570450352884    0.59128705900130
C        -1.98257598318755    2.30200256397464    1.81499057039998
C        -0.74398766887544    2.28088821203949    2.56818375752799
C         0.24525167063788    3.00053932863207    1.80714257331335
C        -3.39915717136012    0.72217087797008    0.57525005705175
C        -3.40126977773842   -0.71424813633909    0.57602580740309
C        -2.77857388398550   -1.14457891084007    1.81078399665209
C        -2.43230041566660    0.00465712295039    2.56135906149151
C        -2.77912968231610    1.15650461191838    1.80800275542593
C        -1.74074081875204   -3.00037024031082    0.59129909085137
C        -0.37059384721145   -3.44680334086172    0.58907193861450
C         0.24046296092609   -3.00214232113946    1.80422282553282
C        -0.74538487509538   -2.27860011451486    2.56923296666199
C        -1.97977117858341   -2.29093390108003    1.81782350618514
C        -0.24809227326832   -3.00982137883307   -1.82018169307073
C         0.74644526504898   -2.28633641492282   -2.57587639106871
C         1.97254466806532   -2.29066732715822   -1.83156823161741
C         1.72867373564682   -2.99819726257581   -0.59237572959048
C         0.36050882992669   -3.44798099166737   -0.59536642995768
C         2.77840358593524   -1.15263630026697   -1.82061336319972
C         2.40102124273980    0.00895295641926   -2.59106112467793
C         2.78161572272043    1.17298314840413   -1.83665747614494
C         3.38615229756378    0.71081000500597   -0.60719979580565
C         3.41222877341847   -0.70771520740894   -0.62750595250093
C         1.96650820461018    2.29182914134867   -1.82976220867160
C         0.73946238844224    2.29336098965707   -2.58595308251654
C        -0.24863356465057    3.01202189731582   -1.82282902533384
C         0.36583949571904    3.45375107569185   -0.59468509221547
C         1.73330241599535    3.01165747410837   -0.59832859968708
C        -1.56963040666298    2.58255863092678   -1.82095811833005
C        -1.95035996092131    1.41774421525373   -2.58358182898453
C        -2.94518582544128    0.69755572377877   -1.82899902766989
C        -3.17612935365946    1.41805298577653   -0.60308139158039
C        -2.32761766259414    2.58320515448111   -0.59875156382275
C        -2.94476182187891   -0.69112656300543   -1.82746439798157
C        -1.95049038286202   -1.41374620506169   -2.57958219507430
C        -1.57088440149793   -2.57947985486701   -1.81779125096014
C        -2.32879210558440   -2.57984062448987   -0.59805969667935
C        -3.17700633215508   -1.40944701533056   -0.59974877251724
C        -0.99431719636368   -0.71940718494014   -3.30915624662723
C        -0.99673228635529    0.72365959465357   -3.31262531071790
C         0.37355421232978    1.17113229322626   -3.31706617672122
C         1.21924173149042    0.00526639127524   -3.31661948994686
C         0.37517776099937   -1.16282580150355   -3.31074301698902
Cl       -1.94022365465915   -0.01395777676353    5.25400222540615
Cl        5.03916599731195   -2.23576135694420    0.96054982824743
62
 energy: -137.538526187574 gnorm: 0.008575244080 xtb: 6.4.1 (a3dbbd7)
C        -1.30816536721498    0.00437262917331    3.53019264446933
C        -0.37794984816844   -1.16955024137189    3.30620358084300
C         0.96511278265805   -0.71226886787893    3.27488180380691
C         0.96556661663436    0.72703083032281    3.27978858627497
C        -0.38397521714892    1.18149244395199    3.31339043803478
C         2.32892646158041   -2.59573953484698    0.58217381738662
C         3.37922990053761   -1.51086875750058    0.62625946201743
C         2.93607527855857   -0.69094365914967    1.81858531324274
C         1.93991875908366   -1.39951950948108    2.53829460832302
C         1.56604284539521   -2.56706585918056    1.78484076657054
C         3.17902210186296    1.41447326235952    0.58195466976146
C         2.32677768942241    2.57378287857855    0.58033987993834
C         1.56811522084681    2.57489349661621    1.80591417705175
C         1.93826461941165    1.41629622685652    2.55837588306864
C         2.93073279833634    0.68937456183126    1.80454576296167
C        -0.36748045421874    3.45262556907845    0.58838083315621
C        -1.74059059393798    3.00755372041600    0.59125069817345
C        -1.98537616264531    2.30395109582988    1.81534583119132
C        -0.74633997386714    2.28220941291265    2.56834227633818
C         0.24341213007135    3.00077717050848    1.80639737717907
C        -3.40193578753178    0.72398894747753    0.57554426459928
C        -3.40358831955511   -0.71276111390156    0.57642649916999
C        -2.78062877752310   -1.14308374971280    1.81137496953679
C        -2.43460567848089    0.00617642612200    2.56113476781914
C        -2.78225139954437    1.15871171468739    1.80813173504854
C        -1.74130463006256   -2.99922443609724    0.59098924751032
C        -0.37048803192603   -3.44402028859254    0.58887445695961
C         0.24171174172784   -2.99953685398053    1.80244451272954
C        -0.74573550819789   -2.27712092572558    2.56748926797934
C        -1.98001464723015   -2.28893568411992    1.81813043347407
C        -0.24786282444980   -3.00724087695244   -1.81875572978721
C         0.74712048029523   -2.28576054808850   -2.57588379351672
C         1.97442660971736   -2.29378348112948   -1.83436812541014
C         1.73331924939075   -2.99952973402783   -0.59187294453700
C         0.36213654163681   -3.44330311059512   -0.59455877111272
C         2.77939792493196   -1.15499476483599   -1.81749921474951
C         2.39842207529566    0.00700827682905   -2.58805494400654
C         2.77838680941504    1.17012855575590   -1.83335605413422
C         3.38683276909622    0.70615562101425   -0.60449515142957
C         3.41053249947019   -0.71002288453814   -0.62426489315919
C         1.96435202452392    2.28967917093841   -1.82884476360911
C         0.73831195179442    2.29352042380847   -2.58639616051449
C        -0.24996725607185    3.01242106216578   -1.82302953391481
C         0.36474019712447    3.45367027038536   -0.59452379731000
C         1.73142884193572    3.01145262581435   -0.59807206932644
C        -1.57091685024324    2.58343663975421   -1.82120653361739
C        -1.95180334953246    1.41857119377781   -2.58374033150271
C        -2.94682706816911    0.69888117873316   -1.82884596825564
C        -3.17816238833988    1.41950826235574   -0.60306843069751
C        -2.32922420061349    2.58430501840387   -0.59862752194038
C        -2.94606239110452   -0.68982701638330   -1.82693881795329
C        -1.95200891292708   -1.41280479542631   -2.57903111465752
C        -1.57125425681477   -2.57770757553327   -1.81688224671172
C        -2.32935189386307   -2.57824965727917   -0.59752494154187
C        -3.17827494716527   -1.40753323813737   -0.59907569453280
C        -0.99558882568204   -0.71904659695000   -3.30869076911819
C        -0.99825086242939    0.72420282131859   -3.31282642264642
C         0.37222699223860    1.17128208274845   -3.31764674585790
C         1.21777773321245    0.00489847589070   -3.31590227862487
C         0.37361860302140   -1.16282597997079   -3.31095739851502
Cl       -1.94325584008914   -0.02086548112100    5.25223985817026
Cl        5.05511804392062   -2.23895531523734    0.96256136565939
62
 energy: -137.538636777211 gnorm: 0.004591488820 xtb: 6.4.1 (a3dbbd7)
C        -1.30866223882560    0.00495534460630    3.53036349409020
C        -0.37769631245680   -1.16827407647930    3.30428357760552
C         0.96439378596894   -0.71156267495462    3.27201049200269
C         0.96474765804174    0.72746450049133    3.27847338358085
C        -0.38497205440089    1.18271388189154    3.31421590387743
C         2.33444206745623   -2.59832188535619    0.58217493618696
C         3.38758515830109   -1.51550049304048    0.62925841755304
C         2.94109809374123   -0.69266917236247    1.81912805238216
C         1.94077839217285   -1.39786781393282    2.53533982915667
C         1.56680170110532   -2.56600259842492    1.78229868483225
C         3.18112573568878    1.41573911454555    0.58294471146086
C         2.32655560879056    2.57334382261971    0.57995903821103
C         1.56721114707967    2.57380244962791    1.80475917076537
C         1.93723278445867    1.41477603447427    2.55610897702162
C         2.93300440660149    0.68881602528162    1.80434312715683
C        -0.36817176686723    3.45335020598335    0.58863242372895
C        -1.74151831821111    3.00860100818186    0.59125249666507
C        -1.98665885332878    2.30493542934299    1.81556217933497
C        -0.74729025975978    2.28284252509250    2.56854434209828
C         0.24269090104533    3.00098606493757    1.80611288465022
C        -3.40322857444221    0.72487902305119    0.57575229160020
C        -3.40475643334767   -0.71210629903550    0.57669404520761
C        -2.78163964202780   -1.14235815410782    1.81196643970410
C        -2.43525283242013    0.00687503905573    2.56086323759105
C        -2.78366806406386    1.15996056056495    1.80810140606298
C        -1.74163616737400   -2.99878475990920    0.59078525639448
C        -0.37054601835056   -3.44272261508815    0.58872829172032
C         0.24238034289027   -2.99758339876558    1.80144400683135
C        -0.74611268875618   -2.27640282417562    2.56665444294243
C        -1.97991854462116   -2.28796170903561    1.81850685098376
C        -0.24760195320218   -3.00574129666033   -1.81772899373661
C         0.74746518523272   -2.28601106465758   -2.57646282153080
C         1.97528599893721   -2.29623941031971   -1.83676649978045
C         1.73581464821990   -3.00031630959960   -0.59181386238767
C         0.36308073140702   -3.44058810232833   -0.59385909483959
C         2.77971522372701   -1.15686583358394   -1.81538662921695
C         2.39662497523570    0.00575577378109   -2.58568879782407
C         2.77622261285125    1.16828966939026   -1.83096170558848
C         3.38719623697070    0.70324827760841   -0.60219164716638
C         3.40757203195369   -0.71155459540597   -0.62114744254176
C         1.96358969953195    2.28848315665375   -1.82826872496180
C         0.73816242042627    2.29323702775687   -2.58632853247633
C        -0.25022374739130    3.01246899361954   -1.82299705703110
C         0.36455478754003    3.45358500250836   -0.59423052874257
C         1.73075477210354    3.01170615684992   -0.59765103659700
C        -1.57107029857802    2.58366581764058   -1.82133976487367
C        -1.95209822693173    1.41874986217351   -2.58385270361408
C        -2.94732264832212    0.69938792451475   -1.82879655262551
C        -3.17878116060230    1.42006526059464   -0.60308543080746
C        -2.32962143125221    2.58463705591152   -0.59848988020189
C        -2.94660069423493   -0.68935651615003   -1.82664952082983
C        -1.95268847237085   -1.41259508225795   -2.57880089517521
C        -1.57137726323317   -2.57696639138367   -1.81638929764671
C        -2.32941473704490   -2.57738366402764   -0.59715139539028
C        -3.17893740115120   -1.40651109620406   -0.59868103304266
C        -0.99610444817434   -0.71923021844437   -3.30852298738136
C        -0.99868869327745    0.72416181336557   -3.31299398671025
C         0.37190663058095    1.17097510166829   -3.31771699215097
C         1.21721698925181    0.00440728165817   -3.31556055356040
C         0.37282897293254   -1.16326304850708   -3.31128165111316
Cl       -1.94510020162280   -0.02614884281297    5.25088139044628
Cl        5.05713647479835   -2.23623372976136    0.96051086345424
62
 energy: -137.538672918664 gnorm: 0.002446111921 xtb: 6.4.1 (a3dbbd7)
C        -1.30862778085777    0.00507436346414    3.53083287577674
C        -0.37747696578301   -1.16796289435674    3.30394248134365
C         0.96405374886571   -0.71140823747893    3.27146105177894
C         0.96477199015374    0.72773419435893    3.27859900743375
C        -0.38509728054349    1.18305590208406    3.31481951457358
C         2.33524090702829   -2.59842479516429    0.58188617531956
C         3.38936828442758   -1.51638594077650    0.62981835627611
C         2.94157275687522   -0.69289361288268    1.81876495397172
C         1.94052015073461   -1.39713494207231    2.53428388068226
C         1.56636418773988   -2.56546477486669    1.78144199902902
C         3.18162658046241    1.41645213560476    0.58351243321340
C         2.32684642146127    2.57374385156476    0.58014074728164
C         1.56728545917540    2.57365193761524    1.80468978001588
C         1.93705783820027    1.41447163607002    2.55591874630772
C         2.93317500117586    0.68898665582853    1.80423001332986
C        -0.36794299677072    3.45349260159763    0.58881999965996
C        -1.74136310571799    3.00875159141871    0.59127488898077
C        -1.98662985897206    2.30502350080467    1.81561562522569
C        -0.74716043836826    2.28275308065383    2.56858454629084
C         0.24281847986518    3.00111009783094    1.80619723210826
C        -3.40316996457147    0.72493635071082    0.57579210103675
C        -3.40478730552872   -0.71211907360875    0.57675879076252
C        -2.78169551748300   -1.14228837380836    1.81229600361841
C        -2.43502821758029    0.00686479351667    2.56071501223963
C        -2.78357216149388    1.16016778597962    1.80795247313281
C        -1.74169942750211   -2.99893066739700    0.59077465149184
C        -0.37068453597620   -3.44281740578697    0.58873111621636
C         0.24239826248531   -2.99715088265225    1.80135408190993
C        -0.74639953408254   -2.27646309629225    2.56666849781161
C        -1.97977220043957   -2.28797546949079    1.81885359954554
C        -0.24745953757921   -3.00568249102882   -1.81746103843028
C         0.74756322198978   -2.28654165180663   -2.57691756788042
C         1.97530354748126   -2.29709391091055   -1.83771893118734
C         1.73593527732558   -3.00029634505850   -0.59184550057609
C         0.36322895883218   -3.44015436865153   -0.59360116011567
C         2.77935401468705   -1.15734223576834   -1.81469386129578
C         2.39616309231771    0.00552103271384   -2.58503821715888
C         2.77565676895132    1.16787470763596   -1.83043427461439
C         3.38675948443126    0.70237801458002   -0.60133543270912
C         3.40534596161918   -0.71177782447471   -0.61986329342047
C         1.96384324977663    2.28830597273787   -1.82824990912674
C         0.73852940710180    2.29294849799560   -2.58617290952525
C        -0.24986335265555    3.01229571806418   -1.82286696948281
C         0.36493291177221    3.45352930644818   -0.59404701861898
C         1.73094148997377    3.01199654849398   -0.59733788704179
C        -1.57062848992826    2.58350236452515   -1.82133482988684
C        -1.95175405389583    1.41861484058420   -2.58385587643971
C        -2.94706386061741    0.69933685246488   -1.82880348931632
C        -3.17844583594967    1.41998988718797   -0.60311337056873
C        -2.32923365095789    2.58445969419952   -0.59837858267981
C        -2.94648963569048   -0.68942566963119   -1.82657784655008
C        -1.95259585448369   -1.41277245705591   -2.57874377514591
C        -1.57131625297978   -2.57711755297744   -1.81632433556558
C        -2.32917242086965   -2.57731972991116   -0.59699470898795
C        -3.17890394428160   -1.40633011497788   -0.59857575958886
C        -0.99598234186229   -0.71950796390143   -3.30851983429728
C        -0.99844577721871    0.72395288532801   -3.31301766249775
C         0.37216526898819    1.17067954770582   -3.31761142507543
C         1.21733956666527    0.00412970384566   -3.31567127691553
C         0.37277831385104   -1.16367254440248   -3.31145522124610
Cl       -1.94564512992981   -0.02762906895862    5.25031844190678
Cl        5.05298285455552   -2.23196042879377    0.95737151342915
62
 energy: -137.538684813239 gnorm: 0.001315703365 xtb: 6.4.1 (a3dbbd7)
C        -1.30854444512819    0.00498044183132    3.53117848090518
C        -0.37739792184233   -1.16812792029274    3.30429084052445
C         0.96397630053135   -0.71153273959476    3.27194691912872
C         0.96498428117967    0.72779161503542    3.27905059240293
C        -0.38494929027478    1.18293954758009    3.31500708963042
C         2.33418866425250   -2.59786486046533    0.58173251709715
C         3.38914002871821   -1.51608161251713    0.62951965792611
C         2.94032221103055   -0.69259177898517    1.81840217480151
C         1.94011098614312   -1.39714161315539    2.53440572581051
C         1.56585846269882   -2.56547333594192    1.78159762596871
C         3.18140253436322    1.41648180706888    0.58370698145614
C         2.32713263904698    2.57408982499895    0.58043934822098
C         1.56762613964412    2.57389783972072    1.80504216142839
C         1.93722509783749    1.41468672188218    2.55647231374848
C         2.93266513664613    0.68921350354460    1.80428932030553
C        -0.36756604718870    3.45339342620656    0.58888683585586
C        -1.74097340752858    3.00856563585296    0.59128059734680
C        -1.98625515957468    2.30482685026131    1.81559362713752
C        -0.74681614535004    2.28249722574450    2.56853774538057
C         0.24310324592610    3.00113414959301    1.80632511472867
C        -3.40275628808901    0.72475939237348    0.57574654703510
C        -3.40446599480021   -0.71227984404450    0.57671869776882
C        -2.78144293173049   -1.14239464520015    1.81237395174199
C        -2.43474617567479    0.00666803691868    2.56066124058113
C        -2.78309809304057    1.15998514831174    1.80783506930992
C        -1.74163922912886   -2.99915293454205    0.59083661003924
C        -0.37077114020129   -3.44327436471029    0.58879185361942
C         0.24222084348929   -2.99750188936531    1.80159898287021
C        -0.74654620841384   -2.27674477054043    2.56692122680660
C        -1.97970709291860   -2.28825713828537    1.81904556070253
C        -0.24743011755927   -3.00616370237541   -1.81757892527821
C         0.74756588379293   -2.28689787339562   -2.57703670744450
C         1.97513032305526   -2.29704326773572   -1.83767184107669
C         1.73533787781580   -3.00013590345344   -0.59181217831966
C         0.36307468863770   -3.44065094223631   -0.59362844951417
C         2.77893178348904   -1.15712811854190   -1.81479776667752
C         2.39641722972733    0.00568913395842   -2.58532345513149
C         2.77592392366211    1.16807851035234   -1.83079891871164
C         3.38624037808409    0.70252420540284   -0.60138658442090
C         3.40437096734471   -0.71144197439472   -0.61981301030964
C         1.96426404973878    2.28847254587852   -1.82839912230223
C         0.73885949274898    2.29282666112800   -2.58610755906848
C        -0.24950719113359    3.01213857147972   -1.82278368901596
C         0.36529601488262    3.45348973133287   -0.59400953082644
C         1.73127974781324    3.01208123999834   -0.59719489068992
C        -1.57024991374550    2.58333563486164   -1.82129762731740
C        -1.95140770609721    1.41849811019357   -2.58381899536811
C        -2.94673517472401    0.69919811569750   -1.82882574644527
C        -3.17804145020925    1.41982225104711   -0.60314442919377
C        -2.32882731494867    2.58426098357248   -0.59833732279573
C        -2.94624091296749   -0.68956972060450   -1.82659488769818
C        -1.95231817375168   -1.41294249979376   -2.57873753558413
C        -1.57122774140224   -2.57743327859849   -1.81639731178672
C        -2.32896074502500   -2.57752327502076   -0.59696716399508
C        -3.17866276048270   -1.40644100629164   -0.59860137314487
C        -0.99572155427229   -0.71964284227874   -3.30853719293517
C        -0.99812791055439    0.72383249019331   -3.31295956505443
C         0.37245681527306    1.17055694137755   -3.31753722256422
C         1.21759889606628    0.00403781255187   -3.31585301480600
C         0.37298190169909   -1.16386534303993   -3.31144967942921
Cl       -1.94556003232518   -0.02708915043544    5.25017206735546
Cl        5.04882375314434   -2.22862423144283    0.95485284502548
62
 energy: -137.538687179402 gnorm: 0.000468300973 xtb: 6.4.1 (a3dbbd7)
C        -1.30856708313684    0.00486069694343    3.53131181988038
C        -0.37747631698668   -1.16840887659920    3.30472972568493
C         0.96402356030897   -0.71170969152718    3.27256202701866
C         0.96509285046725    0.72768931812863    3.27929271681828
C        -0.38481161172423    1.18268826479922    3.31484028554432