63
 energy: -142.082931365951 gnorm: 0.137833256049 xtb: 6.4.1 (a3dbbd7)
C        -1.29585809770389    0.00401118895665    3.54517689253707
C        -0.36796043462932   -1.17243305037605    3.30515820978008
C         0.98298838983527   -0.72191219207564    3.27512267938171
C         0.98156472667820    0.71960753568128    3.26971969810914
C        -0.37066843460465    1.17924059903467    3.30150764336582
C         2.33648296603916   -2.58548060331365    0.57950289353032
C         3.18657767574002   -1.41946403927647    0.57781419519059
C         2.94957050639235   -0.69854930596759    1.80123308070154
C         1.95308396824160   -1.41752165468763    2.55613481575760
C         1.57961582989334   -2.57968580837377    1.80518673242103
C         3.18767024140451    1.40991878522763    0.57593180000620
C         2.33807592116844    2.57402574447607    0.57591940981122
C         1.57683795432701    2.56605672107525    1.79975339071644
C         1.95304946465436    1.40835201077487    2.55205927518980
C         2.95072023087345    0.68875745016373    1.80098024572921
C        -0.36516779407368    3.42666371337356    0.57921714423118
C        -1.72924376763824    3.01648005769000    0.58287705261872
C        -2.09463355992581    2.46231283092052    1.94730853815858
C        -0.73027134402217    2.28553619303067    2.58224921102021
C         0.24829448349984    2.97593693112150    1.80334175266563
C        -3.37466967425340    0.70300551354290    0.57574930054980
C        -3.39003092747716   -0.73268815647906    0.56838248265369
C        -2.76818811332164   -1.16356142379097    1.78871572221350
C        -2.38904763706855    0.02437925876362    2.53264263719760
C        -2.74834472563595    1.12995086275151    1.81420011519069
C        -1.73481952350512   -3.00995345714269    0.57938225060336
C        -0.36149853481650   -3.44686666227317    0.58178847315895
C         0.25217194581416   -2.99475012292755    1.80551621994623
C        -0.72930832442940   -2.27346636839910    2.56467955448571
C        -1.97147545426586   -2.28746259170963    1.79868366133100
C        -0.24419850626392   -3.01431906333444   -1.82647673840836
C         0.74940205407495   -2.29291975825760   -2.58286291053874
C         1.97453700933417   -2.29239152843074   -1.82543977586922
C         1.74139873400736   -3.01127177410490   -0.59946235558356
C         0.36858334367966   -3.45436466613801   -0.59762914044760
C         2.79442417392884   -1.17031401259636   -1.82833550603033
C         2.41574661888024   -0.00512369156855   -2.58546959716668
C         2.79806943075341    1.16104826420258   -1.83045397172065
C         3.41356646771945    0.71553904943849   -0.60565027142670
C         3.41126633561149   -0.72579612454708   -0.60436594395851
C         1.98256115248497    2.28538932455247   -1.82964816243281
C         0.75350030257848    2.28551308199782   -2.58573232036207
C        -0.23508280213456    3.00436687409655   -1.82344140492918
C         0.37359850932028    3.44286488622179   -0.60220138863872
C         1.74684322376492    3.00246743943424   -0.60372642363492
C        -1.55566653231806    2.56818250386052   -1.80941223575869
C        -1.93859434646944    1.40592010794080   -2.57168095880615
C        -2.93551210457882    0.68461262535792   -1.82146846772098
C        -3.16898901542976    1.39767486975662   -0.59605965548237
C        -2.30435127723071    2.57332623923171   -0.58497549467516
C        -2.94114405309208   -0.70773319324488   -1.83440725641731
C        -1.94505174577217   -1.42387954875747   -2.59102123506710
C        -1.56548890447542   -2.59170746585215   -1.83211639425372
C        -2.32839595515909   -2.59312664323360   -0.60918315818311
C        -3.17773883494341   -1.43218193772331   -0.61434027474195
C        -0.98775846759569   -0.72638522820754   -3.31322849837523
C        -0.98659864719709    0.71557045430270   -3.30737103326374
C         0.38544609985482    1.16109326139683   -3.31071431261235
C         1.23106807703669   -0.00470839638716   -3.31198800126459
C         0.38446650889097   -1.17000629330740   -3.31255499443923
Cl       -1.95494402230001   -0.00808767739961    5.23350834621500
Cl       -3.13453400437008    3.62205440029917    2.87428256883422
Cl        1.13639816010415   -3.48041227608018   -3.89289937340290
63
 energy: -142.107006393217 gnorm: 0.059541298777 xtb: 6.4.1 (a3dbbd7)
C        -1.29655507788308    0.00458922531996    3.54660417569116
C        -0.36840796769182   -1.17157403756639    3.30786564490644
C         0.98271064952940   -0.72089257151277    3.27811151056938
C         0.98091524868527    0.72006464945855    3.27123713264073
C        -0.37098209519634    1.17941428507090    3.30235535861835
C         2.34055530916181   -2.58337707024503    0.58788217840954
C         3.19040355313442   -1.42046720904527    0.58512083062071
C         2.95043429263304   -0.69830929731694    1.80596639667301
C         1.95373487648144   -1.41707596635260    2.56116796180494
C         1.58036528791752   -2.57936046774013    1.81127313207041
C         3.18674500923252    1.41020669099688    0.57728609525843
C         2.33853141676510    2.57516539081566    0.57694385595827
C         1.57679116457976    2.56616217469421    1.79980268255685
C         1.95296261519256    1.40857720246765    2.55285562928938
C         2.95036275369571    0.68908358773072    1.80306319541268
C        -0.36545509214631    3.42753788176649    0.58014361677316
C        -1.72973755102365    3.01741518956907    0.58336372017482
C        -2.09490276814400    2.46239971248911    1.94732509792220
C        -0.73040889171225    2.28569390116275    2.58223418345131
C         0.24809647542631    2.97620259611598    1.80410970218448
C        -3.37549039824815    0.70392514595335    0.57677170878381
C        -3.38884487341982   -0.73192572442597    0.56979143385938
C        -2.76798914991699   -1.16334396041099    1.79127045933043
C        -2.38928581234735    0.02381914819326    2.53360761014728
C        -2.74824536233976    1.12991015852255    1.81296075567535
C        -1.73741222370481   -3.01325568835202    0.58713350873010
C        -0.36531883634962   -3.44711060631807    0.59024298333241
C         0.25221803102854   -2.99464288510614    1.81129564252434
C        -0.72985898458384   -2.27337988251266    2.56938724805732
C        -1.97236502740045   -2.28841595322398    1.80368312673583
C        -0.25116883441731   -3.01158419434220   -1.81069387069659
C         0.77236918709985   -2.36497549300818   -2.65996607257737
C         1.97864622385460   -2.28642480636826   -1.80991522262916
C         1.73929557703024   -3.00134137859386   -0.59271193423640
C         0.36497974100195   -3.44489969880980   -0.59083020575000
C         2.78871241672066   -1.16573347621821   -1.81530512868714
C         2.41301709151142    0.00005259714320   -2.58255286915403
C         2.79584517305946    1.16141076492752   -1.82957043273336
C         3.41235925494003    0.71549929740159   -0.60349329388754
C         3.41461951803809   -0.72495189338224   -0.59817715101138
C         1.98144836070185    2.29029666796886   -1.82919061618478
C         0.75197095254932    2.29490802247957   -2.58589003641604
C        -0.23680739796138    3.01087033068215   -1.82245607260705
C         0.37319980034015    3.44540073600118   -0.60074397812460
C         1.74667412185036    3.00429849228330   -0.60343662950265
C        -1.55743302797252    2.57467790496893   -1.80873148303270
C        -1.94201436086555    1.41455476206855   -2.57212320530800
C        -2.93707049493353    0.68960597941078   -1.82090600906642
C        -3.16966210368890    1.39957771120235   -0.59694545854508
C        -2.30554068329644    2.57599625767034   -0.58434526796075
C        -2.93922463435961   -0.70632291610693   -1.83356896572621
C        -1.94622584852249   -1.41804495551434   -2.58715755221637
C        -1.56427004680318   -2.58475215151537   -1.81865084499672
C        -2.33218294649612   -2.59510833768241   -0.60257419694256
C        -3.17635012805779   -1.43161325418327   -0.61171335136995
C        -0.98447654182595   -0.71346164235028   -3.30613620873045
C        -0.99006299495961    0.72977815056442   -3.30909414014008
C         0.38046569827168    1.17468385080958   -3.31213405300093
C         1.22107037142562    0.00428885365686   -3.30508392601041
C         0.37808574897955   -1.15260014012687   -3.33139954339677
Cl       -1.95524092074068   -0.00765426199679    5.23494865351087
Cl       -3.13490087479840    3.62178777175561    2.87433721238855
Cl        1.16865097085438   -3.58392110828322   -3.99523598573120
63
 energy: -142.112990501648 gnorm: 0.013770200888 xtb: 6.4.1 (a3dbbd7)
C        -1.29732097187866    0.00663288434747    3.54972147890930
C        -0.36908893179580   -1.16969866741204    3.31210003619537
C         0.98202155657541   -0.71883069626926    3.28239040114858
C         0.97948886658156    0.72177496116292    3.27404454234439
C        -0.37193914660002    1.18138986507927    3.30511169553502
C         2.33910011455532   -2.57880748105555    0.58966344244463
C         3.18722890983031   -1.41917736623443    0.58902588403993
C         2.95066691855389   -0.69710120461923    1.81056096460450
C         1.95324240310811   -1.41558490981124    2.56567238731069
C         1.57973552931643   -2.57691928607470    1.81422982488898
C         3.18477852095675    1.41136436061963    0.57925548000758
C         2.33772837533480    2.57730957275520    0.57949844838211
C         1.57563600096745    2.56761929858990    1.80143521711169
C         1.95177739057633    1.40988364012891    2.55461235317581
C         2.94933581176770    0.69048893544603    1.80603851725996
C        -0.36618754787703    3.43036339281773    0.58245559403733
C        -1.73066227176508    3.02015372096509    0.58532822517763
C        -2.09552878145124    2.46431842117555    1.94906435334877
C        -0.73122167357989    2.28748320344103    2.58405223463753
C         0.24698343662000    2.97807162753060    1.80646979961498
C        -3.37526531898783    0.70623766701642    0.57956788454725
C        -3.38722963818775   -0.72992767318792    0.57192326018093
C        -2.76767069923817   -1.16169507975855    1.79481190429219
C        -2.38915126539910    0.02489802993534    2.53587137090237
C        -2.74803896365096    1.13158976140238    1.81357717430443
C        -1.73586774662509   -3.01093947555501    0.59157742066875
C        -0.36648963874542   -3.44247952172537    0.59232301579181
C         0.25178237569430   -2.99224528796971    1.81409847511282
C        -0.73025647714480   -2.27196134094839    2.57397025223424
C        -1.97327565289987   -2.28813258934482    1.80868986694327
C        -0.25221372469083   -3.01577806479987   -1.81127048242943
C         0.79329474216138   -2.43062289173174   -2.72629848075797
C         1.98177823919480   -2.28924617239350   -1.81075068748291
C         1.73565277141943   -2.99000814257545   -0.59575956987950
C         0.36140459132888   -3.43338849765441   -0.59372625120447
C         2.78257653235246   -1.16865739598820   -1.81291256219233
C         2.41305987289441    0.00192557735724   -2.58326910250095
C         2.79108417554233    1.16013890878832   -1.82856371269203
C         3.40792395857750    0.71585077576622   -0.60130931978718
C         3.40624750078399   -0.72399631513435   -0.59619024602678
C         1.98000235182004    2.29431497658056   -1.82696637086707
C         0.75047396781959    2.29890852242408   -2.58296666766696
C        -0.23818480212525    3.01704746723139   -1.82085550333538
C         0.37221462400483    3.44939757179897   -0.59817288852219
C         1.74566905885073    3.00640136223902   -0.60162003413437
C        -1.55915160302696    2.58085046306096   -1.80737482973239
C        -1.94207362836467    1.41870643051543   -2.56920669582516
C        -2.93756777501240    0.69393818111358   -1.81827724103786
C        -3.16925686445349    1.40187741348532   -0.59605280035338
C        -2.30679539325318    2.58022629198777   -0.58247206820509
C        -2.93383286698033   -0.70493958242442   -1.83248816556433
C        -1.94763461158530   -1.41688327747963   -2.58704625630569
C        -1.55815138471769   -2.58408461485307   -1.81599620875771
C        -2.32628777220243   -2.59029556007515   -0.60004981731969
C        -3.17244996841379   -1.42894490128247   -0.60890541870625
C        -0.97649475697764   -0.71290330562537   -3.29855115586730
C        -0.98942301707992    0.73310183696961   -3.30386673780339
C         0.37867969699039    1.17724512952243   -3.30687641829850
C         1.21467186798187    0.00090167228603   -3.29769445762105
C         0.37568810744370   -1.14729217322242   -3.32987145819141
Cl       -1.95708651408453   -0.00525029884037    5.23759119235102
Cl       -3.13675313010920    3.62237447536286    2.87598212635583
Cl        1.19096920918450   -3.65566056214594   -4.07594447710177
63
 energy: -142.113301166456 gnorm: 0.008214539305 xtb: 6.4.1 (a3dbbd7)
C        -1.29787321978456    0.00783530994094    3.55184307333615
C        -0.36950799615340   -1.16885251639591    3.31452922048257
C         0.98171291018534   -0.71783090333728    3.28462052138754
C         0.97887898151497    0.72283468191734    3.27590391505410
C        -0.37250607642560    1.18259148117413    3.30683851711680
C         2.33648386213660   -2.57670834616039    0.58835463581265
C         3.18434317194875   -1.41820308237952    0.58918084064833
C         2.95007592707554   -0.69625973010662    1.81183740803725
C         1.95272202108291   -1.41459899970325    2.56715820680863
C         1.57880405819768   -2.57491522093076    1.81416768372394
C         3.18320144346442    1.41158860039471    0.57996115717420
C         2.33713112315480    2.57825754941471    0.58082568875886
C         1.57498033557435    2.56854952245304    1.80263504134785
C         1.95109303945511    1.41081597256790    2.55595118880761
C         2.94826317035063    0.69124961865424    1.80722824942703
C        -0.36654650257156    3.43195458734297    0.58356119391474
C        -1.73122966633480    3.02168421465530    0.58637377219399
C        -2.09599083621165    2.46553262337669    1.95024057930831
C        -0.73175454879628    2.28860710191232    2.58529757684712
C         0.24634966244443    2.97923681788953    1.80776275794544
C        -3.37496137016054    0.70734582280960    0.58108311103769
C        -3.38583931223169   -0.72889854716582    0.57272561621268
C        -2.76710202475577   -1.16050784666965    1.79626273733161
C        -2.38933849421366    0.02584833056722    2.53754808932655
C        -2.74818534671830    1.13263850946567    1.81463902797292
C        -1.73408372306047   -3.00868831516671    0.59195468293609
C        -0.36547418618237   -3.43935702520804    0.59118244969632
C         0.25150340775333   -2.99009783586676    1.81405422877833
C        -0.73039229151030   -2.27100704671510    2.57573747685551
C        -1.97326265222417   -2.28734105462499    1.81025641459413
C        -0.25077554918950   -3.02244232102153   -1.81836601807276
C         0.79875229140909   -2.44766424641600   -2.74149397508083
C         1.98457728180059   -2.29545141872309   -1.81798007940323
C         1.73494321194916   -2.98786652558513   -0.59920685667603
C         0.36074903182429   -3.43115272877082   -0.59710187208252
C         2.78227911834427   -1.17188135083767   -1.81605332163057
C         2.41477803645525    0.00211515513156   -2.58477539405949
C         2.78944896223839    1.15973946540414   -1.82841198528304
C         3.40458317325968    0.71550041088491   -0.60066768623725
C         3.40068046078291   -0.72422637959788   -0.59682539675177
C         1.97960305583001    2.29520427725211   -1.82571776818960
C         0.75000309557525    2.29881686315301   -2.58125899677173
C        -0.23842926924458    3.01861002601481   -1.82008371405585
C         0.37188527178264    3.45109292868637   -0.59709094422025
C         1.74526909635840    3.00712145122450   -0.60053637175736
C        -1.55951792220861    2.58244397229434   -1.80664756118873
C        -1.94113880062195    1.41893685491949   -2.56739267232908
C        -2.93736734453847    0.69495343641531   -1.81675877329395
C        -3.16897970147891    1.40264262500826   -0.59514544026495
C        -2.30735554303902    2.58196755043596   -0.58156269170381
C        -2.93181970936472   -0.70445427150312   -1.83221743626912
C        -1.94914752183081   -1.41788291096725   -2.58828337704429
C        -1.55604462778352   -2.58671890741694   -1.81902853926380
C        -2.32155962443877   -2.58746057487396   -0.60041617310981
C        -3.16936199458494   -1.42738516684386   -0.60801009489028
C        -0.97356542524492   -0.71616795392341   -3.29729048334075
C        -0.98816642457614    0.73153131386918   -3.30012902365939
C         0.37896346716037    1.17537058266846   -3.30327694100266
C         1.21456299954009   -0.00306417319538   -3.29664956392776
C         0.37650111989050   -1.15007376467895   -3.32608029053966
Cl       -1.95863877345993   -0.00239438229621    5.23946029305306
Cl       -3.13810230816631    3.62273607926777    2.87717860366235
Cl        1.19324093845137   -3.66446612737379   -4.09248577980087
63
 energy: -142.113401042026 gnorm: 0.004697998938 xtb: 6.4.1 (a3dbbd7)
C        -1.29818974440429    0.00822195944454    3.55278121423161
C        -0.36971503388078   -1.16873752803943    3.31583910509231
C         0.98169832607227   -0.71757438983960    3.28575913655338
C         0.97874006142810    0.72313185098922    3.27668300750943
C        -0.37266623495862    1.18284867756200    3.30734845558056
C         2.33469519870524   -2.57531828878413    0.58761470865576
C         3.18307545612954   -1.41763797129010    0.58920561249486
C         2.94999979414941   -0.69581422656033    1.81254035934386
C         1.95272880716849   -1.41415971843152    2.56793279120302
C         1.57821634002271   -2.57369641169768    1.81401410340890
C         3.18273920836679    1.41162393262205    0.58019197227312
C         2.33709173822723    2.57860382880437    0.58129570781810
C         1.57485954391785    2.56883503647132    1.80304645409556
C         1.95094237403052    1.41118444226773    2.55655520493159
C         2.94782612987737    0.69156401344722    1.80769884321850
C        -0.36657238190005    3.43236165306123    0.58368980731353
C        -1.73141867781633    3.02200843793733    0.58651281471307
C        -2.09612708114648    2.46575572495641    1.95052035292100
C        -0.73187006817273    2.28874769958576    2.58547024065593
C         0.24618149074370    2.97944734012671    1.80801647609243
C        -3.37494528959639    0.70762424211604    0.58170020362398
C        -3.38537058550201   -0.72866096353311    0.57294399148808
C        -2.76686215749536   -1.16003621063633    1.79683968081674
C        -2.38962418404791    0.02607604399643    2.53836072817598
C        -2.74841073848710    1.13285043272789    1.81500455397505
C        -1.73335981359348   -3.00758326834445    0.59203891609740
C        -0.36478272613297   -3.43728422426659    0.59052679973606
C         0.25131228263581   -2.98876280735819    1.81388917125696
C        -0.73065626207119   -2.27070748741475    2.57666740847855
C        -1.97348542023159   -2.28706846540323    1.81111394865549
C        -0.24989870742970   -3.02576958036934   -1.82264264862000
C         0.80110201363816   -2.45495326774602   -2.74761262744508
C         1.98592589230928   -2.29865360037443   -1.82234171327739
C         1.73442446309748   -2.98624067109666   -0.60081118575898
C         0.36022608075504   -3.42950232390483   -0.59867771606056
C         2.78231471505956   -1.17329166983804   -1.81769311019253
C         2.41656849081380    0.00270786529561   -2.58567933604061
C         2.78934675866141    1.15984513882247   -1.82853607439160
C         3.40287673270026    0.71521462574503   -0.60041498163722
C         3.39777856727725   -0.72449095824362   -0.59716410326259
C         1.97982820933197    2.29560442267598   -1.82525607817193
C         0.74998425551184    2.29850307329107   -2.58064243531398
C        -0.23838363121834    3.01885054179583   -1.81998809295015
C         0.37192394076378    3.45164935668738   -0.59691658892657
C         1.74536859095025    3.00731914826030   -0.60022025247395
C        -1.55957803076752    2.58269652823565   -1.80656161568075
C        -1.94069955966430    1.41868785923290   -2.56670293913928
C        -2.93762170156631    0.69516991407753   -1.81613154574295
C        -3.16904753673612    1.40267919586668   -0.59491712368778
C        -2.30766739129925    2.58245287278835   -0.58143848126115
C        -2.93154841052435   -0.70441701100207   -1.83233996073920
C        -1.95097470833463   -1.41853349948433   -2.58909514678905
C        -1.55521223423209   -2.58794276888328   -1.82063365133598
C        -2.31897410596935   -2.58607363747442   -0.60063154273161
C        -3.16777473096301   -1.42669397858238   -0.60767343630866
C        -0.97210946481800   -0.71854603779370   -3.29641461275942
C        -0.98731108295727    0.73025825792319   -3.29769519344349
C         0.37922817121158    1.17390333122649   -3.30096282149518
C         1.21506412368170   -0.00553971202267   -3.29593338708131
C         0.37707679624858   -1.15187885729171   -3.32178329621851
Cl       -1.95937149786421   -0.00065560213421    5.24033487638448
Cl       -3.13843291552904    3.62266762263904    2.87756803871687
Cl        1.19186249570870   -3.66153587012791   -4.09678424888549
63
 energy: -142.113441284241 gnorm: 0.002459254667 xtb: 6.4.1 (a3dbbd7)
C        -1.29824044558435    0.00818242997117    3.55279545947281
C        -0.36975165303826   -1.16892134610932    3.31610448035355
C         0.98177000438079   -0.71768675961477    3.28596670900428
C         0.97877812854115    0.72301575500550    3.27664740430114
C        -0.37262252273845    1.18270769057372    3.30715050866886
C         2.33410531735509   -2.57488827675886    0.58752420153348
C         3.18304489896251   -1.41754292701162    0.58930437100138
C         2.95020939662436   -0.69576708636948    1.81283373751943
C         1.95293761399467   -1.41414406660745    2.56815899631645
C         1.57806396699416   -2.57339563818867    1.81397760806178
C         3.18295665943158    1.41156424656521    0.58014560379591
C         2.33726832932707    2.57855135846178    0.58121264604979
C         1.57495202291990    2.56874380890128    1.80292082073138
C         1.95101048853637    1.41116061470025    2.55654549187378
C         2.94780801567477    0.69153326825336    1.80770626076291
C        -0.36649012367342    3.43213961328585    0.58335409358182
C        -1.73138621832348    3.02173347898975    0.58618916691300
C        -2.09606854511414    2.46553155522203    1.95026716466321
C        -0.73179886796666    2.28851471685914    2.58513099475364
C         0.24622955176248    2.97921987598985    1.80772452357783
C        -3.37501145832014    0.70746355988082    0.58167582117387
C        -3.38547093863391   -0.72886703516084    0.57283428413111
C        -2.76678717556074   -1.16007359033885    1.79683846922707
C        -2.38974620791930    0.02591181465448    2.53840559779271
C        -2.74851058716811    1.13266013945229    1.81481915900952
C        -1.73338492510015   -3.00753716528937    0.59211282491065
C        -0.36454360979200   -3.43664128996320    0.59046204597934
C         0.25126032946283   -2.98843118090954    1.81383235022322
C        -0.73084136503361   -2.27080984279070    2.57690320579475
C        -1.97372270662791   -2.28722509493402    1.81143834659658
C        -0.24964821482405   -3.02614178604756   -1.82364693865409
C         0.80175022970142   -2.45695517259413   -2.74940058099036
C         1.98601893339313   -2.29911400606933   -1.82338214879475
C         1.73413683187277   -2.98527479113529   -0.60095823227835
C         0.35990084176815   -3.42853806895137   -0.59882191419365
C         2.78225354389737   -1.17344317300083   -1.81776847813412
C         2.41758561761317    0.00319068792194   -2.58588072965236
C         2.78992729853664    1.16001336678617   -1.82872854699986
C         3.40264736738906    0.71505012660105   -0.60039734804176
C         3.39712116612723   -0.72471260926268   -0.59716107644455
C         1.98022644619661    2.29567873468690   -1.82530240111614
C         0.75016112841121    2.29832911110390   -2.58076119807788
C        -0.23826038375331    3.01852229562386   -1.82021763197544
C         0.37204894780691    3.45151181711094   -0.59716944253634
C         1.74559474288162    3.00720321805942   -0.60038049009812
C        -1.55950024837213    2.58236857181694   -1.80679784228381
C        -1.94068805482348    1.41841258968440   -2.56680826858053
C        -2.93800595174632    0.69499411285564   -1.81614444154761
C        -3.16919907771938    1.40240401689217   -0.59515611422291
C        -2.30772886153519    2.58225254752710   -0.58170606592301
C        -2.93204914484124   -0.70469044418856   -1.83260038997475
C        -1.95213283828091   -1.41878212338684   -2.58930353748484
C        -1.55505160234536   -2.58803603809963   -1.82071495039088
C        -2.31828591214901   -2.58591845701027   -0.60060551962184
C        -3.16750839048506   -1.42673479183650   -0.60766668555611
C        -0.97159576264737   -0.71947541173064   -3.29564839677876
C        -0.98697062244162    0.72977161720399   -3.29683388983929
C         0.37929437391451    1.17332893412061   -3.30015463960233
C         1.21532882683834   -0.00641382468183   -3.29523523809704
C         0.37719843102633   -1.15226211023971   -3.31849249398710
Cl       -1.95941538161755    0.00000289261644    5.24039165524755
Cl       -3.13818462699911    3.62254589779525    2.87736944957880
Cl        1.18935791371845   -3.65445629418062   -4.09548908303380
63
 energy: -142.113453134006 gnorm: 0.001335483182 xtb: 6.4.1 (a3dbbd7)
C        -1.29816745576295    0.00807550788983    3.55247406790245
C        -0.36970810669400   -1.16902807177928    3.31583331050537
C         0.98179785366837   -0.71780147508083    3.28571759585467
C         0.97882320174567    0.72287417206962    3.27635442408174
C        -0.37255631807076    1.18257941013113    3.30684573863606
C         2.33438079001911   -2.57514293682634    0.58775995538202
C         3.18345119993861   -1.41770141790473    0.58940442096525
C         2.95036628738330   -0.69590638934042    1.81282082568494
C         1.95304756589555   -1.41427038133093    2.56806839333301
C         1.57817778278714   -2.57363721359731    1.81405165847286
C         3.18326118714462    1.41149920390059    0.58003427452591
C         2.33739694733349    2.57839258370305    0.58098606429781
C         1.57503522687079    2.56859566866826    1.80267047173501
C         1.95108578767306    1.41102969178638    2.55631091198208
C         2.94793335574509    0.69139606847687    1.80756015483272
C        -0.36643936375741    3.43185933012201    0.58307142547649
C        -1.73129942781112    3.02144592916933    0.58590479463489
C        -2.09599133699516    2.46533199500948    1.94997270266466
C        -0.73173391775652    2.28835934583593    2.58483764789514
C         0.24630196741147    2.97902619246515    1.80743330447600
C        -3.37504837119704    0.70727250463613    0.58144022042820
C        -3.38567214795041   -0.72908321716295    0.57268818144929
C        -2.76677510495759   -1.16025160509477    1.79664944161202
C        -2.38970552020102    0.02574426863179    2.53813309234016
C        -2.74848277768688    1.13248440867431    1.81452334147410
C        -1.73363283027755   -3.00792128759407    0.59218661133979
C        -0.36462352186931   -3.43700340459068    0.59069209657902
C         0.25130418570130   -2.98869755306437    1.81389968540896
C        -0.73085304875800   -2.27095340781542    2.57676640566300
C        -1.97378582922354   -2.28744693283118    1.81140378618746
C        -0.24978860778874   -3.02535867582765   -1.82277326692769
C         0.80160983935572   -2.45652951121966   -2.74930220901577
C         1.98568680779378   -2.29841628690325   -1.82250884805273
C         1.73416028714353   -2.98525655557262   -0.60050393133074
C         0.35987601395512   -3.42852889690381   -0.59837501484865
C         2.78222995034643   -1.17318465282210   -1.81722868535707
C         2.41767102159383    0.00323246728222   -2.58570061136507
C         2.79038576211159    1.16001416855608   -1.82882919348026
C         3.40314756310230    0.71501535700059   -0.60046848998752
C         3.39766905962518   -0.72480984365668   -0.59702439432417
C         1.98043116751104    2.29556477837575   -1.82550247530345
C         0.75031315966741    2.29831262619291   -2.58106385283457
C        -0.23819172994333    3.01823205250124   -1.82042485804721
C         0.37210681889422    3.45120990885746   -0.59740733308590
C         1.74570384660054    3.00702601989745   -0.60062481806776
C        -1.55942394874368    2.58206884424001   -1.80700474841543
C        -1.94083804954283    1.41828861460834   -2.56712510729897
C        -2.93817517310452    0.69477712886645   -1.81637602464692
C        -3.16925240329490    1.40219051249230   -0.59543799723711
C        -2.30763741562260    2.58194019959630   -0.58194326066768
C        -2.93245548984688   -0.70496506038465   -1.83274195843466
C        -1.95226074182549   -1.41879751805928   -2.58914342282121
C        -1.55519139658232   -2.58779990761532   -1.82018234679856
C        -2.31868936275674   -2.58632754590584   -0.60048599167648
C        -3.16790382171733   -1.42705074136410   -0.60775769618546
C        -0.97169674793212   -0.71926282078839   -3.29528500704250
C        -0.98703535638775    0.72989736654959   -3.29714461550360
C         0.37923678865167    1.17345631757112   -3.30045384114119
C         1.21527375511939   -0.00615805038612   -3.29486328147448
C         0.37703988420127   -1.15180772374354   -3.31737916138049
Cl       -1.95920764610497   -0.00012378012108    5.24012255931226
Cl       -3.13796620480389    3.62250819824655    2.87701349794829