63
 energy: -142.085946123241 gnorm: 0.136553624537 xtb: 6.4.1 (a3dbbd7)
C        -1.30524132879597    0.00000000000538    3.57807329023422
C        -0.38198622120159   -1.16615737488772    3.28622995044209
C         0.97316446785684   -0.71953336628746    3.26852105894251
C         0.97316446785530    0.71953336630216    3.26852105894473
C        -0.38198622120459    1.16615737490379    3.28622995045274
C         2.33525790565848   -2.58178581715533    0.58265918378867
C         3.18402429064640   -1.41551052449968    0.58305164633927
C         2.94575551469093   -0.69331830539435    1.80727245276214
C         1.94633616722705   -1.41428833030776    2.55691587181014
C         1.57537284635923   -2.57710002453835    1.80571263196464
C         3.18402429064568    1.41551052450295    0.58305164633618
C         2.33525790565840    2.58178581715875    0.58265918378237
C         1.57537284635929    2.57710002454614    1.80571263195897
C         1.94633616722623    1.41428833031814    2.55691587180842
C         2.94575551468950    0.69331830540176    1.80727245276124
C        -0.36286725388684    3.43716117593932    0.57905462418204
C        -1.73307079475598    2.99275061625332    0.57524951534827
C        -1.97752320629156    2.27496221823572    1.79457083857807
C        -0.73661625909686    2.27496497778529    2.56523814188962
C         0.24797249911112    2.99276091828423    1.80557303834060
C        -3.36590164017822    0.71953732333088    0.57375248902312
C        -3.36590164017888   -0.71953732332215    0.57375248902510
C        -2.78105190250946   -1.16617827543313    1.79633080427055
C        -2.63331800734743    0.00000000000824    2.75326019131418
C        -2.78105190250706    1.16617827544612    1.79633080426590
C        -1.73307079475815   -2.99275061624643    0.57524951535621
C        -0.36286725388906   -3.43716117593443    0.57905462419038
C         0.24797249911082   -2.99276091827599    1.80557303834608
C        -0.73661625909661   -2.27496497777287    2.56523814188986
C        -1.97752320629363   -2.27496221822376    1.79457083858313
C        -0.24045690066217   -3.00743782548085   -1.83034246730529
C         0.75231661586805   -2.28840993805800   -2.58424128273324
C         1.97824017738855   -2.28845527885670   -1.82288383798471
C         1.74258918722144   -3.00745695556584   -0.59875134393160
C         0.36899288245124   -3.44813425118672   -0.59934302533638
C         2.79566620008723   -1.16591822783908   -1.82325695863853
C         2.41697359109874   -0.00000000000271   -2.58108531976838
C         2.79566620008779    1.16591822783556   -1.82325695864148
C         3.40959680691412    0.72110795434846   -0.59778286565664
C         3.40959680691433   -0.72110795434857   -0.59778286565546
C         1.97824017738961    2.28845527885345   -1.82288383799084
C         0.75231661586926    2.28840993805322   -2.58424128273948
C        -0.24045690066036    3.00743782547884   -1.83034246731341
C         0.36899288245285    3.44813425118749   -0.59934302534530
C         1.74258918722258    3.00745695556589   -0.59875134393955
C        -1.56217286029713    2.58178679356912   -1.83784975797872
C        -1.93879975252934    1.41553008402889   -2.59849355392507
C        -2.93052386427469    0.69331652856981   -1.84222173469045
C        -3.15943698990261    1.41427069975303   -0.61403881020582
C        -2.32163160591617    2.57707956787764   -0.61452432163280
C        -2.93052386427455   -0.69331652856949   -1.84222173468868
C        -1.93879975252999   -1.41553008403179   -2.59849355392122
C        -1.56217286029877   -2.58178679357009   -1.83784975797151
C        -2.32163160591823   -2.57707956787401   -0.61452432162573
C        -3.15943698990344   -1.41427069974849   -0.61403881020168
C        -0.98033776527170   -0.72109715720207   -3.32415755726590
C        -0.98033776527144    0.72109715719620   -3.32415755726739
C         0.39032106020777    1.16579648770428   -3.31706046827290
C         1.23757908177170   -0.00000000000348   -3.31355725238661
C         0.39032106020722   -1.16579648771087   -3.31706046826971
Cl       -1.60949318930206   -0.00000000015797    5.36443419001363
Cl       -4.09957109178614    0.00000000004209    3.81802953081684
Cl       -0.34249297388188   -4.55909991235225   -2.75664339461119
63
 energy: -142.110150472013 gnorm: 0.058242721190 xtb: 6.4.1 (a3dbbd7)
C        -1.30561854520429    0.00093800087336    3.57862643541376
C        -0.38199345282087   -1.16466739888225    3.28634072462638
C         0.97372778702955   -0.71800915503684    3.26968687119650
C         0.97303691365154    0.72045014517634    3.26895503401712
C        -0.38223971775803    1.16691620715986    3.28677596268467
C         2.33926609361359   -2.57866482974087    0.58927617401001
C         3.18748284915497   -1.41248958602128    0.58594772795752
C         2.94821450394560   -0.69102600804441    1.80979787925884
C         1.94868391351930   -1.41206398093878    2.55965736927659
C         1.57969584441779   -2.57574346716733    1.81038447053510
C         3.18508286231511    1.41798095825428    0.58453713004760
C         2.33585421174157    2.58340070020706    0.58336605121151
C         1.57577563145406    2.57828800878649    1.80611035064464
C         1.94659338598863    1.41567870385662    2.55744627451505
C         2.94662747027608    0.69553862604235    1.80895800960708
C        -0.36242371991413    3.43814138804741    0.57960549562413
C        -1.73272704821358    2.99394624432133    0.57636407959258
C        -1.97749033081874    2.27651850905405    1.79608835259888
C        -0.73655655191507    2.27561645864750    2.56577683558948
C         0.24820342270387    2.99335956561432    1.80531777497459
C        -3.36959930320420    0.72447205218078    0.57725260736357
C        -3.37236236541197   -0.71383149403809    0.57783129280282
C        -2.78519685903170   -1.16266781265098    1.79830755096770
C        -2.63459074601424    0.00193402236626    2.75515963788075
C        -2.78220950282570    1.16873230819221    1.79905420338328
C        -1.73415413728208   -2.98622185785141    0.57673302894315
C        -0.35743958256613   -3.42483313134198    0.58254646310665
C         0.25116241280956   -2.99156779689963    1.81050818288652
C        -0.73629701835220   -2.27286670785697    2.56522209097538
C        -1.97737629664964   -2.27251482492991    1.79380613729077
C        -0.24484554681418   -3.10167288375107   -1.88648217826912
C         0.76230961879550   -2.27493121447171   -2.58194685665624
C         1.97680256763577   -2.27746923776259   -1.81871106200721
C         1.74020393514291   -2.99726239648417   -0.59287913907211
C         0.37588370007301   -3.44027110141934   -0.58731923680692
C         2.80173198345674   -1.15873676217093   -1.82292512014024
C         2.42429227242259    0.00469146850399   -2.58151702503472
C         2.79945065462623    1.16931666932907   -1.82211227508577
C         3.41251007131502    0.72444716449552   -0.59604922469642
C         3.41331933542203   -0.71756055198379   -0.59568880494944
C         1.97960446370503    2.29011385737347   -1.82212646788176
C         0.75317874372484    2.28916978033296   -2.58307516872774
C        -0.24005352926286    3.00862026714042   -1.82992222788336
C         0.36897704118301    3.44864001504866   -0.59955011757092
C         1.74308385786378    3.00842104686845   -0.59844356328078
C        -1.56292453259325    2.58234071231915   -1.83724836762357
C        -1.94177307159994    1.41924859299960   -2.59760763774637
C        -2.93516628918664    0.69974392654246   -1.83941633258608
C        -3.16245949709216    1.41921305385313   -0.61073776208600
C        -2.32211533352190    2.57948621593284   -0.61278999194280
C        -2.94045635415136   -0.68522984384942   -1.83754007239094
C        -1.94128746389361   -1.40816929674575   -2.58539264552621
C        -1.58732583285322   -2.58011687476679   -1.84256966718633
C        -2.32259638274504   -2.56195406061780   -0.61384891691402
C        -3.17016041028952   -1.40486427637310   -0.61120036702217
C        -0.98087579186296   -0.71570285994755   -3.31992254957045
C        -0.98057793691599    0.72114680904726   -3.32333713896407
C         0.39175382779364    1.16670226622589   -3.31540594827849
C         1.24333948148554    0.00503804371055   -3.31384309251374
C         0.39538740893227   -1.15671482826949   -3.30613127903053
Cl       -1.60866757847021   -0.00034015712362    5.36497820772916
Cl       -4.10023009669069    0.00174878038504    3.82120742221411
Cl       -0.34055014869786   -4.69093608410305   -2.83300583161510
63
 energy: -142.116087505950 gnorm: 0.013282462250 xtb: 6.4.1 (a3dbbd7)
C        -1.30570869287172    0.00412876627951    3.58010153641423
C        -0.38247344830493   -1.16130896838758    3.28598644958058
C         0.97398105098483   -0.71455460715901    3.27079988300505
C         0.97306347775119    0.72347771661029    3.27045462308821
C        -0.38236558346321    1.17002737400963    3.28823207213169
C         2.33668366381546   -2.57395272383787    0.59090923507220
C         3.18691791389032   -1.40894677110787    0.58815537720214
C         2.94951681543324   -0.68733178303112    1.81218410209973
C         1.95015829829171   -1.40860771265228    2.56239239540792
C         1.58000994713226   -2.57018805413530    1.81021896666256
C         3.18644593137410    1.42204799759579    0.58677379823606
C         2.33676694806512    2.58688406888332    0.58544204120316
C         1.57631886519563    2.58180853165911    1.80796739675376
C         1.94708746917721    1.41918722007338    2.55915494932417
C         2.94730918560987    0.69954367728208    1.81124875774352
C        -0.36203075253720    3.44116274655941    0.58165759187753
C        -1.73263125920799    2.99695439707180    0.57832389939491
C        -1.97776648616687    2.27983512411365    1.79839227525707
C        -0.73665411028686    2.27848742454592    2.56724143877662
C         0.24853744010828    2.99619861115314    1.80644371011325
C        -3.37160091417294    0.72869953913745    0.58021303712998
C        -3.37298411144717   -0.70989901225010    0.58044407512334
C        -2.78696900730125   -1.15908798980736    1.80010958076687
C        -2.63503924067079    0.00488400175038    2.75711999317349
C        -2.78358634672899    1.17269760641520    1.80199879655227
C        -1.73577078018888   -2.98617099429445    0.57681451507131
C        -0.35461728942677   -3.42148801093187    0.57712579707431
C         0.25082534493882   -2.98419911652549    1.80539413335830
C        -0.73630538729395   -2.26820346888151    2.56275824249543
C        -1.97607429514938   -2.26949226256134    1.79010265082010
C        -0.24602631948685   -3.18409092742081   -1.93537416481347
C         0.76501927101084   -2.27708786459723   -2.58617477685232
C         1.96678576382943   -2.27093531547447   -1.81755290046067
C         1.72964438827936   -2.99047974592122   -0.59123279886475
C         0.37701491970680   -3.44474426335586   -0.58774608972327
C         2.79973553004772   -1.15471764768093   -1.82064119627539
C         2.42532991201768    0.00717466474569   -2.57722746181108
C         2.80238725438705    1.17307723869487   -1.82040705238354
C         3.41456304342175    0.72817198358931   -0.59375171433923
C         3.41252357231894   -0.71413309961850   -0.59356399844986
C         1.98102054042997    2.29307265800767   -1.82011746107075
C         0.75372481801086    2.29111850405305   -2.58026220610545
C        -0.23940116266193    3.01170415621783   -1.82770956622891
C         0.36915730926117    3.45099714691640   -0.59790705504220
C         1.74369129212281    3.01098240612651   -0.59666176603847
C        -1.56285956830833    2.58419749615124   -1.83523266681974
C        -1.94223502225142    1.42288859075369   -2.59434626059956
C        -2.93501329611837    0.70318262471355   -1.83631877941584
C        -3.16429911671960    1.42366858658360   -0.60826066657175
C        -2.32262971711152    2.58318609162096   -0.61031423668580
C        -2.93739226095126   -0.68180485311253   -1.83217363657220
C        -1.93547909196680   -1.40993880399422   -2.57653138253821
C        -1.58943117603931   -2.57630193176378   -1.84189231423214
C        -2.31460940465781   -2.55597943661552   -0.61718485871634
C        -3.16802284900886   -1.40023622521763   -0.60889801273378
C        -0.98196003281786   -0.71474630449139   -3.32208999878950
C        -0.97990731193378    0.71886807003710   -3.31731355046753
C         0.39190552875304    1.16730973914982   -3.30988372302572
C         1.24168682201772    0.00523195788724   -3.30549276003196
C         0.39681410854510   -1.15933733929274   -3.30050728107839
Cl       -1.60690492401999    0.00020405803523    5.36663635096798
Cl       -4.09972278335221    0.00414469011371    3.82538427738343
Cl       -0.34525939172828   -4.78634014476978   -2.89053185265713
63
 energy: -142.116396325856 gnorm: 0.007909752642 xtb: 6.4.1 (a3dbbd7)
C        -1.30557079734517    0.00553359555243    3.58091742331396
C        -0.38263647594196   -1.15959300729740    3.28495300920479
C         0.97395560740458   -0.71275084470243    3.27101544482258
C         0.97311007358461    0.72517758042020    3.27140609682927
C        -0.38241653504261    1.17171883365102    3.28924785470011
C         2.33399997061591   -2.57149269748163    0.58936299250099
C         3.18516275735799   -1.40708444676454    0.58846291493523
C         2.94939671728346   -0.68552637121163    1.81292582999582
C         1.95009447216772   -1.40692819487988    2.56299780441627
C         1.57884028339714   -2.56722236256121    1.80846505885351
C         3.18697232550346    1.42421692879882    0.58810787082733
C         2.33731742740544    2.58913113739606    0.58684294881103
C         1.57654518528687    2.58391725074682    1.80930952681558
C         1.94740652638770    1.42115373457998    2.56041945032007
C         2.94770541575267    0.70156491621632    1.81264476970847
C        -0.36200338095246    3.44293322714409    0.58280366964676
C        -1.73276525517539    2.99849611865643    0.57926545304121
C        -1.97799405334356    2.28132286002198    1.79949412717288
C        -0.73683782342018    2.28012820491053    2.56826221828574
C         0.24855784324908    2.99792307799731    1.80741049111430
C        -3.37184842559325    0.72983278754135    0.58123216603069
C        -3.37136826948733   -0.70891570512666    0.58079653044618
C        -2.78726780417602   -1.15813904437704    1.80103241965131
C        -2.63503174744651    0.00602105974846    2.75818052344911
C        -2.78403874310289    1.17416327837531    1.80319508244997
C        -1.73713099905193   -2.98840903822144    0.57722900483463
C        -0.35492791807373   -3.42458798110520    0.57348594749093
C         0.24994363591279   -2.98044263319403    1.80057691627959
C        -0.73622268900637   -2.26547421085886    2.55997871825371
C        -1.97623621172737   -2.26878873781075    1.78868945348520
C        -0.24474974891539   -3.20470505053353   -1.94731661302682
C         0.76479273917267   -2.28510962872630   -2.59207312094834
C         1.96292732602118   -2.27101016619511   -1.81859752440801
C         1.72550758649567   -2.99054920440591   -0.59226431475449
C         0.37618299020036   -3.45364640498242   -0.59241784191529
C         2.79677869403629   -1.15416998817237   -1.81879550379584
C         2.42409739933108    0.00762049218248   -2.57465839956502
C         2.80272193675086    1.17470780859136   -1.81932009782412
C         3.41456803608002    0.72992941350689   -0.59252404377375
C         3.41075236401815   -0.71253000289225   -0.59271309525615
C         1.98125146151221    2.29453342444323   -1.81869769673640
C         0.75370536418585    2.29151792354490   -2.57855785413314
C        -0.23903354996703    3.01312552089741   -1.82656099968518
C         0.36927552991796    3.45258743809858   -0.59684085703144
C         1.74403817211947    3.01284580360997   -0.59545443455647
C        -1.56239702532544    2.58485486339939   -1.83425461030991
C        -1.94161315997750    1.42401188421891   -2.59334792073855
C        -2.93328457175989    0.70342140113223   -1.83474337936831
C        -3.16429805922099    1.42474846133727   -0.60734125516728
C        -2.32265941891509    2.58456208526707   -0.60931612705862
C        -2.93310219828224   -0.68169458992439   -1.83044976370663
C        -1.93178658422318   -1.41298661287505   -2.57558091771282
C        -1.58451766939596   -2.57662704271359   -1.84132660221771
C        -2.31102954022256   -2.55768487261122   -0.61928000710119
C        -3.16382536458846   -1.39966426423838   -0.60836839890660
C        -0.98199444378110   -0.71492033487797   -3.32434543365458
C        -0.97983559275600    0.71812145475574   -3.31585203583669
C         0.39159347024438    1.16655648349188   -3.30656942630002
C         1.23972782820651    0.00341894522251   -3.30082472264442
C         0.39670454145721   -1.16365536765007   -3.30178754240865
Cl       -1.60522863747026    0.00097919723228    5.36771158563054
Cl       -4.09926579121125    0.00661364620836    3.82759359698717
Cl       -0.34981990458501   -4.80218194485856   -2.90095659989628
63
 energy: -142.116488941352 gnorm: 0.004637852868 xtb: 6.4.1 (a3dbbd7)
C        -1.30549761306200    0.00572796857533    3.58122616026864
C        -0.38262322086064   -1.15917402117616    3.28475092139989
C         0.97404528489422   -0.71205970809343    3.27118082693086
C         0.97324844030243    0.72575888093506    3.27198052674910
C        -0.38240884645842    1.17212030914352    3.28960772945194
C         2.33248048528206   -2.56985973747085    0.58843702717528
C         3.18417703474795   -1.40610715900424    0.58859364736611
C         2.94950664560525   -0.68487715638288    1.81346302757439
C         1.95022968218123   -1.40622694049267    2.56355321558499
C         1.57829180461632   -2.56582733369453    1.80776401001036
C         3.18745290543712    1.42509178355768    0.58860525197768
C         2.33769258174637    2.58996477977751    0.58732097087366
C         1.57669034629398    2.58454128526624    1.80973674481038
C         1.94768465409148    1.42178895993233    2.56097747027715
C         2.94813436759835    0.70230798109839    1.81332705432558
C        -0.36197228889568    3.44332789631069    0.58302515011289
C        -1.73285066807603    2.99875796865975    0.57933299870934
C        -1.97806820466378    2.28144331362061    1.79964770538893
C        -0.73691578208847    2.28034583082312    2.56839298984561
C         0.24857863291446    2.99820936113438    1.80752119605098
C        -3.37179414423598    0.72980699912127    0.58140788461431
C        -3.37057611193320   -0.70888256756899    0.58092537645789
C        -2.78767784513492   -1.15816306354111    1.80183090028264
C        -2.63502807914880    0.00622778393509    2.75873563227673
C        -2.78422189645285    1.17432197073684    1.80349255910532
C        -1.73825159997024   -2.98997849023257    0.57835788363431
C        -0.35524740211266   -3.42596503303909    0.57192601478156
C         0.24965922391680   -2.97841657982352    1.79802950067844
C        -0.73608147780393   -2.26410279364993    2.55850473523828
C        -1.97671004802507   -2.26894289820821    1.78859153583699
C        -0.24396741139804   -3.21286157005362   -1.95194825043600
C         0.76415574458154   -2.28938761292324   -2.59512064355733
C         1.96077480435809   -2.27061202172222   -1.81890257824632
C         1.72322806452006   -2.99013012011123   -0.59251879047611
C         0.37531875582817   -3.45820796473098   -0.59504124355950
C         2.79495642020039   -1.15381921583365   -1.81754071198094
C         2.42348801984253    0.00790065628950   -2.57363306138910
C         2.80295534405349    1.17556989214586   -1.81895775888092
C         3.41470745348324    0.73078166055186   -0.59217751922277
C         3.40969693070263   -0.71171289629423   -0.59230182821303
C         1.98133455786361    2.29512506211800   -1.81815103135326
C         0.75373661528013    2.29169249155671   -2.57810757086040
C        -0.23882265835031    3.01372764498759   -1.82639257521439
C         0.36938266074590    3.45316115597000   -0.59661789544214
C         1.74429058551337    3.01365926196915   -0.59508678958789
C        -1.56215893794845    2.58504629913481   -1.83420134661519
C        -1.94125380314241    1.42460122408417   -2.59331551272457
C        -2.93242644863920    0.70328860623156   -1.83427094219465
C        -3.16413306810177    1.42475318114391   -0.60722862876728
C        -2.32268930275917    2.58489147120761   -0.60924332086147
C        -2.93036935745681   -0.68171445442016   -1.82946197403275
C        -1.92935625012525   -1.41461271782760   -2.57540765687516
C        -1.58022489399253   -2.57581576034164   -1.84002571866245
C        -2.30890167560573   -2.55904062149498   -0.62010039229053
C        -3.16112260186895   -1.39945674434823   -0.60807425935584
C        -0.98209290192490   -0.71443201003282   -3.32624668470087
C        -0.97989161526409    0.71811641904433   -3.31588103331943
C         0.39142762607587    1.16607363265009   -3.30502990596775
C         1.23880061334341    0.00238497796537   -3.29851132097630
C         0.39648978643377   -1.16552401184183   -3.30254721432567
Cl       -1.60515265718559    0.00121682817280    5.36797742926868
Cl       -4.09903562466049    0.00765301241900    3.82881754209101
Cl       -0.35419634353261   -4.80257525826773   -2.90211769919368
63
 energy: -142.116528200590 gnorm: 0.002513447288 xtb: 6.4.1 (a3dbbd7)
C        -1.30554033824989    0.00547525163585    3.58147893926063
C        -0.38263678464504   -1.15935392707353    3.28493208743854
C         0.97411170151645   -0.71201946170681    3.27121303421582
C         0.97328927012935    0.72570283534168    3.27212248620867
C        -0.38244902309244    1.17191922568977    3.28958970365863
C         2.33208432747892   -2.56920913284650    0.58816776037672
C         3.18393415245652   -1.40586084543541    0.58865430937394
C         2.94967303762757   -0.68488353499263    1.81374639857190
C         1.95042404997536   -1.40614739976124    2.56392341099391
C         1.57825287090921   -2.56556884186713    1.80778348720696
C         3.18765090501413    1.42517068924143    0.58862154700305
C         2.33774890259911    2.58991861597125    0.58728706889914
C         1.57665881579188    2.58440060011073    1.80966484365160
C         1.94774740050211    1.42169336586269    2.56099643427591
C         2.94832782109654    0.70232687865363    1.81347151595113
C        -0.36200941436129    3.44304626969052    0.58285213850193
C        -1.73291342322579    2.99839853058992    0.57909965748743
C        -1.97809754390850    2.28101876628202    1.79944304506321
C        -0.73699398933000    2.27996338891190    2.56817170603023
C         0.24851473223986    2.99786352375731    1.80728325533432
C        -3.37164737335489    0.72934016808776    0.58122321426150
C        -3.37048574762152   -0.70924558501734    0.58092937905925
C        -2.78796622103947   -1.15853272227764    1.80223484335238
C        -2.63510463050475    0.00595812912814    2.75889589548558
C        -2.78423665443022    1.17391918310126    1.80336844979096
C        -1.73879785339671   -2.99064921484131    0.57927624092354
C        -0.35525496384894   -3.42590736502582    0.57165101950256
C         0.24974157706604   -2.97776379590121    1.79725997719418
C        -0.73599669766521   -2.26376151579988    2.55810067958606
C        -1.97705804653443   -2.26941718037421    1.78891842691941
C        -0.24383137650352   -3.21539765923636   -1.95338774159662
C         0.76371154827542   -2.29032962703617   -2.59570589543889
C         1.95996598088228   -2.26999771706912   -1.81873696634929
C         1.72238375600993   -2.98948797669937   -0.59230110517037
C         0.37486449276958   -3.45903376627726   -0.59575240064575
C         2.79442636022851   -1.15367328162050   -1.81701964240992
C         2.42348974932621    0.00803056654799   -2.57356252605649
C         2.80318101786068    1.17584071262204   -1.81899651185651
C         3.41487992245457    0.73098767432002   -0.59226027416331
C         3.40940156976393   -0.71151264399671   -0.59220240055016
C         1.98134297917240    2.29513376783401   -1.81811081958333
C         0.75378349950766    2.29170880858333   -2.57831340574453
C        -0.23877170843827    3.01374536757604   -1.82662030468999
C         0.36936813784056    3.45309362439437   -0.59676663981826
C         1.74432139291461    3.01370150138452   -0.59515332722478
C        -1.56212768256079    2.58489898006191   -1.83448574002244
C        -1.94113430487180    1.42476669801699   -2.59365899533101
C        -2.93229542320306    0.70307649634518   -1.83441588743818
C        -3.16398896697149    1.42433947744640   -0.60743339143219
C        -2.32270907256280    2.58465550514860   -0.60946825849831
C        -2.92935368121916   -0.68176098915485   -1.82905050577029
C        -1.92809883346483   -1.41502546753644   -2.57520717094227
C        -1.57757327857806   -2.57443285737412   -1.83868007736763
C        -2.30783219969560   -2.55941529230992   -0.62020530917080
C        -3.16013505061122   -1.39941273796349   -0.60802098532939
C        -0.98212488756789   -0.71389079009467   -3.32728135573371
C        -0.97990103383557    0.71827635347444   -3.31645230636497
C         0.39144944954667    1.16588291281519   -3.30479993704031
C         1.23869251338983    0.00202857054159   -3.29787550697355
C         0.39646357915836   -1.16571995826403   -3.30252606978995
Cl       -1.60419679309595    0.00132784280929    5.36840413458342
Cl       -4.09982707161081    0.00780956723441    3.82823110055949
Cl       -0.35790015192912   -4.79710847401075   -2.89966497235257
63
 energy: -142.116539708517 gnorm: 0.001477177163 xtb: 6.4.1 (a3dbbd7)
C        -1.30554277291160    0.00524321861831    3.58106629317605
C        -0.38262493641410   -1.15973531702098    3.28515420414786
C         0.97415631477378   -0.71224581723418    3.27120778075172
C         0.97326029172439    0.72548060619147    3.27204072488264
C        -0.38247282508153    1.17175339658612    3.28946855102578
C         2.33244513600790   -2.56937294326822    0.58829713518884
C         3.18417590760138   -1.40602197337433    0.58865313492672
C         2.94976728619520   -0.68507907072514    1.81375312034598
C         1.95056380441257   -1.40633674141804    2.56399936128388
C         1.57850416160695   -2.56590265708626    1.80803605730639
C         3.18760403968555    1.42495230035251    0.58847004590000
C         2.33764745750866    2.58962098276599    0.58709357040384
C         1.57658624148425    2.58413974892214    1.80946697662506
C         1.94767815146072    1.42144272579807    2.56081891951610
C         2.94828971196970    0.70212557922719    1.81333421274493
C        -0.36204993504689    3.44276341941198    0.58262149903856
C        -1.73293633205778    2.99810807820649    0.57887949429930
C        -1.97810013307306    2.28077119591477    1.79921581065564
C        -0.73701560072143    2.27970913966770    2.56794780543463
C         0.24846881048362    2.99760950854891    1.80705691291011
C        -3.37163048261515    0.72903372650104    0.58105827178878
C        -3.37073563600525   -0.70955632004671    0.58093092822743
C        -2.78800969126322   -1.15889396077884    1.80221745497213
C        -2.63480899785614    0.00568051673677    2.75852082958528
C        -2.78422535102561    1.17368459053083    1.80316341671979
C        -1.73871245473664   -2.99067797506780    0.57947933129294
C        -0.35501102564026   -3.42550559872128    0.57193890512840
C         0.24998980482777   -2.97807871391625    1.79755189192326
C        -0.73592016857538   -2.26411139586951    2.55833053320790
C        -1.97704788869069   -2.26982062300015    1.78911726746178
C        -0.24406070227925   -3.21535269710660   -1.95341005629637
C         0.76375740545867   -2.28952555022587   -2.59511634383494
C         1.96021682637763   -2.26974314779962   -1.81857728189407
C         1.72266339679943   -2.98924644203214   -0.59209617595763
C         0.37498558033321   -3.45810705948246   -0.59534618551783
C         2.79479895053589   -1.15370709156140   -1.81714062327684
C         2.42377058540793    0.00802439847169   -2.57387896035463
C         2.80331745997741    1.17573390992001   -1.81915631854014
C         3.41497523276765    0.73085432413897   -0.59242458618492
C         3.40963167103648   -0.71164982472318   -0.59228438148530
C         1.98135063052159    2.29493156875122   -1.81829087963538
C         0.75382103894866    2.29164422497363   -2.57863902486062
C        -0.23880927530374    3.01354359599882   -1.82687119963158
C         0.36931314469465    3.45285623747190   -0.59698917717180
C         1.74425041955489    3.01344664413990   -0.59534786419999
C        -1.56219675819624    2.58467826582035   -1.83472956941933
C        -1.94117609747946    1.42465120488267   -2.59394661803007
C        -2.93250371978559    0.70295685803873   -1.83469924250468
C        -3.16399090926415    1.42405191290733   -0.60761024315572
C        -2.32272500283126    2.58436534454079   -0.60965924948553
C        -2.92963279299260   -0.68182029548099   -1.82908526073713
C        -1.92796576090220   -1.41471597519517   -2.57501060449685
C        -1.57697673202024   -2.57348535446586   -1.83800944633837
C        -2.30770366390434   -2.55912715727841   -0.61999338170278
C        -3.16044976059891   -1.39949186426872   -0.60809080154329
C        -0.98206664909543   -0.71372967730428   -3.32741411550126
C        -0.97984721811313    0.71832479526471   -3.31690098983660
C         0.39156521471905    1.16591606662907   -3.30525179975989
C         1.23898490533354    0.00211505613478   -3.29823751331913
C         0.39662409927599   -1.16528015654995   -3.30228508257569
Cl       -1.60742439453999    0.00137306586000    5.36737960884241
Cl       -4.09786763373142    0.00749749019685    3.83014679452420