63
 energy: -142.116544054741 gnorm: 0.000072753675 xtb: 6.4.1 (a3dbbd7)
C        -1.30559383913934    0.00526281244157    3.58119845891672
C        -0.38261885812920   -1.15967977524407    3.28504942722927
C         0.97413480256302   -0.71233317627383    3.27113425735597
C         0.97320484197400    0.72541046440863    3.27187628718815
C        -0.38250602965309    1.17166904301165    3.28937174912920
C         2.33279816558373   -2.56977074355628    0.58853807993237
C         3.18441789091121   -1.40618164784033    0.58864130626621
C         2.94971895972661   -0.68510349241014    1.81360040025856
C         1.95050993120096   -1.40641511378681    2.56378506884461
C         1.57862669715312   -2.56613356068483    1.80810540187781
C         3.18746669154465    1.42486811099968    0.58843574466415
C         2.33754910359212    2.58956767186970    0.58706799074203
C         1.57652409884586    2.58412332882232    1.80945041364114
C         1.94759647594740    1.42142289574359    2.56075088531477
C         2.94816546817027    0.70208094471843    1.81321888458869
C        -0.36210584238800    3.44275557080255    0.58265597715071
C        -1.73295580266246    2.99810544826826    0.57894457839780
C        -1.97813917414741    2.28081352718779    1.79926288171291
C        -0.73704925997095    2.27973999802452    2.56801134127493
C         0.24841256553808    2.99765416036804    1.80713386596344
C        -3.37170518095801    0.72913700483339    0.58105716014591
C        -3.37079864342381   -0.70949733373764    0.58090939134505
C        -2.78781168821055   -1.15876130110638    1.80193447772145
C        -2.63501005208677    0.00566933672732    2.75849221651630
C        -2.78420066546155    1.17366639136632    1.80312938147418
C        -1.73832564127942   -2.99035036994948    0.57907937588391
C        -0.35484363036407   -3.42549466836684    0.57223275194374
C         0.25005035242141   -2.97854349457499    1.79813225191234
C        -0.73594637089583   -2.26440975414305    2.55867542236903
C        -1.97682322417533   -2.26970512240414    1.78903582153865
C        -0.24427341670202   -3.21514125026879   -1.95330755494082
C         0.76425921764240   -2.28875678199868   -2.59468609235885
C         1.96080352344638   -2.27004407255958   -1.81860608313064
C         1.72328290695477   -2.98956335950771   -0.59213750848376
C         0.37546149341541   -3.45746446235623   -0.59466824044831
C         2.79524159954035   -1.15376910964603   -1.81745054556105
C         2.42389204461819    0.00793074553912   -2.57397760883447
C         2.80323153844342    1.17553193147878   -1.81914854048616
C         3.41491595350616    0.73071277701155   -0.59239285700772
C         3.40989638979393   -0.71178306901767   -0.59232500856146
C         1.98133307584661    2.29483757879330   -1.81834903821930
C         0.75379723887005    2.29153794204223   -2.57859132210080
C        -0.23886928980147    3.01340176996320   -1.82682399885044
C         0.36924512639059    3.45274357007713   -0.59696906931779
C         1.74416711203441    3.01331491301852   -0.59536008816007
C        -1.56223387373265    2.58456425881851   -1.83466429051839
C        -1.94125304613946    1.42442045037987   -2.59388330345753
C        -2.93261057332738    0.70297739207459   -1.83477521562991
C        -3.16408922655051    1.42412702725665   -0.60759369222422
C        -2.32272918702889    2.58429474848135   -0.60961570568282
C        -2.93032983403172   -0.68186434001821   -1.82937128310214
C        -1.92853453883956   -1.41431661434704   -2.57499450410734
C        -1.57806699492312   -2.57363161999455   -1.83832028661596
C        -2.30816697518908   -2.55871419878832   -0.61976674623060
C        -3.16114447118962   -1.39958163006055   -0.60817758142084
C        -0.98194790313234   -0.71404494083109   -3.32697877719024
C        -0.97977750068127    0.71815205733122   -3.31678374735550
C         0.39162739399180    1.16598607946900   -3.30554733488176
C         1.23919100572756    0.00232561802819   -3.29870603325332
C         0.39680215045307   -1.16511057511765   -3.30226633825425
Cl       -1.60529251702679    0.00124803538533    5.36792651075130
Cl       -4.09948391009300    0.00718109706000    3.82825661412572
Cl       -0.36019136293767   -4.79016903556361   -2.89597621992433
