62
 energy: -137.471963875420 gnorm: 0.187919942400 xtb: 6.4.1 (a3dbbd7)
C        -1.23626340000000    0.00000000000000    3.32997640000000
C        -0.38202640000000   -1.17575640000000    3.32997640000000
C         1.00015810000000   -0.72665740000000    3.32997640000000
C         1.00015810000000    0.72665740000000    3.32997640000000
C        -0.38202640000000    1.17575640000000    3.32997640000000
C         2.34433560000000   -2.60145750000000    0.59464210000000
C         3.19857260000000   -1.42570110000000    0.59464210000000
C         2.96246730000000   -0.69904370000000    1.83090550000000
C         1.96230920000000   -1.42570110000000    2.59495830000000
C         1.58028280000000   -2.60145750000000    1.83090550000000
C         3.19857260000000    1.42570110000000    0.59464210000000
C         2.34433560000000    2.60145750000000    0.59464210000000
C         1.58028280000000    2.60145750000000    1.83090550000000
C         1.96230920000000    1.42570110000000    2.59495830000000
C         2.96246730000000    0.69904370000000    1.83090550000000
C        -0.36750900000000    3.48258920000000    0.59464210000000
C        -1.74969350000000    3.03349030000000    0.59464210000000
C        -1.98579880000000    2.30683290000000    1.83090550000000
C        -0.74953540000000    2.30683290000000    2.59495830000000
C         0.25062270000000    3.03349030000000    1.83090550000000
C        -3.42570570000000    0.72665740000000    0.59464210000000
C        -3.42570570000000   -0.72665740000000    0.59464210000000
C        -2.80757400000000   -1.17575640000000    1.83090550000000
C        -2.42554760000000    0.00000000000000    2.59495830000000
C        -2.80757400000000    1.17575640000000    1.83090550000000
C        -1.74969350000000   -3.03349030000000    0.59464210000000
C        -0.36750900000000   -3.48258920000000    0.59464210000000
C         0.25062270000000   -3.03349030000000    1.83090550000000
C        -0.74953540000000   -2.30683290000000    2.59495830000000
C        -1.98579880000000   -2.30683290000000    1.83090550000000
C        -0.25062270000000   -3.03349030000000   -1.83090550000000
C         0.74953540000000   -2.30683290000000   -2.59495830000000
C         1.98579880000000   -2.30683290000000   -1.83090550000000
C         1.74969350000000   -3.03349030000000   -0.59464210000000
C         0.36750900000000   -3.48258920000000   -0.59464210000000
C         2.80757400000000   -1.17575640000000   -1.83090550000000
C         2.42554760000000    0.00000000000000   -2.59495830000000
C         2.80757400000000    1.17575640000000   -1.83090550000000
C         3.42570570000000    0.72665740000000   -0.59464210000000
C         3.42570570000000   -0.72665740000000   -0.59464210000000
C         1.98579880000000    2.30683290000000   -1.83090550000000
C         0.74953540000000    2.30683290000000   -2.59495830000000
C        -0.25062270000000    3.03349030000000   -1.83090550000000
C         0.36750900000000    3.48258920000000   -0.59464210000000
C         1.74969350000000    3.03349030000000   -0.59464210000000
C        -1.58028280000000    2.60145750000000   -1.83090550000000
C        -1.96230920000000    1.42570110000000   -2.59495830000000
C        -2.96246730000000    0.69904370000000   -1.83090550000000
C        -3.19857260000000    1.42570110000000   -0.59464210000000
C        -2.34433560000000    2.60145750000000   -0.59464210000000
C        -2.96246730000000   -0.69904370000000   -1.83090550000000
C        -1.96230920000000   -1.42570110000000   -2.59495830000000
C        -1.58028280000000   -2.60145750000000   -1.83090550000000
C        -2.34433560000000   -2.60145750000000   -0.59464210000000
C        -3.19857260000000   -1.42570110000000   -0.59464210000000
C        -1.00015810000000   -0.72665740000000   -3.32997640000000
C        -1.00015810000000    0.72665740000000   -3.32997640000000
C         0.38202640000000    1.17575640000000   -3.32997640000000
C         1.23626340000000    0.00000000000000   -3.32997640000000
C         0.38202640000000   -1.17575640000000   -3.32997640000000
Cl       -1.84886636902500    0.00000000000000    5.03315507598844
Cl        2.63138702254507   -4.58182402886703   -0.91304309929929
62
 energy: -137.515788962384 gnorm: 0.098979464250 xtb: 6.4.1 (a3dbbd7)
C        -1.25001156481638    0.00087866565412    3.35662860173691
C        -0.36373129560344   -1.18141398179678    3.32852320461087
C         1.00033784050351   -0.72088834436117    3.32029505693968
C         0.99922733729311    0.72843321155778    3.31810355435162
C        -0.36524515080283    1.18447475922701    3.32945627921804
C         2.34616964470201   -2.57916112238015    0.61528477059315
C         3.17707819268883   -1.40936119206029    0.59889623405229
C         2.95403786920873   -0.68806907798724    1.83200117729154
C         1.96241303847911   -1.41528833255261    2.59118732140803
C         1.58042781888369   -2.58274448943643    1.82654196735148
C         3.18606337369685    1.42316073710694    0.59191496846614
C         2.33682285058353    2.59023572632237    0.59086702074955
C         1.57915379560134    2.59276177534150    1.82291229280334
C         1.95937660338534    1.42624350234343    2.58527018272600
C         2.95198145427154    0.70170927848257    1.82605248191744
C        -0.36319659951104    3.46367419018318    0.59212120686028
C        -1.73920875232849    3.01751067347371    0.59221266799516
C        -1.97223903368956    2.29546602666291    1.81759806692863
C        -0.73549220565831    2.29514330710153    2.58226689404907
C         0.25552984704949    3.02288418166255    1.82391068911214
C        -3.42019124446325    0.72405645352744    0.57808672065172
C        -3.42148908650801   -0.72083378294381    0.57853931748036
C        -2.79536943397682   -1.16490494070723    1.80485548627431
C        -2.43392418940082    0.00129781634659    2.54861746514557
C        -2.79469039302968    1.16771669976812    1.80444302012781
C        -1.74728169376585   -3.01536293253384    0.59546551539367
C        -0.36959240970742   -3.45110748707153    0.59095292460496
C         0.25378177514255   -3.02349615359348    1.82803627803267
C        -0.73429902556814   -2.29569479186945    2.58198125787692
C        -1.97497441450755   -2.29425315809959    1.81844656428496
C        -0.25537611529768   -3.01046900371683   -1.81908846479348
C         0.74084289675708   -2.28699405855679   -2.58067235165046
C         1.96616336469401   -2.27817080444176   -1.82833714792148
C         1.78895988758022   -3.10354066268856   -0.60841506560243
C         0.34889910202143   -3.45432520696626   -0.59477791039883
C         2.78277812721421   -1.16008827856994   -1.82181437879791
C         2.41339981950099    0.00430631994550   -2.58922353648225
C         2.79248443907147    1.17006238641290   -1.82453787541131
C         3.40967752714392    0.72440709809429   -0.59347830569373
C         3.40665334866978   -0.71760418025775   -0.58992208958018
C         1.97452100370094    2.29655256025681   -1.82337218153995
C         0.74259825358845    2.29647884179636   -2.58313584617072
C        -0.25042005913468    3.02075631169613   -1.82352445101336
C         0.36630099585644    3.46460849508059   -0.59245668940834
C         1.74230660145084    3.01920556676104   -0.59408710213733
C        -1.57538480458829    2.59052638874421   -1.82281475350866
C        -1.95536783972964    1.42079689073966   -2.58420548954045
C        -2.95257345414308    0.69740410545923   -1.82691648585447
C        -3.18930284479438    1.42246719168815   -0.60001021066143
C        -2.33548346952002    2.59070150084841   -0.59510093835096
C        -2.95422248381502   -0.69395459166234   -1.82778428306394
C        -1.95852744247534   -1.41745597519216   -2.58496246799925
C        -1.58439120517211   -2.58732486595934   -1.82010398002185
C        -2.34201550039743   -2.58788506459027   -0.59497814659864
C        -3.19213447201587   -1.41908789983113   -0.59996341327854
C        -1.00031847207180   -0.72140646309316   -3.31598458679564
C        -0.99936124399686    0.72476963352542   -3.31577819081043
C         0.37662372467469    1.17173511927015   -3.31699541169310
C         1.22605708949242    0.00310369969863   -3.31991481207913
C         0.37633679931571   -1.16442013602623   -3.31997435109953
Cl       -1.87605844079651   -0.00915661888633    5.10271173611336
Cl        2.68739057258410   -4.68088954581382   -0.94173803050074
62
 energy: -137.534031723704 gnorm: 0.037870866232 xtb: 6.4.1 (a3dbbd7)
C        -1.28741012467098    0.00216277801225    3.47485620764036
C        -0.35327239189880   -1.17536018673588    3.28844681346550
C         0.99143552797740   -0.71323884650616    3.29341604867097
C         0.98891799979651    0.72929597196349    3.28828661952822
C        -0.35651206768386    1.18234565900521    3.28754708194604
C         2.34206465390352   -2.55971424806796    0.62391694164187
C         3.15645614153374   -1.40288710110358    0.59858181687839
C         2.94470652151696   -0.67994511566787    1.82904636211127
C         1.95954098387130   -1.40501403949348    2.57969909562906
C         1.57781505871849   -2.56032843926537    1.80806779452103
C         3.17605978025502    1.42310715729090    0.59025065076130
C         2.33220099489084    2.58225260453429    0.58757759636523
C         1.57639189542667    2.58736677572402    1.81354985786644
C         1.95584463216527    1.42877495763853    2.57183531589013
C         2.94306665807357    0.70441894673215    1.82093975502806
C        -0.36304028362585    3.45152472404892    0.58455196036919
C        -1.73316030201832    3.00392441271097    0.58682600858891
C        -1.96807931651101    2.28967972490082    1.80408351100414
C        -0.72901656322093    2.28234912087920    2.55433322224589
C         0.25566665557703    3.01389434875537    1.80998993884079
C        -3.41073340588888    0.72094644014332    0.56936060619823
C        -3.41038596214059   -0.71365545812761    0.56922747624407
C        -2.77844598154733   -1.14797392597211    1.79442572155599
C        -2.44116283507603    0.00227407132165    2.54203113959523
C        -2.77705391488149    1.15365525050182    1.79311653213090
C        -1.74238458127419   -2.99442985128418    0.59312510739248
C        -0.36972917541519   -3.43063516348351    0.58531241547099
C         0.25320364378961   -3.01429287390760    1.82018601638928
C        -0.72469606610287   -2.28199614639590    2.55469641905992
C        -1.97250940423267   -2.28662327347577    1.80589435016154
C        -0.25254062181399   -2.98651293240478   -1.79842430714340
C         0.73951334433893   -2.26559372333965   -2.56037719289315
C         1.95635328114374   -2.25900450755659   -1.82825301974049
C         1.83465119710582   -3.18710437939900   -0.63207104899433
C         0.33694470116954   -3.43468584369738   -0.59134024164157
C         2.76769393198613   -1.15309155889126   -1.81707126588831
C         2.40374655048508    0.00708185856353   -2.57896153595730
C         2.78078274348465    1.16515873528843   -1.81703350004431
C         3.39465418464813    0.71964738731347   -0.59092332157881
C         3.39679698939615   -0.71249339953082   -0.58727300657823
C         1.96651029571277    2.28943759882943   -1.81537258030949
C         0.73912124278884    2.28950634614255   -2.57342312081425
C        -0.24875685390856    3.01099405816143   -1.81982357914155
C         0.36530458606291    3.45157400608680   -0.59351620260759
C         1.73666178562273    3.00933464673113   -0.59416213423396
C        -1.57066010358617    2.58158661065613   -1.81759604342104
C        -1.94832929628573    1.41807277482177   -2.57792704033385
C        -2.94371447881812    0.69805291809297   -1.82596669438506
C        -3.17906482099059    1.41854000739080   -0.60360200873661
C        -2.33000653297454    2.58295031349460   -0.60012664231960
C        -2.94651716636709   -0.68828470856900   -1.82868207561058
C        -1.95338618301499   -1.40822058511850   -2.58001190175422
C        -1.58505331892994   -2.57272175541603   -1.81271793791880
C        -2.33851125183880   -2.57369145443823   -0.60137706545571
C        -3.18397650811987   -1.41065238178250   -0.60513227995851
C        -0.99706948702113   -0.71482797224632   -3.30613870334429
C        -0.99579884854990    0.72505602345948   -3.30608157223544
C         0.37536157952582    1.16979412022657   -3.30681862144509
C         1.21929580703906    0.00658915916302   -3.30944896786537
C         0.37557894538482   -1.15240980482118   -3.30941374138546
Cl       -1.91393409038613   -0.01534930818168    5.25427262491459
Cl        2.74509027892354   -4.78243455257213   -0.96827167768050
62
 energy: -137.536033970114 gnorm: 0.019943221117 xtb: 6.4.1 (a3dbbd7)
C        -1.29209747554149    0.00405131955976    3.49382433071375
C        -0.36343632913613   -1.17267576610168    3.30832426725295
C         0.98417120563518   -0.71209636517125    3.29487930935021
C         0.98089187692434    0.73093842511074    3.29381583055912
C        -0.36844830337621    1.18406201479593    3.31045444498749
C         2.34758081988986   -2.57425805320818    0.61299551712040
C         3.15949292114936   -1.40998225892152    0.59248245286905
C         2.94107808273235   -0.68164607990578    1.82229103864262
C         1.95302996807641   -1.40330873735659    2.57347837235091
C         1.58018943618880   -2.56399427713075    1.80237622063817
C         3.17568317342773    1.42415584258837    0.58809727335786
C         2.33183873374246    2.58460220260953    0.58603152205437
C         1.57386650085949    2.58663015204373    1.81281551985841
C         1.95014044009001    1.42745191714957    2.57184544200030
C         2.93920042629758    0.70414284831554    1.81802765484840
C        -0.36465385153664    3.45032545341596    0.58364560754968
C        -1.73500430495133    3.00440243636266    0.58597929714528
C        -1.97118153032081    2.29276512355687    1.80736931723646
C        -0.73574658758144    2.28321154052986    2.56609562921679
C         0.25126889802466    3.00700813051639    1.80981351296790
C        -3.40696859675348    0.72509224627583    0.57087993740738
C        -3.40617619289666   -0.70940227259039    0.57115614764457
C        -2.77659980492238   -1.14304928254545    1.80099506554440
C        -2.43741712481571    0.00571561093000    2.55569399876931
C        -2.77815845455190    1.15665748335611    1.80049123723841
C        -1.73376963004450   -2.98549760421971    0.59112423466414
C        -0.36154156809718   -3.43273429288181    0.58311764982389
C         0.25388822181825   -3.00835712775373    1.81937091330340
C        -0.72656551796377   -2.27720847478189    2.56371345310253
C        -1.97003650332091   -2.28150765477932    1.80749661892866
C        -0.24610636314232   -2.98911701572912   -1.79783996686539
C         0.74521422863465   -2.26927304338413   -2.56032289727014
C         1.96934723024017   -2.27863409657138   -1.83283066222148
C         1.84424462672645   -3.20117451723832   -0.63888620879081
C         0.35170666603820   -3.45141417397991   -0.59533094958716
C         2.77339423677062   -1.16198800088439   -1.82018087939418
C         2.40123161950248    0.00332734520979   -2.57701268092657
C         2.77923416780927    1.16426941456562   -1.81847113085772
C         3.39419665610421    0.71870469523086   -0.59280923036554
C         3.40054596151526   -0.71540675916326   -0.59098339660810
C         1.96557462887894    2.29044017717525   -1.81820185671108
C         0.73828107062096    2.29246298200823   -2.57798352364403
C        -0.25010713941394    3.01503663865145   -1.82404794537520
C         0.36390297011992    3.45358368850010   -0.59574304191039
C         1.73611640733034    3.01175164470761   -0.59675592384843
C        -1.57312321486037    2.58679488629664   -1.82245348156786
C        -1.95181389402944    1.42294656351347   -2.58403938416115
C        -2.94807686598087    0.70280258811229   -1.83082638768380
C        -3.18044807500863    1.42261965432612   -0.60579561628816
C        -2.33200276851025    2.58760134692667   -0.60307437871904
C        -2.94936132726143   -0.68519371957206   -1.83219918402451
C        -1.95337241186029   -1.40599471418381   -2.58181789426383
C        -1.57881547279113   -2.56889391093083   -1.81265685978657
C        -2.33422725717902   -2.56838794626498   -0.60200051204352
C        -3.18367685143072   -1.40657315419511   -0.60579614668842
C        -0.99695659958622   -0.71304663791129   -3.30831551721733
C        -0.99765637903480    0.72811648356508   -3.31135215959875
C         0.37458834068242    1.17211270350847   -3.31185573802521
C         1.21844844163943    0.00652137502942   -3.31018160971737
C         0.37622915071072   -1.15357077628036   -3.30739079447856
Cl       -1.92021825706762   -0.01705372893364    5.26179085601643
Cl        2.75170819830716   -4.79068852074036   -0.97320473783382
62
 energy: -137.536634209473 gnorm: 0.011133080322 xtb: 6.4.1 (a3dbbd7)
C        -1.29821035911017    0.00443047968765    3.51618419261165
C        -0.37077989659012   -1.17037827221048    3.31575814562054
C         0.97841435161164   -0.71148581432172    3.29163401645872
C         0.97506662795432    0.73106728251067    3.29215227417202
C        -0.37621906759852    1.18296121515405    3.31834947755429
C         2.34756531111170   -2.58025903400933    0.60496622632319
C         3.15999752016136   -1.41481666179674    0.58793403901966
C         2.93620321297324   -0.68243321485694    1.81652318476468
C         1.94740496501386   -1.40145845312904    2.56700415693571
C         1.57984971939966   -2.56528316374472    1.79719649886187
C         3.17639066022531    1.42554901584765    0.58672759189581
C         2.33270784009610    2.58633308653964    0.58457564770365
C         1.57313937986993    2.58645004726109    1.81159865458304
C         1.94664627802452    1.42588786248502    2.56957234977756
C         2.93640972519500    0.70376173443959    1.81527930350504
C        -0.36532563110719    3.44871188034216    0.58266867248653
C        -1.73600732934035    3.00484804764554    0.58506209431664
C        -1.97385034367638    2.29569257491843    1.80851449480674
C        -0.73897318957821    2.28200366107788    2.56933900751476
C         0.24949652843679    3.00208808227805    1.80856330612960
C        -3.40273323131135    0.72639856664378    0.57248929774570
C        -3.40124926502673   -0.70708151754049    0.57287265171760
C        -2.77398511105065   -1.14039412869055    1.80610412788572
C        -2.43239829747111    0.00700275233952    2.56349252774921
C        -2.77758838873468    1.15768195320259    1.80585478425691
C        -1.72939375524264   -2.98127854337906    0.58927783898869
C        -0.35744035448926   -3.43188402186753    0.58161530764660
C         0.25311992526848   -3.00421457163287    1.81911109149281
C        -0.72839427722890   -2.27446036230019    2.56742390681781
C        -1.96921568446438   -2.28081681647466    1.80752890517864
C        -0.24217106675209   -2.98931271861309   -1.79543672938954
C         0.74854145591184   -2.26967206515037   -2.55820151616742
C         1.97666033200724   -2.28906977813159   -1.83406026260351
C         1.85113234362948   -3.21271127621253   -0.64414192164397
C         0.36049230653004   -3.46028218467290   -0.59639673603809
C         2.77568691579342   -1.16599442681694   -1.82087198250504
C         2.39935788980895    0.00143197136486   -2.57483348288877
C         2.77856671469432    1.16366539142985   -1.81834364448402
C         3.39526155703120    0.71855412187839   -0.59363867584750
C         3.40456784539629   -0.71622721353678   -0.59318241931715
C         1.96595906887191    2.29149077438278   -1.81970439011905
C         0.73847995366954    2.29453980949602   -2.58015173005199
C        -0.25032618564232    3.01754379700048   -1.82632661602604
C         0.36373612476796    3.45507540964440   -0.59712897023830
C         1.73637814638262    3.01338128939519   -0.59849880406547
C        -1.57404550431131    2.58956686607689   -1.82492610467589
C        -1.95354424018611    1.42542942788953   -2.58691932087045
C        -2.94998938010822    0.70476226406381   -1.83240383031871
C        -3.18066845526537    1.42412363901029   -0.60630840199518
C        -2.33282352758774    2.58997348875423   -0.60477772031286
C        -2.95071256162174   -0.68427455733710   -1.83293803565434
C        -1.95283353026721   -1.40490033485186   -2.58162087100084
C        -1.57474426400881   -2.56659571255372   -1.81204579648500
C        -2.33186906909559   -2.56614730803591   -0.60239132630077
C        -3.18345142821003   -1.40474002851117   -0.60532029842761
C        -0.99629840045642   -0.71191773424193   -3.30787971737741
C        -0.99811725670193    0.72999971037144   -3.31360863253901
C         0.37451025245541    1.17397334904500   -3.31411697298276
C         1.21808570296885    0.00690792236490   -3.30957609949211
C         0.37666934081138   -1.15368814237235   -3.30470646722709
Cl       -1.92683067209745   -0.01683600132111    5.27019430886945
Cl        2.75621238178073   -4.79449744509476   -0.97499862965582
62
 energy: -137.536799672112 gnorm: 0.006702230453 xtb: 6.4.1 (a3dbbd7)
C        -1.30057723033130    0.00410182938950    3.52609709858828
C        -0.37295937533688   -1.16960415627942    3.31474933145094
C         0.97679977736532   -0.71166887075243    3.28921583545899
C         0.97365004291014    0.73054517236242    3.28951401578641
C        -0.37803578486421    1.18163393717429    3.31671388517552
C         2.34567321904295   -2.57988748699671    0.60239584340279
C         3.15947477395430   -1.41597984245528    0.58668574030123
C         2.93465045946017   -0.68267805603317    1.81509393907204
C         1.94598106013483   -1.40096312454588    2.56485397604558
C         1.57901472870534   -2.56531061428334    1.79557479410736
C         3.17726072347156    1.42609922994341    0.58651568095333
C         2.33358368176453    2.58686984065023    0.58427899525807
C         1.57335031620707    2.58651994768339    1.81120756274842
C         1.94616270172056    1.42502784824576    2.56833195526109
C         2.93634527079961    0.70351820835276    1.81468409275723
C        -0.36544779364886    3.44847410982018    0.58259579278032
C        -1.73644963912366    3.00562625598419    0.58501657519175
C        -1.97483607136769    2.29698973751514    1.80863123302436
C        -0.73928964056554    2.28148351447086    2.56883606947323
C         0.24948116711006    3.00086572877256    1.80806098448019
C        -3.40115990245780    0.72596309784353    0.57332936188554
C        -3.39926756615725   -0.70690716342316    0.57355306644211
C        -2.77274733937425   -1.14022205286146    1.80785567676852
C        -2.42898740868210    0.00672197140436    2.56450157424029
C        -2.77677565279805    1.15737332484235    1.80752856228518
C        -1.72927443551022   -2.98194658401215    0.58873271919635
C        -0.35734493905240   -3.43163805727994    0.58140798645706
C         0.25248902154478   -3.00346436452991    1.81927089255710
C        -0.72935803721652   -2.27463165062429    2.56774938091666
C        -1.96972893696382   -2.28249554160372    1.80747648265200
C        -0.24168510514631   -2.98908744351930   -1.79433083445498
C         0.74896296064712   -2.26909804707420   -2.55707669828221
C         1.97755768402809   -2.29012068283586   -1.83325978405754
C         1.85234770430982   -3.21520776923456   -0.64525252862667
C         0.36201440915914   -3.46136962437323   -0.59571876951275
C         2.77581321890528   -1.16612063590023   -1.82068992768656
C         2.39907319293173    0.00119289520934   -2.57429921816493
C         2.77894991641158    1.16364843743640   -1.81808449202716
C         3.39656537047268    0.71878293813560   -0.59382386454718
C         3.40642776881320   -0.71591635703459   -0.59377989243963
C         1.96662855890305    2.29192713295631   -1.81991868693651
C         0.73885783562270    2.29492638298458   -2.58029320602477
C        -0.25011892686608    3.01796785604187   -1.82647299321742
C         0.36398847354867    3.45572563056314   -0.59717457479524
C         1.73675261300992    3.01380838283808   -0.59868471114509
C        -1.57400098008470    2.58989332345173   -1.82507480619443
C        -1.95364243997763    1.42555565031760   -2.58701319652772
C        -2.94990084751833    0.70463416195601   -1.83185805550725
C        -3.18052345742232    1.42395492573321   -0.60584322489460
C        -2.33287247769994    2.59042115185568   -0.60483117929311
C        -2.95071751374833   -0.68463898175095   -1.83232774022212
C        -1.95259556070337   -1.40505269297879   -2.58126571470252
C        -1.57402673802913   -2.56661899873512   -1.81206790721488
C        -2.33169848822004   -2.56670469251326   -0.60237806600518
C        -3.18353956894427   -1.40491343980964   -0.60480409906964
C        -0.99600073527870   -0.71190567234024   -3.30741068136993
C        -0.99792640902247    0.73023693302765   -3.31372866592352
C         0.37465924658323    1.17440095785315   -3.31430166297639
C         1.21827489174888    0.00706431945544   -3.30935535868232
C         0.37671098266794   -1.15372109376204   -3.30391281494079
Cl       -1.92911042939149   -0.01496142272125    5.26828368221830
Cl        2.75561831306949   -4.79094374287364   -0.97359745480403
62
 energy: -137.536875892911 gnorm: 0.003255064567 xtb: 6.4.1 (a3dbbd7)
C        -1.30142400844516    0.00370512954581    3.53099431640213
C        -0.37303471012319   -1.16950862938937    3.31190648956413
C         0.97673874770195   -0.71210612170093    3.28792182844270
C         0.97380840937943    0.73001996625779    3.28768501304115
C        -0.37767243835859    1.18071129332215    3.31327383871786
C         2.34405131935661   -2.57794018255631    0.60203076445369
C         3.15893980936005   -1.41577570509314    0.58671392574808
C         2.93480390058312   -0.68277946651339    1.81539352456205
C         1.94631682880920   -1.40109461474460    2.56470563985705
C         1.57842686759837   -2.56494111833272    1.79538578803544
C         3.17788876894755    1.42614928548795    0.58662361227358
C         2.33412877455621    2.58680037735473    0.58442306539399
C         1.57366333132822    2.58654420888896    1.81119479676099
C         1.94659164975738    1.42461000528522    2.56787855031742
C         2.93710779593380    0.70336081727402    1.81484324186876
C        -0.36540895153737    3.44877027860417    0.58288210031877
C        -1.73666163486969    3.00626394986297    0.58540725119823
C        -1.97511703910955    2.29747700037846    1.80865393645730
C        -0.73882343492133    2.28154303683713    2.56805113496582
C         0.24985806218775    3.00096705534936    1.80801568265611
C        -3.40090077661444    0.72526037530233    0.57373865153844
C        -3.39884041638959   -0.70730933738162    0.57375250378323
C        -2.77219050397176   -1.14064355801706    1.80813694368808
C        -2.42692689205967    0.00611510034253    2.56336850608873
C        -2.77607143035343    1.15671449322410    1.80776760440895
C        -1.73033651274311   -2.98373262434662    0.58883251222606
C        -0.35833210511079   -3.43205887003396    0.58158331959210
C         0.25222300247558   -3.00383621213122    1.81937823319894
C        -0.72974986053415   -2.27565851071871    2.56725280897352
C        -1.97056330431028   -2.28432892484152    1.80761096576574
C        -0.24226297150499   -2.98899042535748   -1.79406782319622
C         0.74853485434900   -2.26860372916270   -2.55672727114216
C         1.97653338106412   -2.28841861665665   -1.83234386568854
C         1.85207139153424   -3.21491404423620   -0.64496516054996
C         0.36110468848148   -3.46013696763858   -0.59487664974828
C         2.77557841786701   -1.16539097911678   -1.82061997499109
C         2.39935328600633    0.00142361511872   -2.57448204075239
C         2.77951972898549    1.16382244840064   -1.81802061288848
C         3.39746979278599    0.71892532283223   -0.59388980165165
C         3.40711334291529   -0.71552077816568   -0.59387384566884
C         1.96705556593972    2.29198224192243   -1.81971407554935
C         0.73907925969125    2.29471293447882   -2.57988336916728
C        -0.24992078970013    3.01769079538139   -1.82600019673468
C         0.36422929654555    3.45584995175356   -0.59678771190084
C         1.73699488161352    3.01373498300653   -0.59835674698604
C        -1.57378183106987    2.58951374009304   -1.82451493834629
C        -1.95329710522206    1.42505670474900   -2.58631454920643
C        -2.94937647907769    0.70410663028678   -1.83097379653600
C        -3.18031142177859    1.42347977661010   -0.60524309023534
C        -2.33274096724941    2.59028079394166   -0.60437519791724
C        -2.95038708388715   -0.68510713350772   -1.83163442124342
C        -1.95255439543262   -1.40543588814437   -2.58106183679247
C        -1.57446580969543   -2.56726935085064   -1.81228037653620
C        -2.33219881702159   -2.56782450638633   -0.60224490423349
C        -3.18360795574596   -1.40549870909711   -0.60447211211966
C        -0.99594983291944   -0.71217806567879   -3.30723456761420
C        -0.99770496029185    0.72998221524166   -3.31327353757875
C         0.37476709010501    1.17426861554138   -3.31391705338071
C         1.21855121553543    0.00709221395570   -3.30941165357296
C         0.37664849775878   -1.15376464599557   -3.30401923784451
Cl       -1.92945378188367   -0.01267537385412    5.26136121536706
Cl        2.75343691629914   -4.78531629584849   -0.97107536920348
62
 energy: -137.536891823667 gnorm: 0.001633283752 xtb: 6.4.1 (a3dbbd7)
C        -1.30124935165748    0.00361016391058    3.53091884755735
C        -0.37218606346547   -1.16980520108922    3.31087747207602
C         0.97724640108426   -0.71228687059632    3.28813258795186
C         0.97438455536296    0.72996246774464    3.28776402105888
C        -0.37675093725313    1.18075722203743    3.31219377330454