63
 energy: -142.082908586950 gnorm: 0.137375773297 xtb: 6.4.1 (a3dbbd7)
C        -1.29585809770389    0.00401118895665    3.54517689253707
C        -0.36796043462932   -1.17243305037605    3.30515820978008
C         0.98298838983527   -0.72191219207564    3.27512267938171
C         0.98156472667820    0.71960753568128    3.26971969810914
C        -0.37066843460465    1.17924059903467    3.30150764336582
C         2.33648296603916   -2.58548060331365    0.57950289353032
C         3.18657767574002   -1.41946403927647    0.57781419519059
C         2.94957050639235   -0.69854930596759    1.80123308070154
C         1.95308396824160   -1.41752165468763    2.55613481575760
C         1.57961582989334   -2.57968580837377    1.80518673242103
C         3.18767024140451    1.40991878522763    0.57593180000620
C         2.33807592116844    2.57402574447607    0.57591940981122
C         1.57683795432701    2.56605672107525    1.79975339071644
C         1.95304946465436    1.40835201077487    2.55205927518980
C         2.95072023087345    0.68875745016373    1.80098024572921
C        -0.36516779407368    3.42666371337356    0.57921714423118
C        -1.72924376763824    3.01648005769000    0.58287705261872
C        -2.09463355992581    2.46231283092052    1.94730853815858
C        -0.73027134402217    2.28553619303067    2.58224921102021
C         0.24829448349984    2.97593693112150    1.80334175266563
C        -3.37466967425340    0.70300551354290    0.57574930054980
C        -3.39003092747716   -0.73268815647906    0.56838248265369
C        -2.76818811332164   -1.16356142379097    1.78871572221350
C        -2.38904763706855    0.02437925876362    2.53264263719760
C        -2.74834472563595    1.12995086275151    1.81420011519069
C        -1.73481952350512   -3.00995345714269    0.57938225060336
C        -0.36149853481650   -3.44686666227317    0.58178847315895
C         0.25217194581416   -2.99475012292755    1.80551621994623
C        -0.72930832442940   -2.27346636839910    2.56467955448571
C        -1.97147545426586   -2.28746259170963    1.79868366133100
C        -0.24419850626392   -3.01431906333444   -1.82647673840836
C         0.74940205407495   -2.29291975825760   -2.58286291053874
C         1.97453700933417   -2.29239152843074   -1.82543977586922
C         1.74139873400736   -3.01127177410490   -0.59946235558356
C         0.36858334367966   -3.45436466613801   -0.59762914044760
C         2.79442417392884   -1.17031401259636   -1.82833550603033
C         2.41574661888024   -0.00512369156855   -2.58546959716668
C         2.79806943075341    1.16104826420258   -1.83045397172065
C         3.41356646771945    0.71553904943849   -0.60565027142670
C         3.41126633561149   -0.72579612454708   -0.60436594395851
C         1.98256115248497    2.28538932455247   -1.82964816243281
C         0.75350030257848    2.28551308199782   -2.58573232036207
C        -0.23508280213456    3.00436687409655   -1.82344140492918
C         0.37359850932028    3.44286488622179   -0.60220138863872
C         1.74684322376492    3.00246743943424   -0.60372642363492
C        -1.55566653231806    2.56818250386052   -1.80941223575869
C        -1.93859434646944    1.40592010794080   -2.57168095880615
C        -2.93551210457882    0.68461262535792   -1.82146846772098
C        -3.16898901542976    1.39767486975662   -0.59605965548237
C        -2.30435127723071    2.57332623923171   -0.58497549467516
C        -2.94114405309208   -0.70773319324488   -1.83440725641731
C        -1.94505174577217   -1.42387954875747   -2.59102123506710
C        -1.56548890447542   -2.59170746585215   -1.83211639425372
C        -2.32839595515909   -2.59312664323360   -0.60918315818311
C        -3.17773883494341   -1.43218193772331   -0.61434027474195
C        -0.98775846759569   -0.72638522820754   -3.31322849837523
C        -0.98659864719709    0.71557045430270   -3.30737103326374
C         0.38544609985482    1.16109326139683   -3.31071431261235
C         1.23106807703669   -0.00470839638716   -3.31198800126459
C         0.38446650889097   -1.17000629330740   -3.31255499443923
Cl       -1.95494402230001   -0.00808767739961    5.23350834621500
Cl       -3.13453400437008    3.62205440029917    2.87428256883422
Cl        3.53262473355413   -3.90628256201230    0.89703566019225
63
 energy: -142.106875108417 gnorm: 0.059212926287 xtb: 6.4.1 (a3dbbd7)
C        -1.29823077273598    0.00774095590726    3.54763363927284
C        -0.37066246383847   -1.16821956725250    3.31103738379693
C         0.97744474534863   -0.71663904829712    3.28095595918646
C         0.97935290197393    0.72412458389071    3.27238681747596
C        -0.37294558044714    1.18296936875993    3.30400250416883
C         2.40898307711336   -2.66382651263252    0.59982189010922
C         3.18321077517876   -1.40314175344464    0.57833688908051
C         2.94171235643836   -0.69075751119136    1.79644180362179
C         1.94394692315707   -1.41041452262990    2.55175707797305
C         1.56903219279723   -2.56862668408585    1.81204720927123
C         3.18928915555447    1.41728189346224    0.57887271045677
C         2.33731753765693    2.57792337400305    0.57770468472079
C         1.57557842068285    2.57031608699864    1.80182168561774
C         1.95137465563964    1.41357732506292    2.55432463220022
C         2.95061067799081    0.69783629605329    1.80168697112710
C        -0.36654996283071    3.42756205436994    0.57988078909550
C        -1.72983382789099    3.01774975920684    0.58339744069683
C        -2.09595370247698    2.46368941757928    1.94752654698042
C        -0.73207462610355    2.28816940871776    2.58324474014375
C         0.24657961743405    2.97842350198201    1.80421570157601
C        -3.37492896232283    0.70333207568951    0.57574775489615
C        -3.39099879013882   -0.73146776375459    0.56861983017057
C        -2.76851021147658   -1.16195126184929    1.78915277750437
C        -2.38999673754706    0.02595046692062    2.53358257237478
C        -2.74884190142758    1.13081649743188    1.81432514015438
C        -1.73396279155050   -3.00814714220799    0.57878676467424
C        -0.36527003592796   -3.44297720087658    0.57955007373771
C         0.24730780721535   -2.98112695863608    1.80474546353683
C        -0.73341018118087   -2.26938065911572    2.56906296658902
C        -1.97190317269940   -2.28509481461685    1.79933329116579
C        -0.25229445888960   -3.01228983094497   -1.83766976351794
C         0.73984817779382   -2.29226329148183   -2.59394332007330
C         1.96038449144525   -2.28811614217508   -1.82725320801073
C         1.73441550726154   -3.02482213377974   -0.62082356374392
C         0.36461610073656   -3.44279360288783   -0.60588538691662
C         2.78874008220474   -1.16741473422145   -1.83067211098241
C         2.41331889358713   -0.00536356985856   -2.58512544016576
C         2.79633989805944    1.16205738275212   -1.82921346076713
C         3.41474992446396    0.72221226203765   -0.60482832903116
C         3.40096448143209   -0.71580105173526   -0.60123204908403
C         1.98107950330181    2.28586360078256   -1.82903777696140
C         0.75300519005564    2.28643801619040   -2.58635709543772
C        -0.23522179525479    3.00416304534259   -1.82354410605265
C         0.37324236109686    3.44367119173300   -0.60202742366057
C         1.74545537454541    3.00377610956498   -0.60288646533959
C        -1.55592978325040    2.56840874350919   -1.80941699934144
C        -1.93947045265729    1.40694634828509   -2.57265424956593
C        -2.93613005412670    0.68567993127991   -1.82212196343882
C        -3.16926053250224    1.39887722755639   -0.59626643740786
C        -2.30476952735897    2.57338285680975   -0.58533226077212
C        -2.94311334452686   -0.70594688949491   -1.83574505058485
C        -1.94940594706602   -1.42155000509297   -2.59518824901362
C        -1.57177731980553   -2.59030952120891   -1.83784209035400
C        -2.33155052801005   -2.59166819568338   -0.61187072544040
C        -3.17846243625428   -1.43157298000186   -0.61510130758885
C        -0.99219150221429   -0.72416615798528   -3.31790156888516
C        -0.98849580760245    0.71734590861422   -3.30952543551735
C         0.38438180131818    1.16148991300637   -3.31257925669235
C         1.22784850409892   -0.00346701988316   -3.31594874059988
C         0.37922317337785   -1.16808677959485   -3.32041046218656
Cl       -1.95717593078781   -0.00634025767713    5.23547374871430
Cl       -3.13605799432165    3.62278227816831    2.87477901774695
Cl        3.63459833959856   -4.01135054059168    0.92749159058143
63
 energy: -142.112786084513 gnorm: 0.013700065194 xtb: 6.4.1 (a3dbbd7)
C        -1.30066614965820    0.01118559949755    3.54953020022420
C        -0.37152202295946   -1.16318463626312    3.30875244285628
C         0.97360879529772   -0.71388033949062    3.27721951694301
C         0.97690708284654    0.72687083688688    3.27174857724026
C        -0.37536195239283    1.18677223091871    3.30504944545228
C         2.47336058176032   -2.73109095552253    0.61983247094521
C         3.18785354765485   -1.40355067230965    0.57926099248241
C         2.93535861126566   -0.69144096835891    1.78658386560430
C         1.93713153241017   -1.41118556828155    2.54105666855996
C         1.57050085086878   -2.57094728765553    1.81542702383646
C         3.18481608652649    1.41957361453629    0.58032798993157
C         2.33562346081275    2.58193714667907    0.57873363576429
C         1.57308671673395    2.57404672718448    1.80286879949346
C         1.94879134438107    1.41629706550044    2.55376658250742
C         2.94693947086342    0.69982749520797    1.79902155879996
C        -0.36951182291905    3.42959766507957    0.58036154334530
C        -1.73227982445923    3.02081710809060    0.58363667350468
C        -2.09851752971634    2.46696255098116    1.94778140779538
C        -0.73480322653454    2.29208552807803    2.58410588315981
C         0.24379315229044    2.98219120012520    1.80488028244480
C        -3.37565383259385    0.70526923105315    0.57537160533338
C        -3.39239509970263   -0.72857567020548    0.56833302597978
C        -2.76839309886673   -1.15931186730733    1.78835523084281
C        -2.39123507293184    0.02873927650030    2.53398721542443
C        -2.74992680353793    1.13329548662502    1.81424283803531
C        -1.73067520799519   -3.00540533612054    0.57705177247939
C        -0.36656546685257   -3.44397452099955    0.57916463434622
C         0.25174959445410   -2.97663939057989    1.80296036691918
C        -0.73116345048204   -2.26357742546832    2.56371582447644
C        -1.97086607218488   -2.28151930382224    1.79748800467625
C        -0.25434577456641   -3.00623160174303   -1.83809807848704
C         0.73589335672056   -2.28779542392321   -2.59340939532157
C         1.95475197063930   -2.28569531976379   -1.81952211127063
C         1.72989442491063   -3.02261794861559   -0.62400710758113
C         0.36930626037156   -3.43277465463858   -0.60503244161571
C         2.78823008401159   -1.16740173598975   -1.83264613163229
C         2.40942772542194   -0.00695856066150   -2.58250743772755
C         2.79156196589392    1.16200551910739   -1.82726896592670
C         3.40685406388118    0.72054060774773   -0.60249875680784
C         3.39676685841319   -0.71726715784001   -0.59623207258429
C         1.97807425018009    2.28680889953684   -1.82853824562937
C         0.75048352630771    2.28863442902472   -2.58677367847406
C        -0.23741972916755    3.00541795790650   -1.82383334656014
C         0.37119330579930    3.44494555791423   -0.60193334638428
C         1.74281198823064    3.00606957512222   -0.60238374241984
C        -1.55834339368405    2.57051276146006   -1.80972185895948
C        -1.94203816552269    1.40947945692344   -2.57391296747548
C        -2.93836733545819    0.68811373171478   -1.82300645807017
C        -3.17086562119768    1.40172623286489   -0.59671947698940
C        -2.30692577761389    2.57525764615504   -0.58585572359375
C        -2.94594402466293   -0.70301691960047   -1.83732729468762
C        -1.95356478539308   -1.41891199602486   -2.59860172590706
C        -1.57415733841885   -2.58629017790741   -1.83950091536416
C        -2.33412667535378   -2.58854194014196   -0.61361943555128
C        -3.17933420607479   -1.42952621598047   -0.61579418971173
C        -0.99638577456220   -0.72141777288016   -3.32194214912612
C        -0.99188646116907    0.72024817007447   -3.31178273835911
C         0.38202668111465    1.16305072931782   -3.31366100335019
C         1.22427822812335   -0.00097147450916   -3.31820902768222
C         0.37549442677534   -1.16504197165817   -3.32217593604918
Cl       -1.96155393622641   -0.00094316013008    5.23663984715086
Cl       -3.13997205581727    3.62496564103862    2.87477230697060
Cl        3.70676925704985   -4.09209392768117    0.94383129705808
63
 energy: -142.113092471939 gnorm: 0.008222190506 xtb: 6.4.1 (a3dbbd7)
C        -1.30122973421435    0.01235140487493    3.54928275243038
C        -0.37127830838317   -1.16181957533500    3.30689677035501
C         0.97312979689484   -0.71339927396408    3.27331385568920
C         0.97566306848349    0.72740901241604    3.26999531153917
C        -0.37637311327355    1.18847421624157    3.30503325173822
C         2.48942948385065   -2.74674499024194    0.62582021796996
C         3.19495194801796   -1.41031327133586    0.58036967753036
C         2.93494683195797   -0.69399672676076    1.78337375936095
C         1.93650731219013   -1.41371128901416    2.53759610114809
C         1.57629758435135   -2.57839804554395    1.81740643488962
C         3.18183010285937    1.41872198729688    0.58032614205040
C         2.33433209307886    2.58290663258854    0.57876386378595
C         1.57178128119161    2.57530621822835    1.80283371801857
C         1.94714221009417    1.41637957422842    2.55230071470108
C         2.94418984004506    0.69817294584564    1.79740623380073
C        -0.37105607206430    3.43123870902349    0.58057699586569
C        -1.73376935231621    3.02267875036428    0.58371172917316
C        -2.10012196020558    2.46900543843688    1.94803654374552
C        -0.73620397602611    2.29426427678177    2.58471623715144
C         0.24250566127713    2.98426541413715    1.80520780521050
C        -3.37633082653647    0.70658313527112    0.57513389928123
C        -3.39289378127143   -0.72704208633002    0.56823740414527
C        -2.76755443573924   -1.15783436356889    1.78756066339483
C        -2.39146742533091    0.03034535238987    2.53348643307608
C        -2.75075884450121    1.13493214927503    1.81409095186181
C        -1.72944209215517   -3.00464242468598    0.57643886871501
C        -0.36699416223016   -3.44616681345037    0.57995004601323
C         0.25536534266814   -2.97941676919562    1.80331554652206
C        -0.72839823933654   -2.26187978976565    2.56041478050179
C        -1.96907538837250   -2.27952004395806    1.79597423656538
C        -0.25357837125074   -3.00299892005794   -1.83545886585897
C         0.73590524883097   -2.28521238428533   -2.59040938947760
C         1.95613883523290   -2.28608397302558   -1.81583208474443
C         1.73066030079617   -3.01973118567253   -0.62031387308760
C         0.37282613314604   -3.43144702412801   -0.60245718328197
C         2.79005866559973   -1.16787053724520   -1.83409683036419
C         2.40811237088327   -0.00764404775852   -2.58177911706615
C         2.78856512581727    1.16100753046114   -1.82580567723789
C         3.40236635160079    0.71756486308396   -0.60108205212099
C         3.39881493862763   -0.72104487400638   -0.59493025157499
C         1.97632131613159    2.28674924262841   -1.82798550248938
C         0.74910831252562    2.28979483500614   -2.58683117471196
C        -0.23873810380336    3.00649395989074   -1.82394137773261
C         0.36985441741754    3.44604549013288   -0.60188111258143
C         1.74110936573398    3.00677416770815   -0.60218965232454
C        -1.55979069912073    2.57189735619432   -1.80995616732587
C        -1.94335657936543    1.41082369603068   -2.57453734981483
C        -2.93967399101598    0.68932451920628   -1.82342725349315
C        -3.17206059135362    1.40329105453536   -0.59701207043939
C        -2.30821674831017    2.57657889150979   -0.58605941728943
C        -2.94711555782422   -0.70178359443930   -1.83774087099387
C        -1.95456215494435   -1.41783176142072   -2.59908227628294
C        -1.57384271413474   -2.58423121360836   -1.83890745193323
C        -2.33461887448516   -2.58701988476382   -0.61358994487716
C        -3.17954814001969   -1.42838154974202   -0.61576133421186
C        -0.99749099870528   -0.72029689538434   -3.32268069233372
C        -0.99326280550746    0.72159539451018   -3.31262426390155
C         0.38102439323334    1.16404432100587   -3.31381207857838
C         1.22317225074008    0.00023397156404   -3.31844619266610
C         0.37464422946486   -1.16380228774939   -3.32127325566777
Cl       -1.96343254217396    0.00135760237717    5.23561604104806
Cl       -3.14324261290239    3.62652784722900    2.87390071303016
Cl        3.71729589746658   -4.10741058725773    0.94216083543942
63
 energy: -142.113193338077 gnorm: 0.004731998296 xtb: 6.4.1 (a3dbbd7)
C        -1.30158684039807    0.01286242505850    3.54926432640271
C        -0.37135347463829   -1.16126924300638    3.30634829614385
C         0.97280582099306   -0.71294605608173    3.27087673743377
C         0.97497310007961    0.72767175276754    3.26880576730897
C        -0.37687689900073    1.18926395792966    3.30512675021076
C         2.49625212283281   -2.75317602184137    0.62862174147053
C         3.19868745889989   -1.41436208245237    0.58073268257538
C         2.93424564795213   -0.69501765611199    1.78136286935886
C         1.93566108506000   -1.41473318112290    2.53545465709024
C         1.57947875324108   -2.58277073430029    1.81815459958413
C         3.18049435128076    1.41838375899875    0.58018306487891
C         2.33386789122489    2.58360251017992    0.57870204802191
C         1.57140641142218    2.57612902881218    1.80274920475861
C         1.94621558589968    1.41640065613997    2.55133372083193
C         2.94229273371994    0.69723372110610    1.79641532148399
C        -0.37153783354427    3.43198739344730    0.58072503968261
C        -1.73416559050059    3.02332545785877    0.58381817912335
C        -2.10082258720887    2.46989169736647    1.94828448530679
C        -0.73675555634695    2.29536142969033    2.58525519152910
C         0.24212219013659    2.98540223559870    1.80550855766377
C        -3.37658847492853    0.70699135504482    0.57512531922618
C        -3.39313841238685   -0.72653806533103    0.56837445350384
C        -2.76715363902743   -1.15732775481790    1.78735414023465
C        -2.39139222905913    0.03096178524250    2.53311845622879
C        -2.75111500914527    1.13560861413045    1.81410207972865
C        -1.72930991821221   -3.00475810761591    0.57643910260763
C        -0.36801978876918   -3.44780638326526    0.58076923192977
C         0.25689921282831   -2.98107125367827    1.80366420721036
C        -0.72688272158897   -2.26114470563757    2.55890761481377
C        -1.96802175243617   -2.27856232871463    1.79530806317797
C        -0.25296192368249   -3.00098220867700   -1.83350780081786
C         0.73607337330069   -2.28362103681463   -2.58822765626972
C         1.95743781112021   -2.28604623415585   -1.81356931154138
C         1.73064623591934   -3.01626283101782   -0.61702353654199
C         0.37479578291072   -3.43076239789249   -0.60033326105156
C         2.79160928378580   -1.16770078076474   -1.83555960336674
C         2.40800716278445   -0.00778782996404   -2.58193761465520
C         2.78710915498946    1.16039624186972   -1.82500461091231
C         3.40007235816903    0.71596870824289   -0.60019975186905
C         3.39990676573688   -0.72286686628923   -0.59448921762099
C         1.97581103540584    2.28673061785105   -1.82780883074415
C         0.74876301010775    2.29028394874143   -2.58692774284104
C        -0.23907760449907    3.00688931732996   -1.82401037162397
C         0.36943467649751    3.44661100163407   -0.60189371371958
C         1.74041424889329    3.00706844563228   -0.60215555996918
C        -1.56013706368809    2.57223551413557   -1.80999204160547
C        -1.94359284147824    1.41107356050310   -2.57474825377192
C        -2.93999886893179    0.68950025130465   -1.82353129144824
C        -3.17238631973047    1.40373655557503   -0.59706377983614
C        -2.30842711885254    2.57679648505876   -0.58605538795126
C        -2.94750121438145   -0.70157354131789   -1.83778402519749
C        -1.95464140044688   -1.41763738279285   -2.59900081942192
C        -1.57350159855351   -2.58350407570704   -1.83836066126348
C        -2.33497752936519   -2.58655612784825   -0.61327579023278
C        -3.17959777579025   -1.42814722724327   -0.61553562199781
C        -0.99760577333906   -0.72008008478403   -3.32275271253664
C        -0.99353797643390    0.72194788180320   -3.31300839714231
C         0.38093490307539    1.16441418264541   -3.31393911728954
C         1.22305915429935    0.00084348972589   -3.31871936920619
C         0.37459385973893   -1.16339237062207   -3.32072770583919
Cl       -1.96433083852224    0.00132820023022    5.23494823622265
Cl       -3.14479403831807    3.62739221295836    2.87326326546340
Cl        3.71629094423407   -4.11042604796614    0.93738991836163
63
 energy: -142.113234655302 gnorm: 0.002445115052 xtb: 6.4.1 (a3dbbd7)
C        -1.30175791869495    0.01290554945955    3.54951200940513
C        -0.37149997916392   -1.16117783327761    3.30656909072685
C         0.97269532194203   -0.71269946366525    3.27018471122698
C         0.97479671220140    0.72770238567471    3.26844692325522
C        -0.37700727585099    1.18934576284460    3.30527561601677
C         2.49818987205133   -2.75506231431184    0.62937584691929
C         3.19925535639445   -1.41532220518089    0.58066590927282
C         2.93356601171171   -0.69492154769593    1.78053318240940
C         1.93493031496117   -1.41467818326695    2.53456363024751
C         1.58012042902506   -2.58375188716737    1.81805747766589
C         3.18042693278610    1.41850616972971    0.58013725927964
C         2.33396334507536    2.58398323696634    0.57872348420386
C         1.57152219413554    2.57644155937140    1.80273426412322
C         1.94598764034253    1.41642007658231    2.55107107838524
C         2.94162482000984    0.69707694061736    1.79618773760021
C        -0.37145187602332    3.43197359638931    0.58077415107125
C        -1.73401584332499    3.02322408089196    0.58382918139567
C        -2.10086813956259    2.46994184669948    1.94835282746759
C        -0.73677961128767    2.29551654310534    2.58551259211908
C         0.24219105032998    2.98562869589835    1.80565577264077
C        -3.37652425843683    0.70681309514375    0.57519490069863
C        -3.39315140529688   -0.72668848343631    0.56855975832092
C        -2.76709349957642   -1.15745507240555    1.78753133789689
C        -2.39119257824863    0.03093811366934    2.53299720603815
C        -2.75107367103091    1.13560118975646    1.81416022763834
C        -1.72958156409009   -3.00524762700060    0.57676802708542
C        -0.36882595312401   -3.44848626224724    0.58129078760648
C         0.25704778988291   -2.98127199672457    1.80384849494879
C        -0.72642209220183   -2.26099605401882    2.55872672119433
C        -1.96771626096504   -2.27847940163195    1.79538124223283
C        -0.25269198364293   -3.00027480686085   -1.83277708462512
C         0.73613945886231   -2.28311722852179   -2.58738104144283
C         1.95785331676360   -2.28562296024152   -1.81255106067693
C         1.72996408980771   -3.01345708560883   -0.61521246263256
C         0.37539385319544   -3.43014779315254   -0.59926148172804
C         2.79235816248557   -1.16729760674363   -1.83634970418400
C         2.40851851177573   -0.00767872066521   -2.58233126321176
C         2.78699586298559    1.16025768522962   -1.82481006464734
C         3.39961248258831    0.71563053483586   -0.59981740045408
C         3.39994371567791   -0.72300915473386   -0.59435582516408
C         1.97605780103484    2.28675215063803   -1.82785612057446
C         0.74897586379814    2.29025784926792   -2.58698141665959
C        -0.23889836073955    3.00676016455319   -1.82403126111321
C         0.36954376114095    3.44663233194792   -0.60191762905391
C         1.74040952738927    3.00706342776794   -0.60214325843237
C        -1.55991060402530    2.57195087836109   -1.80993975436702
C        -1.94330733767639    1.41073810027550   -2.57471612904302
C        -2.93976615517728    0.68915511257310   -1.82348201312621
C        -3.17219711417318    1.40350873101713   -0.59701828020098
C        -2.30816584567961    2.57645325536919   -0.58602613099592
C        -2.94737104814711   -0.70186614359189   -1.83767405487820
C        -1.95433196813460   -1.41789499036995   -2.59878177194415
C        -1.57332760546636   -2.58366003681936   -1.83810682417167
C        -2.33515653202539   -2.58675743629626   -0.61296694527501
C        -3.17949459297756   -1.42843533569720   -0.61533342078436
C        -0.99729795316348   -0.72032754866022   -3.32258383542651
C        -0.99327893880338    0.72173065740307   -3.31304109162192
C         0.38125650593662    1.16431544165433   -3.31399963039031
C         1.22340508043327    0.00097160408418   -3.31893244473417
C         0.37488115614563   -1.16349536305688   -3.32066078669830
Cl       -1.96468572356843    0.00094069115213    5.23472488779294
Cl       -3.14502163942741    3.62761048165738    2.87285536786151
Cl        3.71080990217168   -4.10800362075810    0.93218225479475
63
 energy: -142.113246399074 gnorm: 0.001309915355 xtb: 6.4.1 (a3dbbd7)
C        -1.30174117063657    0.01278608041074    3.54973576724352
C        -0.37154689297572   -1.16125895480260    3.30691207706962
C         0.97275535804186   -0.71268573281088    3.27065123859872
C         0.97492792106337    0.72766712653348    3.26867360715491
C        -0.37692418565035    1.18917107578890    3.30534592836973
C         2.49782965950075   -2.75486932248296    0.62908104017505
C         3.19841004379656   -1.41447635713439    0.58058305091227
C         2.93343366324567   -0.69451196650493    1.78074204119380
C         1.93479343341381   -1.41430694824015    2.53477888127876
C         1.57947562934950   -2.58284029116808    1.81785205620636
C         3.18085492730558    1.41873105774265    0.58021259289460
C         2.33418644894134    2.58400578093192    0.57880293059742
C         1.57169254400572    2.57637124051888    1.80277185023737
C         1.94616794921950    1.41646075371927    2.55128031378651
C         2.94191405680560    0.69733836205165    1.79644834060964
C        -0.37126970162635    3.43169302632221    0.58074062355441
C        -1.73381699123497    3.02293612090714    0.58376709341625
C        -2.10067647056796    2.46966400427916    1.94827139329847
C        -0.73663147345595    2.29525284930487    2.58545902487271
C         0.24232676047705    2.98538046903102    1.80562294585610
C        -3.37639139336016    0.70652925179230    0.57521414737875
C        -3.39306597511383   -0.72697794612307    0.56862019601980
C        -2.76716616393307   -1.15771347034441    1.78771151973276
C        -2.39108454150164    0.03072708907522    2.53305492327420
C        -2.75091058363112    1.13535100970585    1.81416781427768
C        -1.72975618324040   -3.00557740519328    0.57704243402818
C        -0.36894633891012   -3.44838981896400    0.58140857208441
C         0.25669977123799   -2.98080432293835    1.80392795113684
C        -0.72660476289010   -2.26110769307383    2.55913882670903
C        -1.96789453574574   -2.27879626932663    1.79572373799644
C        -0.25271424759875   -3.00055353391531   -1.83301419383405
C         0.73612871228520   -2.28338820041908   -2.58761515343664
C         1.95758806279033   -2.28525824318315   -1.81257905282393
C         1.72934122230833   -3.01247586445964   -0.61506714075998
C         0.37509986660032   -3.42983602369387   -0.59926847611652
C         2.79235191382296   -1.16710066979183   -1.83628896180514
C         2.40895542794956   -0.00757785197878   -2.58248401443100
C         2.78749324670630    1.16040150105135   -1.82495160194337
C         3.40012266967647    0.71596571836386   -0.59982412172761
C         3.39966667827477   -0.72246626499111   -0.59431772089766
C         1.97639273940553    2.28675474356157   -1.82792516382046
C         0.74923090607228    2.29004705126624   -2.58697205057921
C        -0.23868190482824    3.00650232189864   -1.82402431786091
C         0.36974224252334    3.44642114440286   -0.60192939654118
C         1.74063571849713    3.00695059711489   -0.60211739421220
C        -1.55966432086780    2.57162882803267   -1.80990692965244
C        -1.94304816167093    1.41040915574513   -2.57463133720305
C        -2.93949172420325    0.68885078742188   -1.82343083543465
C        -3.17195923197436    1.40318647811483   -0.59699274307706
C        -2.30796217077821    2.57614858033792   -0.58604086561191
C        -2.94711704922522   -0.70214279328804   -1.83759782345239
C        -1.95409652215354   -1.41815599048118   -2.59869016594156
C        -1.57332120675059   -2.58404386100677   -1.83811249686948
C        -2.33513515580103   -2.58708559708121   -0.61285705623436
C        -3.17936512001333   -1.42874114219335   -0.61528753100558
C        -0.99704914938557   -0.72058630642148   -3.32247089408683
C        -0.99301467430189    0.72143887231902   -3.31291678270808
C         0.38150981429412    1.16407558109976   -3.31397675533877
C         1.22369673735052    0.00082743723916   -3.31895690010339
C         0.37511960798636   -1.16371302184888   -3.32081369398774
Cl       -1.96466651888582    0.00094075740187    5.23477869155175
Cl       -3.14469938086215    3.62739635484646    2.87275399905865