72
 energy: -177.373466945529 gnorm: 0.258258064939 xtb: 6.4.1 (a3dbbd7)
C        -1.23626340000000    0.00000000000000    3.32997640000000
C        -0.38202640000000   -1.17575640000000    3.32997640000000
C         1.00015810000000   -0.72665740000000    3.32997640000000
C         1.00015810000000    0.72665740000000    3.32997640000000
C        -0.38202640000000    1.17575640000000    3.32997640000000
C         2.34433560000000   -2.60145750000000    0.59464210000000
C         3.19857260000000   -1.42570110000000    0.59464210000000
C         2.96246730000000   -0.69904370000000    1.83090550000000
C         1.96230920000000   -1.42570110000000    2.59495830000000
C         1.58028280000000   -2.60145750000000    1.83090550000000
C         3.19857260000000    1.42570110000000    0.59464210000000
C         2.34433560000000    2.60145750000000    0.59464210000000
C         1.58028280000000    2.60145750000000    1.83090550000000
C         1.96230920000000    1.42570110000000    2.59495830000000
C         2.96246730000000    0.69904370000000    1.83090550000000
C        -0.36750900000000    3.48258920000000    0.59464210000000
C        -1.74969350000000    3.03349030000000    0.59464210000000
C        -1.98579880000000    2.30683290000000    1.83090550000000
C        -0.74953540000000    2.30683290000000    2.59495830000000
C         0.25062270000000    3.03349030000000    1.83090550000000
C        -3.42570570000000    0.72665740000000    0.59464210000000
C        -3.42570570000000   -0.72665740000000    0.59464210000000
C        -2.80757400000000   -1.17575640000000    1.83090550000000
C        -2.42554760000000    0.00000000000000    2.59495830000000
C        -2.80757400000000    1.17575640000000    1.83090550000000
C        -1.74969350000000   -3.03349030000000    0.59464210000000
C        -0.36750900000000   -3.48258920000000    0.59464210000000
C         0.25062270000000   -3.03349030000000    1.83090550000000
C        -0.74953540000000   -2.30683290000000    2.59495830000000
C        -1.98579880000000   -2.30683290000000    1.83090550000000
C        -0.25062270000000   -3.03349030000000   -1.83090550000000
C         0.74953540000000   -2.30683290000000   -2.59495830000000
C         1.98579880000000   -2.30683290000000   -1.83090550000000
C         1.74969350000000   -3.03349030000000   -0.59464210000000
C         0.36750900000000   -3.48258920000000   -0.59464210000000
C         2.80757400000000   -1.17575640000000   -1.83090550000000
C         2.42554760000000    0.00000000000000   -2.59495830000000
C         2.80757400000000    1.17575640000000   -1.83090550000000
C         3.42570570000000    0.72665740000000   -0.59464210000000
C         3.42570570000000   -0.72665740000000   -0.59464210000000
C         1.98579880000000    2.30683290000000   -1.83090550000000
C         0.74953540000000    2.30683290000000   -2.59495830000000
C        -0.25062270000000    3.03349030000000   -1.83090550000000
C         0.36750900000000    3.48258920000000   -0.59464210000000
C         1.74969350000000    3.03349030000000   -0.59464210000000
C        -1.58028280000000    2.60145750000000   -1.83090550000000
C        -1.96230920000000    1.42570110000000   -2.59495830000000
C        -2.96246730000000    0.69904370000000   -1.83090550000000
C        -3.19857260000000    1.42570110000000   -0.59464210000000
C        -2.34433560000000    2.60145750000000   -0.59464210000000
C        -2.96246730000000   -0.69904370000000   -1.83090550000000
C        -1.96230920000000   -1.42570110000000   -2.59495830000000
C        -1.58028280000000   -2.60145750000000   -1.83090550000000
C        -2.34433560000000   -2.60145750000000   -0.59464210000000
C        -3.19857260000000   -1.42570110000000   -0.59464210000000
C        -1.00015810000000   -0.72665740000000   -3.32997640000000
C        -1.00015810000000    0.72665740000000   -3.32997640000000
C         0.38202640000000    1.17575640000000   -3.32997640000000
C         1.23626340000000    0.00000000000000   -3.32997640000000
C         0.38202640000000   -1.17575640000000   -3.32997640000000
C        -1.76086815247998    0.00000000000000    4.78849957557021
F        -0.76911826531252    0.00000000000000    5.67468926254662
F        -2.50968386795825   -1.06794314680471    5.04863888333743
F        -2.50968386795825    1.06794314680471    5.04863888333743
C        -4.58877084110522   -2.05459160147071   -0.86730597290559
F        -4.59709252483521   -2.78118520641283   -1.98125951001435
F        -5.53562669678859   -1.13053295630600   -1.00324569798425
F        -4.97417519512416   -2.85850196315549    0.11965482382298
C         4.25247495652193   -1.01957928511255    2.62817407757680
F         4.45020405360863   -2.32910962270744    2.75037677428969
F         5.33704498641440   -0.51936149478958    2.04303305824604
F         4.21414295278388   -0.51936236815955    3.85992636334025
72
 energy: -177.432216808051 gnorm: 0.166367965507 xtb: 6.4.1 (a3dbbd7)
C        -1.24305134762980    0.00525912009649    3.34161417232790
C        -0.36829369221412   -1.18780994001709    3.33778449103469
C         0.98768605025945   -0.72381334044041    3.31978848208352
C         0.99816173393155    0.73101201600437    3.31513457900551
C        -0.35449367229374    1.19346921384954    3.34045631192018
C         2.32316323317148   -2.58569364213220    0.58359429363574
C         3.15879795644650   -1.42108578468933    0.56157331556848
C         2.99448007239154   -0.70739235965109    1.85002008036446
C         1.92313398555303   -1.42612656798014    2.57681544067059
C         1.56448355345125   -2.58621871054683    1.81922275778232
C         3.18398404083642    1.43181060149205    0.59431773014131
C         2.33652417619930    2.60370332295546    0.58925292000853
C         1.58086176284785    2.60616891388839    1.82227054974455
C         1.96845444957555    1.43490305492867    2.58102024876427
C         2.98992723931005    0.74298930162939    1.84907502567354
C        -0.36410071176451    3.47112113625532    0.59159031755466
C        -1.73891797099733    3.02228222722957    0.59670502324928
C        -1.96736704365957    2.30439228342243    1.82740510086535
C        -0.73618714992291    2.30548063848185    2.58597763390153
C         0.25710914258420    3.02976436959327    1.82085573991643
C        -3.41991233449160    0.72619302955585    0.58905285198531
C        -3.41452560020798   -0.70441981143490    0.60675427690153
C        -2.78928452723388   -1.15885046236783    1.80619605904388
C        -2.43627813682667    0.01362894764891    2.54593459946318
C        -2.79636821049671    1.17416051707391    1.81817832741325
C        -1.72942824923524   -3.01790710956365    0.58879831650144
C        -0.36178574815000   -3.47448342307723    0.59189918060624
C         0.24482106418071   -3.03173220746689    1.82570565298515
C        -0.74057053590493   -2.30142365410413    2.58577898224371
C        -1.97299229075621   -2.29407962563058    1.81912211628308
C        -0.24276729234087   -3.02915377228762   -1.82679022316240
C         0.74783219126340   -2.30056668051908   -2.58727695877283
C         1.97860035693299   -2.30262329448244   -1.82875038663434
C         1.74245045139657   -3.02693145731429   -0.60277682253186
C         0.36778660870386   -3.47372246374048   -0.59744005246472
C         2.79635784663554   -1.17189397825904   -1.83311161116822
C         2.41545063427076    0.00012639776302   -2.58673942518750
C         2.79451526295742    1.17135864110909   -1.82313787833428
C         3.40677786915478    0.72942382087362   -0.59372452818086
C         3.40124896246018   -0.72227368690074   -0.60472115665096
C         1.97448558285337    2.29885269100640   -1.82532593737101
C         0.74530880293347    2.29679393975033   -2.58491666712756
C        -0.25012179086132    3.02032037625768   -1.82404528100721
C         0.36531449275066    3.47099515551482   -0.59413390684112
C         1.74035723941174    3.02506731647631   -0.59473401888156
C        -1.57426765354716    2.59037474249548   -1.82335591379460
C        -1.95182169688161    1.42397357730525   -2.59141098347549
C        -2.93720784014537    0.70024402543723   -1.82775232512529
C        -3.18859637142791    1.42504361826603   -0.59581683435399
C        -2.33539519076519    2.58887229490519   -0.59173533832214
C        -2.92710944743163   -0.68390305174900   -1.83739072925981
C        -1.94521319463354   -1.41528435207345   -2.58585516379167
C        -1.56549871624203   -2.58963230885710   -1.82718489789939
C        -2.30695170801175   -2.59657014516321   -0.60177706011531
C        -3.25845883452330   -1.45781448806759   -0.61409990080227
C        -0.99089264393891   -0.72078932466512   -3.32462938372359
C        -0.99286138989917    0.72423749808574   -3.32302673051495
C         0.38151338403654    1.16998117169566   -3.31998214175008
C         1.23122621522426   -0.00019660646593   -3.31867449698647
C         0.38249397704817   -1.17209460996666   -3.31899255129232
C        -1.77112059074914   -0.00176467595932    4.81763699201107
F        -0.77565956522545    0.00050438934464    5.70513375989967
F        -2.52035536291659   -1.07365325464619    5.07094245658985
F        -2.51928247559208    1.07146562970301    5.07034991593198
C        -4.64272268901722   -2.08458406876397   -0.88139742275807
F        -4.64395868673846   -2.81057050085957   -1.99763928013443
F        -5.57703705370951   -1.14514929410381   -1.01154458649687
F        -5.01076279437397   -2.88260274090447    0.11857908480324
C         4.29127504049770   -1.03451758703225    2.64759588720469
F         4.48406291783681   -2.34679957667080    2.76702901133319
F         5.36985045687783   -0.52599730189758    2.05235753553955
F         4.24197099453912   -0.52607261775710    3.87819189512358
72
 energy: -177.469711303040 gnorm: 0.097977132700 xtb: 6.4.1 (a3dbbd7)
C        -1.27041347297964    0.00672838037968    3.44376791699986
C        -0.34922179353264   -1.19435465572767    3.29135071527770
C         0.97285105834386   -0.72198992908379    3.27795466680974
C         0.98888793003501    0.73368037875608    3.28842427155918
C        -0.31910268787474    1.19891068882107    3.29692369755091
C         2.30801244882954   -2.56802188096558    0.57032205289839
C         3.12567912203797   -1.42251282245590    0.52933169281685
C         3.07791561310708   -0.73609947228491    1.89727011677106
C         1.89056404713378   -1.43559148014020    2.55340510418205
C         1.55294585633936   -2.56915892155177    1.80314879416832
C         3.15486567681984    1.43602083810859    0.58099158816698
C         2.32357831316221    2.60709164188351    0.57723451014163
C         1.57275899753984    2.61096510357917    1.80540539093990
C         1.96211881447065    1.44112762696444    2.55302733792028
C         2.95025428659208    0.78109486499964    1.82695835268085
C        -0.36307567781627    3.46456496859525    0.58248552626970
C        -1.72900537113803    3.01375894059599    0.59814534302300
C        -1.95030739964834    2.30949771494884    1.82493110868277
C        -0.72770818698221    2.30290003532046    2.55624869912804
C         0.25968801707400    3.03076577090837    1.80236494727843
C        -3.39364064103334    0.71793002473699    0.58338847927185
C        -3.39741568876908   -0.67601039754405    0.62046122671797
C        -2.76503113304027   -1.13492932467324    1.77829371778548
C        -2.44577041156708    0.03075638999511    2.51466834643679
C        -2.77462482982122    1.16400675017856    1.81674826580873
C        -1.71213113834160   -3.00241251177278    0.58216006081175
C        -0.35813792793833   -3.46552327032522    0.58602693967829
C         0.23914505821599   -3.03344025975356    1.81645695722026
C        -0.73385312125412   -2.29684822234526    2.55574029476091
C        -1.96770570166470   -2.28448838127530    1.80584434270927
C        -0.23383841852094   -3.02374908200854   -1.82247580852664
C         0.74772526617503   -2.29239646725134   -2.57901205529591
C         1.97158390521759   -2.29864150908611   -1.82551271755284
C         1.73672406991374   -3.01926060134632   -0.61371666072207
C         0.36757038435804   -3.46332668476944   -0.60329447443819
C         2.78512465770754   -1.16593068420071   -1.83194357390191
C         2.40725926367645   -0.00000605406420   -2.57676799670149
C         2.78356892468726    1.16684457646145   -1.81421967882190
C         3.39403801966517    0.73435016875125   -0.59707020215429
C         3.37618088841569   -0.71944180785945   -0.61075699647214
C         1.96343173828616    2.29151993267781   -1.82085984557403
C         0.74289796675732    2.28748138807650   -2.57599868266254
C        -0.24770149390668    3.00751030993183   -1.81950647923020
C         0.36375724234416    3.46355031406471   -0.59752101542277
C         1.73031447566281    3.02116454809980   -0.59946432819549
C        -1.56554620554455    2.57843124683752   -1.81555123256373
C        -1.93850528372811    1.42188719522507   -2.58587901698574
C        -2.91098679008683    0.70186806393263   -1.82719465972794
C        -3.17182460936587    1.42512657004650   -0.59655320018305
C        -2.32635511286978    2.57685757751359   -0.59055179867120
C        -2.88555939842614   -0.66361726238706   -1.84861999742542
C        -1.92679671346127   -1.40034251441322   -2.57199488837272
C        -1.55114285013680   -2.57160338815055   -1.81413803968987
C        -2.26386741825494   -2.58797655978747   -0.60522135045051
C        -3.34811925529005   -1.50182155193549   -0.64611615756632
C        -0.97861259502924   -0.71253982722035   -3.31937277510916
C        -0.98197934302146    0.72158424047368   -3.31414053561593
C         0.38333723425200    1.16495219563645   -3.31198064137854
C         1.22832000912151    0.00097628411348   -3.30624028531714
C         0.38532761848568   -1.16619707486689   -3.30695417992509
C        -1.79518910305785   -0.00149608073820    4.89779116319287
F        -0.78417857487208    0.00137904749860    5.76865027057824
F        -2.54229834644228   -1.08279076177295    5.12102022458635
F        -2.54051048988524    1.08212865634816    5.12121652051994
C        -4.70632516411447   -2.11528219669822   -0.90066600200831
F        -4.69003782197847   -2.83845845799425   -2.02053183994238
F        -5.62194631850168   -1.15409617387671   -1.02415935038243
F        -5.04913097719330   -2.90609597192299    0.11635594581743
C         4.35446247917923   -1.05261424777268    2.68440969019237
F         4.53152455720897   -2.36943847697614    2.79529266404941
F         5.41790211657678   -0.53034615365257    2.06939742668139
F         4.27612894746396   -0.53078581192383    3.91019261806625
72
 energy: -177.482490054264 gnorm: 0.055318285230 xtb: 6.4.1 (a3dbbd7)
C        -1.27647957982164    0.01144015928139    3.47594176083827
C        -0.35519686711937   -1.18239800846003    3.30275548649855
C         0.98019582596098   -0.71619171821647    3.27668211357806
C         0.98996889403560    0.73733989746795    3.28850596064419
C        -0.32839678494004    1.20013855641371    3.31481634039076
C         2.31433100982935   -2.56066860566633    0.56726820495179
C         3.14910413031610   -1.41871114463732    0.54341688825810
C         3.11017751349516   -0.73929231188961    1.90958471768084
C         1.91609042985170   -1.42758482601335    2.55670501572861
C         1.55772181134913   -2.55823207053822    1.79772088817824
C         3.16420649179255    1.43509857514297    0.58093187591509
C         2.33047186320159    2.60949857528625    0.57213924224775
C         1.57875049440823    2.61123182024673    1.80039962210259
C         1.96945341485306    1.43733792602787    2.54925898836380
C         2.96916498188880    0.76863053172283    1.83059764073064
C        -0.35945688513094    3.46886531431880    0.57624768194757
C        -1.72476909626570    3.01523544524377    0.59193299044590
C        -1.94515427381010    2.31119004608327    1.82144127096658
C        -0.72792684160894    2.30555225398914    2.56297627116904
C         0.26281434932020    3.02803464281465    1.79755849673712
C        -3.39141714487180    0.71440180262426    0.57259831211690
C        -3.41116970375626   -0.68859430577818    0.59723657677192
C        -2.76297410313674   -1.13178405031758    1.77062646070043
C        -2.43442381916161    0.03052779516687    2.53159674141554
C        -2.76646656508529    1.16336209808391    1.81190091776038
C        -1.72255488491806   -2.99454786262247    0.56989462297317
C        -0.36137970935979   -3.45159992479849    0.57558185578311
C         0.23961484950101   -3.01399717323968    1.80605950893971
C        -0.73660106637840   -2.28265484507178    2.55515619267105
C        -1.96866835802362   -2.27668198167971    1.79759738357549
C        -0.23607044489164   -3.01762421851126   -1.82990235188832
C         0.75061439128363   -2.29025058774379   -2.58756375562257
C         1.97422090542730   -2.29404148840540   -1.83131753639809
C         1.73875071767640   -3.01250412794216   -0.61716304468310
C         0.36730244227695   -3.45865151524595   -0.61112484424945
C         2.78588534372504   -1.15982889961787   -1.83084922811950
C         2.40995189470780    0.00437804353487   -2.58119172444263
C         2.78469447328232    1.17104157378672   -1.81769006506979
C         3.39807025094515    0.73796064768738   -0.59874067664162
C         3.38494151524117   -0.71530613664218   -0.60693806153870
C         1.96567976065129    2.29562325228177   -1.82691892126949
C         0.74513852841904    2.29090029209600   -2.58399558897079
C        -0.24553045048796    3.01138408238932   -1.82731883850647
C         0.36678015130398    3.47020429572570   -0.60529968641304
C         1.73431866373071    3.02664225162696   -0.60605984574445
C        -1.56194085486699    2.57836537950350   -1.82112713473779
C        -1.93539678286166    1.41833026988014   -2.58756683023243
C        -2.91880068434762    0.69678820710531   -1.83383352651231
C        -3.17185442597468    1.42514892076760   -0.60485295197699
C        -2.32161071711029    2.57569208944535   -0.59531785234197
C        -2.91372339524306   -0.67628315695941   -1.85860014249869
C        -1.93267490161166   -1.39920803499394   -2.57877170913848
C        -1.55794652414592   -2.56971973389239   -1.82204307543777
C        -2.29370889348627   -2.59135234866728   -0.61869963882820
C        -3.37716887701437   -1.51330918453643   -0.66355866144089
C        -0.97752404136785   -0.71114562972533   -3.32263509810089
C        -0.97952659501474    0.72299431397716   -3.32054398872875
C         0.38661514829238    1.16847943891435   -3.32041250171214
C         1.23232719002235    0.00399616010209   -3.31336700754825
C         0.38851212946871   -1.16355568472321   -3.31454050426366
C        -1.80587105651834    0.00233264807993    4.93252586172602
F        -0.80635321309109    0.00387304477457    5.81860246498563
F        -2.55429777087796   -1.07709683392699    5.16750732861050
F        -2.55662191670865    1.07992321721546    5.17287651559609
C        -4.74923060687865   -2.13588084240251   -0.91690527028332
F        -4.75789914328781   -2.86820000033110   -2.03391610225394
F        -5.68218403688775   -1.18932214482886   -1.04155021683621
F        -5.10424582724363   -2.93067702020373    0.09529320311209
C         4.39300922847478   -1.06023104743442    2.70013336467677
F         4.58363945911088   -2.37618602102786    2.81963097602704
F         5.46869877285368   -0.54557154423556    2.09753133481729
F         4.33084735437655   -0.54528303599584    3.93090582396134
72
 energy: -177.489257822227 gnorm: 0.023454485749 xtb: 6.4.1 (a3dbbd7)
C        -1.28729125532729    0.01303756705545    3.52136743910154
C        -0.36024726431193   -1.17005575958048    3.30087859523126
C         0.98439676457050   -0.71245933105094    3.26667672032666
C         0.98479310357061    0.73887030564945    3.28397243254522
C        -0.33830704243573    1.19685297111249    3.32052068821963
C         2.32293665070280   -2.55122150555079    0.56439257259735
C         3.17614068246961   -1.41608215273176    0.55826748145438
C         3.15140592290408   -0.74839467661324    1.92804813539218
C         1.94199583173881   -1.41997490254298    2.56122598441480
C         1.56229608609516   -2.54328005027476    1.79141381807854
C         3.17045247537140    1.43135558914867    0.57846983032403
C         2.33542280924765    2.60780301335573    0.56623407732993
C         1.58131986987608    2.60608817734742    1.79207433445242
C         1.97078295017718    1.42766932486997    2.54040472194952
C         2.96668766547766    0.75086511484361    1.82359729546864
C        -0.35578877586871    3.46922661870491    0.56983248619777
C        -1.72153714740416    3.01541851495441    0.58568078798534
C        -1.94129691752254    2.31098188889537    1.81647521095954
C        -0.72921232045974    2.30449663252038    2.56327256446147
C         0.26537039677472    3.02220243624338    1.79153906807857
C        -3.38186066923241    0.70562256027563    0.56252097735427
C        -3.41529706451010   -0.69816402860944    0.57734526463608
C        -2.76379435290157   -1.13104980952579    1.76531458026695
C        -2.41869911671264    0.02767520242496    2.54112375821946
C        -2.75359634260577    1.15499126654836    1.80717327362714
C        -1.73338823360998   -2.98575557127058    0.55831938724543
C        -0.36483679281228   -3.42965106249486    0.56528778567254
C         0.24072182871286   -2.98867805845319    1.79379625741186
C        -0.73903361107777   -2.26628829228171    2.54947177526227
C        -1.97416574876265   -2.27130579075826    1.79115648410834
C        -0.23947161010568   -3.00842685078774   -1.83483716298936
C         0.75165682296994   -2.28567483262049   -2.59333267600463
C         1.97572015548619   -2.28812557194090   -1.83524223444167
C         1.74168275485103   -3.00235481423796   -0.61862874505838
C         0.36709436717423   -3.44723364178319   -0.61700078716879
C         2.78620787241002   -1.15376180216734   -1.82740315505477
C         2.41254201517223    0.00829247067189   -2.58372933081865
C         2.78881253705167    1.17524073683141   -1.82199032013921
C         3.40498446678237    0.74111628246464   -0.60198740672199
C         3.39286369825235   -0.71282720358711   -0.60205304583155
C         1.97023995833539    2.29954082777036   -1.83341172237228
C         0.74906709680125    2.29489470188992   -2.59266328576664
C        -0.24204142507935    3.01491378245062   -1.83539382057622
C         0.37160178295913    3.47479765757010   -0.61226274727272
C         1.73962673329772    3.03086907627389   -0.61274438544637
C        -1.55694690459352    2.57669285569876   -1.82577559654743
C        -1.93167460220612    1.41372506703880   -2.58791003792679
C        -2.92437675838461    0.69192902441661   -1.83918413650601
C        -3.17075919855719    1.42573660557264   -0.61253708109178
C        -2.31780602013601    2.57413343074584   -0.60024834272315
C        -2.94099008697483   -0.68654105133637   -1.86654527179560
C        -1.93935392721789   -1.39559892209539   -2.58220434538042
C        -1.56521408578179   -2.56539707161763   -1.82531028189008
C        -2.32351331201554   -2.59425788781615   -0.62890520435469
C        -3.41013513554443   -1.52591032421260   -0.67997851785121
C        -0.97804403633095   -0.70908635760812   -3.32430470039238
C        -0.97705213450295    0.72466722174579   -3.32582878766260
C         0.39047320588971    1.17295466316260   -3.32948077369523
C         1.23601725602033    0.00753644881725   -3.31965048947768
C         0.38947202065214   -1.15902140085997   -3.31956940495372
C        -1.82034445733209    0.00531086222945    4.97007814471241
F        -0.82882828925856    0.00629438331579    5.86724174749307
F        -2.56927567800258   -1.07349200457618    5.21456058910764
F        -2.57592461257618    1.07829913508043    5.22259391179811
C        -4.79054937267861   -2.15213492330708   -0.92912153123225
F        -4.81769566240014   -2.89152579373286   -2.04422520634787
F        -5.73896336151452   -1.21866523558595   -1.05563463978529
F        -5.15505961910435   -2.95195252587776    0.07819510806557
C         4.43493182372176   -1.06524234177740    2.71837517037603
F         4.63737394237872   -2.38076788695466    2.84438571255978
F         5.51987161888311   -0.55631531966946    2.12420397928552
F         4.38625731684150   -0.55565215992004    3.95342754466936
72
 energy: -177.490460519518 gnorm: 0.010703173040 xtb: 6.4.1 (a3dbbd7)
C        -1.29372358808526    0.01104841470805    3.54511326798753
C        -0.36276177008195   -1.16579514291657    3.29632474348334
C         0.98521973452436   -0.71318996509424    3.26142578530525
C         0.97950354014733    0.73740384929489    3.28205394660193
C        -0.34466077363031    1.19211509420265    3.31811662736753
C         2.32872715079532   -2.54714787256613    0.56415899719221
C         3.19164471220080   -1.41648570609787    0.56498416730975
C         3.17193443770070   -0.75383515892955    1.93794421004386
C         1.95392529705795   -1.41736299250576    2.56531437032920
C         1.56489787378269   -2.53630781429780    1.78934585894249
C         3.17201837099897    1.42687148452329    0.57563642312628
C         2.33660259842937    2.60358314365927    0.56336322093117
C         1.58033023851084    2.59942501391479    1.78665798981396
C         1.96712207279109    1.41900547003718    2.53439689245116
C         2.95482607906397    0.73786261478087    1.81456384820448
C        -0.35420329562150    3.46680422182978    0.56714011217020
C        -1.72074118287960    3.01405741693592    0.58268038004640
C        -1.94153212039692    2.30944074482974    1.81371721079438
C        -0.73077279923306    2.30151579385370    2.56119809785549
C         0.26551646816780    3.01708567123768    1.78876526055203
C        -3.37455528306815    0.69957320962814    0.55959011175066
C        -3.41556730576024   -0.70151671606853    0.57186677202658
C        -2.76923446877297   -1.13382668562399    1.76819663929827
C        -2.41226304397181    0.02402678528729    2.54547875859254
C        -2.74735189411425    1.14786409733327    1.80675503604130
C        -1.73887451041041   -2.98253464718891    0.55464407341613
C        -0.36713469839525   -3.41698131391893    0.56165463064111
C         0.24148078824192   -2.97441029017191    1.78780613941241
C        -0.74105542686069   -2.26010672454537    2.54664151035585
C        -1.98000338878287   -2.27238121917684    1.79094309416057
C        -0.24242826758698   -3.00206483442422   -1.83551594716806
C         0.75063310694429   -2.28227758721845   -2.59422297010506
C         1.97562089613170   -2.28473168254449   -1.83591349289723
C         1.74252795009758   -2.99551013765084   -0.61732382891728
C         0.36648382454766   -3.43838453271914   -0.61765656073797
C         2.78749698744142   -1.15215272936253   -1.82537110216856
C         2.41469278675128    0.00910210097119   -2.58499270675509
C         2.79412187194263    1.17662468936906   -1.82602889405193
C         3.41140963594949    0.74083221036324   -0.60558796781492
C         3.39798220021667   -0.71378563379268   -0.60021872826695
C         1.97462245259975    2.30079603570222   -1.83743794821584
C         0.75213993226876    2.29661131295248   -2.59708202717657
C        -0.23990574129625    3.01603273968228   -1.83935734908378
C         0.37454406851541    3.47486511747866   -0.61474322331549
C         1.74292576315197    3.03097355636844   -0.61586937943032
C        -1.55461355037200    2.57578545667383   -1.82854034635122
C        -1.93107239849160    1.41211559610276   -2.58939405604816
C        -2.92635230672374    0.69083971307521   -1.84176094147396
C        -3.16979631627337    1.42574002294462   -0.61552284837336
C        -2.31671264256374    2.57331489295454   -0.60318033083734
C        -2.95213761379587   -0.68886644906650   -1.86920244265829
C        -1.94391173304074   -1.39358058739591   -2.58360540618147
C        -1.56970427257800   -2.56282038185588   -1.82530893119909
C        -2.33602822376319   -2.59462344933062   -0.63100298601632
C        -3.42383301326242   -1.52900389111443   -0.68461703604559
C        -0.97982115100276   -0.70828839740479   -3.32484273062416
C        -0.97657630448564    0.72587688246309   -3.32871438223058
C         0.39240537996333    1.17487168512412   -3.33373264441667
C         1.23781808763387    0.00885962609732   -3.32229551751847
C         0.38838402379286   -1.15636741655975   -3.32078946370541
C        -1.82829164550480    0.00554692887017    4.98772053440805
F        -0.83976802068201    0.00767883031052    5.88924262745960
F        -2.57792476836996   -1.07276294555697    5.23669493458264
F        -2.58594749647297    1.07720536987672    5.24208953862311
C        -4.80686386110588   -2.15422772765110   -0.93443618468511
F        -4.83625823150223   -2.89381915327818   -2.05019906979684
F        -5.75997783459256   -1.22508497508864   -1.06274071116387
F        -5.17604185044529   -2.95738012143189    0.06914288546312
C         4.45676045352078   -1.06197208625113    2.72640074423986
F         4.66551411466788   -2.37710155612056    2.85447480239357
F         5.54273999300188   -0.55356781255155    2.13218120225720
F         4.41467744019165   -0.55332395407846    3.96260323096298
72
 energy: -177.490642073837 gnorm: 0.006539511425 xtb: 6.4.1 (a3dbbd7)
C        -1.29489041752849    0.00914312529697    3.55069614392854
C        -0.36354690601299   -1.16606444661818    3.29455087501581
C         0.98499007605675   -0.71515917803365    3.26111856118419
C         0.97718037901495    0.73563769979690    3.28234036060266
C        -0.34710013350648    1.18929923076835    3.31589443766003
C         2.33010337725448   -2.54741006351462    0.56476864438160
C         3.19541910782043   -1.41807735126455    0.56616386962319
C         3.17491543731456   -0.75469172913798    1.93988710885676