 Entering Gaussian System, Link 0=g16
 Input=12.gjf
 Output=12.log
 Initial command:
 /home/mkliu/g16/l1.exe "/data/scratch/Gau-218997.inp" -scrdir="/data/scratch/"
 Entering Link 1 = /home/mkliu/g16/l1.exe PID=    218998.
  
 Copyright (c) 1988,1990,1992,1993,1995,1998,2003,2009,2016,
            Gaussian, Inc.  All Rights Reserved.
  
 This is part of the Gaussian(R) 16 program.  It is based on
 the Gaussian(R) 09 system (copyright 2009, Gaussian, Inc.),
 the Gaussian(R) 03 system (copyright 2003, Gaussian, Inc.),
 the Gaussian(R) 98 system (copyright 1998, Gaussian, Inc.),
 the Gaussian(R) 94 system (copyright 1995, Gaussian, Inc.),
 the Gaussian 92(TM) system (copyright 1992, Gaussian, Inc.),
 the Gaussian 90(TM) system (copyright 1990, Gaussian, Inc.),
 the Gaussian 88(TM) system (copyright 1988, Gaussian, Inc.),
 the Gaussian 86(TM) system (copyright 1986, Carnegie Mellon
 University), and the Gaussian 82(TM) system (copyright 1983,
 Carnegie Mellon University). Gaussian is a federally registered
 trademark of Gaussian, Inc.
  
 This software contains proprietary and confidential information,
 including trade secrets, belonging to Gaussian, Inc.
  
 This software is provided under written license and may be
 used, copied, transmitted, or stored only in accord with that
 written license.
  
 The following legend is applicable only to US Government
 contracts under FAR:
  
                    RESTRICTED RIGHTS LEGEND
  
 Use, reproduction and disclosure by the US Government is
 subject to restrictions as set forth in subparagraphs (a)
 and (c) of the Commercial Computer Software - Restricted
 Rights clause in FAR 52.227-19.
  
 Gaussian, Inc.
 340 Quinnipiac St., Bldg. 40, Wallingford CT 06492
  
  
 ---------------------------------------------------------------
 Warning -- This program may not be used in any manner that
 competes with the business of Gaussian, Inc. or will provide
 assistance to any competitor of Gaussian, Inc.  The licensee
 of this program is prohibited from giving any competitor of
 Gaussian, Inc. access to this program.  By using this program,
 the user acknowledges that Gaussian, Inc. is engaged in the
 business of creating and licensing software in the field of
 computational chemistry and represents and warrants to the
 licensee that it is not a competitor of Gaussian, Inc. and that
 it will not use this program in any manner prohibited above.
 ---------------------------------------------------------------
  

 Cite this work as:
 Gaussian 16, Revision A.03,
 M. J. Frisch, G. W. Trucks, H. B. Schlegel, G. E. Scuseria, 
 M. A. Robb, J. R. Cheeseman, G. Scalmani, V. Barone, 
 G. A. Petersson, H. Nakatsuji, X. Li, M. Caricato, A. V. Marenich, 
 J. Bloino, B. G. Janesko, R. Gomperts, B. Mennucci, H. P. Hratchian, 
 J. V. Ortiz, A. F. Izmaylov, J. L. Sonnenberg, D. Williams-Young, 
 F. Ding, F. Lipparini, F. Egidi, J. Goings, B. Peng, A. Petrone, 
 T. Henderson, D. Ranasinghe, V. G. Zakrzewski, J. Gao, N. Rega, 
 G. Zheng, W. Liang, M. Hada, M. Ehara, K. Toyota, R. Fukuda, 
 J. Hasegawa, M. Ishida, T. Nakajima, Y. Honda, O. Kitao, H. Nakai, 
 T. Vreven, K. Throssell, J. A. Montgomery, Jr., J. E. Peralta, 
 F. Ogliaro, M. J. Bearpark, J. J. Heyd, E. N. Brothers, K. N. Kudin, 
 V. N. Staroverov, T. A. Keith, R. Kobayashi, J. Normand, 
 K. Raghavachari, A. P. Rendell, J. C. Burant, S. S. Iyengar, 
 J. Tomasi, M. Cossi, J. M. Millam, M. Klene, C. Adamo, R. Cammi, 
 J. W. Ochterski, R. L. Martin, K. Morokuma, O. Farkas, 
 J. B. Foresman, and D. J. Fox, Gaussian, Inc., Wallingford CT, 2016.
 
 ******************************************
 Gaussian 16:  ES64L-G16RevA.03 25-Dec-2016
                26-Apr-2023 
 ******************************************
 %mem=10GB
 %chk=12.xyz.chk
 %nprocshared=24
 Will use up to   24 processors via shared memory.
 ------------------------------------------------
 #P opt b3lyp/6-31G(d, p) empiricaldispersion=GD3
 ------------------------------------------------
 1/18=20,19=15,26=3,38=1/1,3;
 2/9=110,12=2,17=6,18=5,40=1/2;
 3/5=1,6=6,7=101,11=2,25=1,30=1,71=1,74=-5,124=31/1,2,3;
 4//1;
 5/5=2,38=5/2;
 6/7=2,8=2,9=2,10=2,28=1/1;
 7//1,2,3,16;
 1/18=20,19=15,26=3/3(2);
 2/9=110/2;
 99//99;
 2/9=110/2;
 3/5=1,6=6,7=101,11=2,25=1,30=1,71=1,74=-5,124=31/1,2,3;
 4/5=5,16=3,69=1/1;
 5/5=2,38=5/2;
 7//1,2,3,16;
 1/18=20,19=15,26=3/3(-5);
 2/9=110/2;
 6/7=2,8=2,9=2,10=2,19=2,28=1/1;
 99/9=1/99;
 Leave Link    1 at Wed Apr 26 11:02:41 2023, MaxMem=  1342177280 cpu:               1.0 elap:               0.1
 (Enter /home/mkliu/g16/l101.exe)
 ------------------------------
 Gaussian input prepared by ASE
 ------------------------------
 Symbolic Z-matrix:
 Charge =  0 Multiplicity = 1
 C                     0.75235   1.61335   3.89791 
 C                     1.19856   4.18163   0.20071 
 C                    -1.55953  -2.94119  -2.09804 
 C                    -0.52211   1.14279  -3.83275 
 C                     2.00866   1.11722   3.47676 
 C                     0.23838   4.12629   1.26516 
 C                    -0.22382  -3.19594  -2.50206 
 C                    -1.73785   0.5174   -3.36661 
 C                     2.76578   1.88379   2.48007 
 C                    -1.13679   3.89935   1.01327 
 C                    -2.59191   1.13776  -2.44021 
 C                     0.53859  -2.25614  -3.26689 
 C                     2.20389   3.08535   2.00789 
 C                    -0.18337  -1.15884  -3.76263 
 C                     0.8929    3.51691   2.4001 
 C                    -1.53116  -0.89723  -3.34434 
 C                     0.17297   2.78259   3.31677 
 C                    -2.20638  -1.71576  -2.41595 
 C                    -1.25106   2.56947   3.11419 
 C                    -3.1206   -1.08322  -1.47227 
 C                    -1.57506   1.2883    3.65876 
 C                    -3.62683  -1.9326   -0.29646 
 C                    -0.35385   0.71917   4.19759 
 C                    -2.62907  -3.00623   0.10344 
 C                    -0.17193  -0.64      4.20533 
 C                    -1.7438   -3.54051  -0.77902 
 C                     1.13328  -1.18221   3.92996 
 C                    -0.47512  -4.06265  -0.3272 
 C                     2.21562  -0.32713   3.57876 
 C                     0.4142   -3.95279  -1.44139 
 C                     3.23548  -0.9151    2.81206 
 C                     1.76558  -3.84239  -1.2363 
 C                     4.0523   -0.12955   1.89889 
 C                     2.57704  -2.98252  -2.08889 
 C                     3.75563   1.22339   1.62165 
 C                     1.98132  -2.10804  -3.03225 
 C                     4.01473   1.72394   0.26818 
 C                     2.6214   -0.81115  -3.27676 
 C                     3.2703    2.88009  -0.2313 
 C                     1.70806   3.49547  -2.07301 
 C                     1.23626   2.67311  -3.19026 
 C                     1.82053   0.3168   -3.77663 
 C                     2.41408   3.55428   0.65266 
 C                     0.79101   4.08735  -1.16175 
 C                    -0.14887   2.42436  -3.36193 
 C                     0.44948   0.11041  -4.03996 
 C                    -0.60207   3.95555  -1.41678 
 C                    -1.08      3.1038   -2.51247 
 C                    -1.53894   3.88767  -0.35871 
 C                    -2.29353   2.50808  -2.12054 
 C                    -1.89916   3.08067   1.96329 
 C                    -3.30482   0.29524  -1.48147 
 C                    -2.99019   2.30073   1.47095 
 C                    -4.01672   0.99188  -0.31219 
 C                    -3.33632   2.29445   0.08091 
 C                    -2.62207   3.0369   -0.80644 
 C                    -2.56417   0.45081   3.07975 
 C                    -3.70987  -1.13194   0.98478 
 C                    -2.3615   -0.99307   3.07914 
 C                    -2.92795  -1.74951   2.02074 
 C                    -1.17617  -1.52271   3.65481 
 C                    -2.2592   -2.89023   1.47575 
 C                    -0.48723  -2.63388   3.08579 
 C                    -0.9725   -3.30986   1.94341 
 C                     0.93852  -2.44      3.28125 
 C                    -0.02216  -3.89238   1.00351 
 C                     1.88606  -2.96424   2.37668 
 C                     1.41861  -3.744     1.2273 
 C                     3.11559  -2.24413   2.29067 
 C                     2.28291  -3.82023   0.10563 
 C                     3.94393  -2.32403   1.11748 
 C                     3.53393  -3.0957    0.04839 
 C                     4.54408  -1.02264   0.89534 
 C                     3.71585  -2.60294  -1.31185 
 C                     4.74511  -0.55927  -0.39716 
 C                     4.31138  -1.37062  -1.53136 
 C                     4.51648   0.81186  -0.69978 
 C                     3.79427  -0.50148  -2.53975 
 C                     2.94546   2.97158  -1.62786 
 C                     2.19833   1.65676  -3.43751 
 C                     4.05125   0.85621  -2.07899 
 C                     3.29061   1.89514  -2.52514 
 C                    -3.31405   1.02229   2.01126 
 C                    -3.89599   0.20954   0.97743 
 
 ITRead=  0  0  0  0  0  0  0  0  0  0  0  0  0  0  0  0  0  0  0  0
 ITRead=  0  0  0  0  0  0  0  0  0  0  0  0  0  0  0  0  0  0  0  0
 ITRead=  0  0  0  0  0  0  0  0  0  0  0  0  0  0  0  0  0  0  0  0
 ITRead=  0  0  0  0  0  0  0  0  0  0  0  0  0  0  0  0  0  0  0  0
 ITRead=  0  0  0  0
 MicOpt= -1 -1 -1 -1 -1 -1 -1 -1 -1 -1 -1 -1 -1 -1 -1 -1 -1 -1 -1 -1
 MicOpt= -1 -1 -1 -1 -1 -1 -1 -1 -1 -1 -1 -1 -1 -1 -1 -1 -1 -1 -1 -1
 MicOpt= -1 -1 -1 -1 -1 -1 -1 -1 -1 -1 -1 -1 -1 -1 -1 -1 -1 -1 -1 -1
 MicOpt= -1 -1 -1 -1 -1 -1 -1 -1 -1 -1 -1 -1 -1 -1 -1 -1 -1 -1 -1 -1
 MicOpt= -1 -1 -1 -1
 NAtoms=     84 NQM=       84 NQMF=       0 NMMI=      0 NMMIF=      0
                NMic=       0 NMicF=      0.
                    Isotopes and Nuclear Properties:
 (Nuclear quadrupole moments (NQMom) in fm**2, nuclear magnetic moments (NMagM)
  in nuclear magnetons)

  Atom         1           2           3           4           5           6           7           8           9          10
 IAtWgt=          12          12          12          12          12          12          12          12          12          12
 AtmWgt=  12.0000000  12.0000000  12.0000000  12.0000000  12.0000000  12.0000000  12.0000000  12.0000000  12.0000000  12.0000000
 NucSpn=           0           0           0           0           0           0           0           0           0           0
 AtZEff=  -0.0000000  -0.0000000  -0.0000000  -0.0000000  -0.0000000  -0.0000000  -0.0000000  -0.0000000  -0.0000000  -0.0000000
 NQMom=    0.0000000   0.0000000   0.0000000   0.0000000   0.0000000   0.0000000   0.0000000   0.0000000   0.0000000   0.0000000
 NMagM=    0.0000000   0.0000000   0.0000000   0.0000000   0.0000000   0.0000000   0.0000000   0.0000000   0.0000000   0.0000000
 AtZNuc=   6.0000000   6.0000000   6.0000000   6.0000000   6.0000000   6.0000000   6.0000000   6.0000000   6.0000000   6.0000000

  Atom        11          12          13          14          15          16          17          18          19          20
 IAtWgt=          12          12          12          12          12          12          12          12          12          12
 AtmWgt=  12.0000000  12.0000000  12.0000000  12.0000000  12.0000000  12.0000000  12.0000000  12.0000000  12.0000000  12.0000000
 NucSpn=           0           0           0           0           0           0           0           0           0           0
 AtZEff=  -0.0000000  -0.0000000  -0.0000000  -0.0000000  -0.0000000  -0.0000000  -0.0000000  -0.0000000  -0.0000000  -0.0000000
 NQMom=    0.0000000   0.0000000   0.0000000   0.0000000   0.0000000   0.0000000   0.0000000   0.0000000   0.0000000   0.0000000
 NMagM=    0.0000000   0.0000000   0.0000000   0.0000000   0.0000000   0.0000000   0.0000000   0.0000000   0.0000000   0.0000000
 AtZNuc=   6.0000000   6.0000000   6.0000000   6.0000000   6.0000000   6.0000000   6.0000000   6.0000000   6.0000000   6.0000000

  Atom        21          22          23          24          25          26          27          28          29          30
 IAtWgt=          12          12          12          12          12          12          12          12          12          12
 AtmWgt=  12.0000000  12.0000000  12.0000000  12.0000000  12.0000000  12.0000000  12.0000000  12.0000000  12.0000000  12.0000000
 NucSpn=           0           0           0           0           0           0           0           0           0           0
 AtZEff=  -0.0000000  -0.0000000  -0.0000000  -0.0000000  -0.0000000  -0.0000000  -0.0000000  -0.0000000  -0.0000000  -0.0000000
 NQMom=    0.0000000   0.0000000   0.0000000   0.0000000   0.0000000   0.0000000   0.0000000   0.0000000   0.0000000   0.0000000
 NMagM=    0.0000000   0.0000000   0.0000000   0.0000000   0.0000000   0.0000000   0.0000000   0.0000000   0.0000000   0.0000000
 AtZNuc=   6.0000000   6.0000000   6.0000000   6.0000000   6.0000000   6.0000000   6.0000000   6.0000000   6.0000000   6.0000000

  Atom        31          32          33          34          35          36          37          38          39          40
 IAtWgt=          12          12          12          12          12          12          12          12          12          12
 AtmWgt=  12.0000000  12.0000000  12.0000000  12.0000000  12.0000000  12.0000000  12.0000000  12.0000000  12.0000000  12.0000000
 NucSpn=           0           0           0           0           0           0           0           0           0           0
 AtZEff=  -0.0000000  -0.0000000  -0.0000000  -0.0000000  -0.0000000  -0.0000000  -0.0000000  -0.0000000  -0.0000000  -0.0000000
 NQMom=    0.0000000   0.0000000   0.0000000   0.0000000   0.0000000   0.0000000   0.0000000   0.0000000   0.0000000   0.0000000
 NMagM=    0.0000000   0.0000000   0.0000000   0.0000000   0.0000000   0.0000000   0.0000000   0.0000000   0.0000000   0.0000000
 AtZNuc=   6.0000000   6.0000000   6.0000000   6.0000000   6.0000000   6.0000000   6.0000000   6.0000000   6.0000000   6.0000000

  Atom        41          42          43          44          45          46          47          48          49          50
 IAtWgt=          12          12          12          12          12          12          12          12          12          12
 AtmWgt=  12.0000000  12.0000000  12.0000000  12.0000000  12.0000000  12.0000000  12.0000000  12.0000000  12.0000000  12.0000000
 NucSpn=           0           0           0           0           0           0           0           0           0           0
 AtZEff=  -0.0000000  -0.0000000  -0.0000000  -0.0000000  -0.0000000  -0.0000000  -0.0000000  -0.0000000  -0.0000000  -0.0000000
 NQMom=    0.0000000   0.0000000   0.0000000   0.0000000   0.0000000   0.0000000   0.0000000   0.0000000   0.0000000   0.0000000
 NMagM=    0.0000000   0.0000000   0.0000000   0.0000000   0.0000000   0.0000000   0.0000000   0.0000000   0.0000000   0.0000000
 AtZNuc=   6.0000000   6.0000000   6.0000000   6.0000000   6.0000000   6.0000000   6.0000000   6.0000000   6.0000000   6.0000000

  Atom        51          52          53          54          55          56          57          58          59          60
 IAtWgt=          12          12          12          12          12          12          12          12          12          12
 AtmWgt=  12.0000000  12.0000000  12.0000000  12.0000000  12.0000000  12.0000000  12.0000000  12.0000000  12.0000000  12.0000000
 NucSpn=           0           0           0           0           0           0           0           0           0           0
 AtZEff=  -0.0000000  -0.0000000  -0.0000000  -0.0000000  -0.0000000  -0.0000000  -0.0000000  -0.0000000  -0.0000000  -0.0000000
 NQMom=    0.0000000   0.0000000   0.0000000   0.0000000   0.0000000   0.0000000   0.0000000   0.0000000   0.0000000   0.0000000
 NMagM=    0.0000000   0.0000000   0.0000000   0.0000000   0.0000000   0.0000000   0.0000000   0.0000000   0.0000000   0.0000000
 AtZNuc=   6.0000000   6.0000000   6.0000000   6.0000000   6.0000000   6.0000000   6.0000000   6.0000000   6.0000000   6.0000000

  Atom        61          62          63          64          65          66          67          68          69          70
 IAtWgt=          12          12          12          12          12          12          12          12          12          12
 AtmWgt=  12.0000000  12.0000000  12.0000000  12.0000000  12.0000000  12.0000000  12.0000000  12.0000000  12.0000000  12.0000000
 NucSpn=           0           0           0           0           0           0           0           0           0           0
 AtZEff=  -0.0000000  -0.0000000  -0.0000000  -0.0000000  -0.0000000  -0.0000000  -0.0000000  -0.0000000  -0.0000000  -0.0000000
 NQMom=    0.0000000   0.0000000   0.0000000   0.0000000   0.0000000   0.0000000   0.0000000   0.0000000   0.0000000   0.0000000
 NMagM=    0.0000000   0.0000000   0.0000000   0.0000000   0.0000000   0.0000000   0.0000000   0.0000000   0.0000000   0.0000000
 AtZNuc=   6.0000000   6.0000000   6.0000000   6.0000000   6.0000000   6.0000000   6.0000000   6.0000000   6.0000000   6.0000000

  Atom        71          72          73          74          75          76          77          78          79          80
 IAtWgt=          12          12          12          12          12          12          12          12          12          12
 AtmWgt=  12.0000000  12.0000000  12.0000000  12.0000000  12.0000000  12.0000000  12.0000000  12.0000000  12.0000000  12.0000000
 NucSpn=           0           0           0           0           0           0           0           0           0           0
 AtZEff=  -0.0000000  -0.0000000  -0.0000000  -0.0000000  -0.0000000  -0.0000000  -0.0000000  -0.0000000  -0.0000000  -0.0000000
 NQMom=    0.0000000   0.0000000   0.0000000   0.0000000   0.0000000   0.0000000   0.0000000   0.0000000   0.0000000   0.0000000
 NMagM=    0.0000000   0.0000000   0.0000000   0.0000000   0.0000000   0.0000000   0.0000000   0.0000000   0.0000000   0.0000000
 AtZNuc=   6.0000000   6.0000000   6.0000000   6.0000000   6.0000000   6.0000000   6.0000000   6.0000000   6.0000000   6.0000000

  Atom        81          82          83          84
 IAtWgt=          12          12          12          12
 AtmWgt=  12.0000000  12.0000000  12.0000000  12.0000000
 NucSpn=           0           0           0           0
 AtZEff=  -0.0000000  -0.0000000  -0.0000000  -0.0000000
 NQMom=    0.0000000   0.0000000   0.0000000   0.0000000
 NMagM=    0.0000000   0.0000000   0.0000000   0.0000000
 AtZNuc=   6.0000000   6.0000000   6.0000000   6.0000000
 Leave Link  101 at Wed Apr 26 11:02:41 2023, MaxMem=  1342177280 cpu:               6.6 elap:               0.3
 (Enter /home/mkliu/g16/l103.exe)

 GradGradGradGradGradGradGradGradGradGradGradGradGradGradGradGradGradGrad
 Berny optimization.
 Initialization pass.
                           ----------------------------
                           !    Initial Parameters    !
                           ! (Angstroms and Degrees)  !
 --------------------------                            --------------------------
 ! Name  Definition              Value          Derivative Info.                !
 --------------------------------------------------------------------------------
 ! R1    R(1,5)                  1.4149         estimate D2E/DX2                !
 ! R2    R(1,17)                 1.4285         estimate D2E/DX2                !
 ! R3    R(1,23)                 1.4536         estimate D2E/DX2                !
 ! R4    R(2,6)                  1.4346         estimate D2E/DX2                !
 ! R5    R(2,43)                 1.4406         estimate D2E/DX2                !
 ! R6    R(2,44)                 1.4252         estimate D2E/DX2                !
 ! R7    R(3,7)                  1.4185         estimate D2E/DX2                !
 ! R8    R(3,18)                 1.4217         estimate D2E/DX2                !
 ! R9    R(3,26)                 1.4605         estimate D2E/DX2                !
 ! R10   R(4,8)                  1.4444         estimate D2E/DX2                !
 ! R11   R(4,45)                 1.4154         estimate D2E/DX2                !
 ! R12   R(4,46)                 1.4327         estimate D2E/DX2                !
 ! R13   R(5,9)                  1.4677         estimate D2E/DX2                !
 ! R14   R(5,29)                 1.4627         estimate D2E/DX2                !
 ! R15   R(6,10)                 1.4163         estimate D2E/DX2                !
 ! R16   R(6,15)                 1.4449         estimate D2E/DX2                !
 ! R17   R(7,12)                 1.4316         estimate D2E/DX2                !
 ! R18   R(7,30)                 1.4508         estimate D2E/DX2                !
 ! R19   R(8,11)                 1.4044         estimate D2E/DX2                !
 ! R20   R(8,16)                 1.4298         estimate D2E/DX2                !
 ! R21   R(9,13)                 1.408          estimate D2E/DX2                !
 ! R22   R(9,35)                 1.4672         estimate D2E/DX2                !
 ! R23   R(10,49)                1.4297         estimate D2E/DX2                !
 ! R24   R(10,51)                1.4677         estimate D2E/DX2                !
 ! R25   R(11,50)                1.4384         estimate D2E/DX2                !
 ! R26   R(11,52)                1.4619         estimate D2E/DX2                !
 ! R27   R(12,14)                1.4039         estimate D2E/DX2                !
 ! R28   R(12,36)                1.4692         estimate D2E/DX2                !
 ! R29   R(13,15)                1.4348         estimate D2E/DX2                !
 ! R30   R(13,43)                1.4494         estimate D2E/DX2                !
 ! R31   R(14,16)                1.4353         estimate D2E/DX2                !
 ! R32   R(14,46)                1.4451         estimate D2E/DX2                !
 ! R33   R(15,17)                1.3776         estimate D2E/DX2                !
 ! R34   R(16,18)                1.4099         estimate D2E/DX2                !
 ! R35   R(17,19)                1.4541         estimate D2E/DX2                !
 ! R36   R(18,20)                1.4582         estimate D2E/DX2                !
 ! R37   R(19,21)                1.4293         estimate D2E/DX2                !
 ! R38   R(19,51)                1.4163         estimate D2E/DX2                !
 ! R39   R(20,22)                1.5363         estimate D2E/DX2                !
 ! R40   R(20,52)                1.3907         estimate D2E/DX2                !
 ! R41   R(21,23)                1.4511         estimate D2E/DX2                !
 ! R42   R(21,57)                1.4195         estimate D2E/DX2                !
 ! R43   R(22,24)                1.5192         estimate D2E/DX2                !
 ! R44   R(22,58)                1.5131         estimate D2E/DX2                !
 ! R45   R(23,25)                1.3713         estimate D2E/DX2                !
 ! R46   R(24,26)                1.3594         estimate D2E/DX2                !
 ! R47   R(24,62)                1.426          estimate D2E/DX2                !
 ! R48   R(25,27)                1.4399         estimate D2E/DX2                !
 ! R49   R(25,61)                1.4459         estimate D2E/DX2                !
 ! R50   R(26,28)                1.4444         estimate D2E/DX2                !
 ! R51   R(27,29)                1.4234         estimate D2E/DX2                !
 ! R52   R(27,65)                1.4286         estimate D2E/DX2                !
 ! R53   R(28,30)                1.4298         estimate D2E/DX2                !
 ! R54   R(28,66)                1.416          estimate D2E/DX2                !
 ! R55   R(29,31)                1.4049         estimate D2E/DX2                !
 ! R56   R(30,32)                1.3713         estimate D2E/DX2                !
 ! R57   R(31,33)                1.4554         estimate D2E/DX2                !
 ! R58   R(31,69)                1.4327         estimate D2E/DX2                !
 ! R59   R(32,34)                1.4577         estimate D2E/DX2                !
 ! R60   R(32,70)                1.4384         estimate D2E/DX2                !
 ! R61   R(33,35)                1.4126         estimate D2E/DX2                !
 ! R62   R(33,73)                1.4306         estimate D2E/DX2                !
 ! R63   R(34,36)                1.4176         estimate D2E/DX2                !
 ! R64   R(34,74)                1.4299         estimate D2E/DX2                !
 ! R65   R(35,37)                1.4661         estimate D2E/DX2                !
 ! R66   R(36,38)                1.4668         estimate D2E/DX2                !
 ! R67   R(37,39)                1.463          estimate D2E/DX2                !
 ! R68   R(37,77)                1.4215         estimate D2E/DX2                !
 ! R69   R(38,42)                1.4709         estimate D2E/DX2                !
 ! R70   R(38,78)                1.4194         estimate D2E/DX2                !
 ! R71   R(39,43)                1.4032         estimate D2E/DX2                !
 ! R72   R(39,79)                1.4368         estimate D2E/DX2                !
 ! R73   R(40,41)                1.4653         estimate D2E/DX2                !
 ! R74   R(40,44)                1.4219         estimate D2E/DX2                !
 ! R75   R(40,79)                1.4155         estimate D2E/DX2                !
 ! R76   R(41,45)                1.4177         estimate D2E/DX2                !
 ! R77   R(41,80)                1.4211         estimate D2E/DX2                !
 ! R78   R(42,46)                1.4113         estimate D2E/DX2                !
 ! R79   R(42,80)                1.4329         estimate D2E/DX2                !
 ! R80   R(44,47)                1.4224         estimate D2E/DX2                !
 ! R81   R(45,48)                1.4319         estimate D2E/DX2                !
 ! R82   R(47,48)                1.4678         estimate D2E/DX2                !
 ! R83   R(47,49)                1.4149         estimate D2E/DX2                !
 ! R84   R(48,50)                1.4075         estimate D2E/DX2                !
 ! R85   R(49,56)                1.4483         estimate D2E/DX2                !
 ! R86   R(50,56)                1.4541         estimate D2E/DX2                !
 ! R87   R(51,53)                1.4286         estimate D2E/DX2                !
 ! R88   R(52,54)                1.536          estimate D2E/DX2                !
 ! R89   R(53,55)                1.4325         estimate D2E/DX2                !
 ! R90   R(53,83)                1.4252         estimate D2E/DX2                !
 ! R91   R(54,55)                1.5212         estimate D2E/DX2                !
 ! R92   R(54,84)                1.5132         estimate D2E/DX2                !
 ! R93   R(55,56)                1.3597         estimate D2E/DX2                !
 ! R94   R(57,59)                1.458          estimate D2E/DX2                !
 ! R95   R(57,83)                1.425          estimate D2E/DX2                !
 ! R96   R(58,60)                1.4374         estimate D2E/DX2                !
 ! R97   R(58,84)                1.3544         estimate D2E/DX2                !
 ! R98   R(59,60)                1.4189         estimate D2E/DX2                !
 ! R99   R(59,61)                1.4202         estimate D2E/DX2                !
 ! R100  R(60,62)                1.4302         estimate D2E/DX2                !
 ! R101  R(61,63)                1.4259         estimate D2E/DX2                !
 ! R102  R(62,64)                1.4319         estimate D2E/DX2                !
 ! R103  R(63,64)                1.4133         estimate D2E/DX2                !
 ! R104  R(63,65)                1.4521         estimate D2E/DX2                !
 ! R105  R(64,66)                1.458          estimate D2E/DX2                !
 ! R106  R(65,67)                1.411          estimate D2E/DX2                !
 ! R107  R(66,68)                1.4656         estimate D2E/DX2                !
 ! R108  R(67,68)                1.4655         estimate D2E/DX2                !
 ! R109  R(67,69)                1.4275         estimate D2E/DX2                !
 ! R110  R(68,70)                1.4181         estimate D2E/DX2                !
 ! R111  R(69,71)                1.4384         estimate D2E/DX2                !
 ! R112  R(70,72)                1.4468         estimate D2E/DX2                !
 ! R113  R(71,72)                1.3808         estimate D2E/DX2                !
 ! R114  R(71,73)                1.4502         estimate D2E/DX2                !
 ! R115  R(72,74)                1.4581         estimate D2E/DX2                !
 ! R116  R(73,75)                1.3877         estimate D2E/DX2                !
 ! R117  R(74,76)                1.3862         estimate D2E/DX2                !
 ! R118  R(75,76)                1.4604         estimate D2E/DX2                !
 ! R119  R(75,77)                1.4226         estimate D2E/DX2                !
 ! R120  R(76,78)                1.4282         estimate D2E/DX2                !
 ! R121  R(77,81)                1.4562         estimate D2E/DX2                !
 ! R122  R(78,81)                1.4566         estimate D2E/DX2                !
 ! R123  R(79,82)                1.4432         estimate D2E/DX2                !
 ! R124  R(80,82)                1.443          estimate D2E/DX2                !
 ! R125  R(81,82)                1.3627         estimate D2E/DX2                !
 ! R126  R(83,84)                1.4381         estimate D2E/DX2                !
 ! A1    A(5,1,17)             121.7402         estimate D2E/DX2                !
 ! A2    A(5,1,23)             121.425          estimate D2E/DX2                !
 ! A3    A(17,1,23)            106.1837         estimate D2E/DX2                !
 ! A4    A(6,2,43)             108.3701         estimate D2E/DX2                !
 ! A5    A(6,2,44)             121.0219         estimate D2E/DX2                !
 ! A6    A(43,2,44)            120.8227         estimate D2E/DX2                !
 ! A7    A(7,3,18)             121.3009         estimate D2E/DX2                !
 ! A8    A(7,3,26)             107.5986         estimate D2E/DX2                !
 ! A9    A(18,3,26)            119.8855         estimate D2E/DX2                !
 ! A10   A(8,4,45)             120.4388         estimate D2E/DX2                !
 ! A11   A(8,4,46)             107.7857         estimate D2E/DX2                !
 ! A12   A(45,4,46)            121.4471         estimate D2E/DX2                !
 ! A13   A(1,5,9)              118.4916         estimate D2E/DX2                !
 ! A14   A(1,5,29)             116.8173         estimate D2E/DX2                !
 ! A15   A(9,5,29)             119.3474         estimate D2E/DX2                !
 ! A16   A(2,6,10)             121.6054         estimate D2E/DX2                !
 ! A17   A(2,6,15)             107.2109         estimate D2E/DX2                !
 ! A18   A(10,6,15)            120.7925         estimate D2E/DX2                !
 ! A19   A(3,7,12)             122.3937         estimate D2E/DX2                !
 ! A20   A(3,7,30)             107.4301         estimate D2E/DX2                !
 ! A21   A(12,7,30)            119.9233         estimate D2E/DX2                !
 ! A22   A(4,8,11)             122.2391         estimate D2E/DX2                !
 ! A23   A(4,8,16)             108.1629         estimate D2E/DX2                !
 ! A24   A(11,8,16)            120.9738         estimate D2E/DX2                !
 ! A25   A(5,9,13)             117.877          estimate D2E/DX2                !
 ! A26   A(5,9,35)             120.6781         estimate D2E/DX2                !
 ! A27   A(13,9,35)            117.2023         estimate D2E/DX2                !
 ! A28   A(6,10,49)            116.4274         estimate D2E/DX2                !
 ! A29   A(6,10,51)            118.594          estimate D2E/DX2                !
 ! A30   A(49,10,51)           118.066          estimate D2E/DX2                !
 ! A31   A(8,11,50)            116.1833         estimate D2E/DX2                !
 ! A32   A(8,11,52)            118.3309         estimate D2E/DX2                !
 ! A33   A(50,11,52)           120.2941         estimate D2E/DX2                !
 ! A34   A(7,12,14)            115.3328         estimate D2E/DX2                !
 ! A35   A(7,12,36)            120.2534         estimate D2E/DX2                !
 ! A36   A(14,12,36)           118.8546         estimate D2E/DX2                !
 ! A37   A(9,13,15)            121.9812         estimate D2E/DX2                !
 ! A38   A(9,13,43)            122.1272         estimate D2E/DX2                !
 ! A39   A(15,13,43)           106.9047         estimate D2E/DX2                !
 ! A40   A(12,14,16)           121.497          estimate D2E/DX2                !
 ! A41   A(12,14,46)           121.9405         estimate D2E/DX2                !
 ! A42   A(16,14,46)           107.8827         estimate D2E/DX2                !
 ! A43   A(6,15,13)            109.0276         estimate D2E/DX2                !
 ! A44   A(6,15,17)            120.7122         estimate D2E/DX2                !
 ! A45   A(13,15,17)           119.9369         estimate D2E/DX2                !
 ! A46   A(8,16,14)            108.1523         estimate D2E/DX2                !
 ! A47   A(8,16,18)            121.0251         estimate D2E/DX2                !
 ! A48   A(14,16,18)           122.3993         estimate D2E/DX2                !
 ! A49   A(1,17,15)            119.673          estimate D2E/DX2                !
 ! A50   A(1,17,19)            109.5073         estimate D2E/DX2                !
 ! A51   A(15,17,19)           119.8163         estimate D2E/DX2                !
 ! A52   A(3,18,16)            115.4524         estimate D2E/DX2                !
 ! A53   A(3,18,20)            120.9601         estimate D2E/DX2                !
 ! A54   A(16,18,20)           118.3296         estimate D2E/DX2                !
 ! A55   A(17,19,21)           107.4752         estimate D2E/DX2                !
 ! A56   A(17,19,51)           120.5611         estimate D2E/DX2                !
 ! A57   A(21,19,51)           121.9649         estimate D2E/DX2                !
 ! A58   A(18,20,22)           117.519          estimate D2E/DX2                !
 ! A59   A(18,20,52)           120.5779         estimate D2E/DX2                !
 ! A60   A(22,20,52)           120.6241         estimate D2E/DX2                !
 ! A61   A(19,21,23)           107.5939         estimate D2E/DX2                !
 ! A62   A(19,21,57)           122.099          estimate D2E/DX2                !
 ! A63   A(23,21,57)           120.4301         estimate D2E/DX2                !
 ! A64   A(20,22,24)           112.0716         estimate D2E/DX2                !
 ! A65   A(20,22,58)           111.938          estimate D2E/DX2                !
 ! A66   A(24,22,58)           100.7833         estimate D2E/DX2                !
 ! A67   A(1,23,21)            108.822          estimate D2E/DX2                !
 ! A68   A(1,23,25)            120.6571         estimate D2E/DX2                !
 ! A69   A(21,23,25)           120.1645         estimate D2E/DX2                !
 ! A70   A(22,24,26)           122.3146         estimate D2E/DX2                !
 ! A71   A(22,24,62)           111.4794         estimate D2E/DX2                !
 ! A72   A(26,24,62)           119.1947         estimate D2E/DX2                !
 ! A73   A(23,25,27)           119.4976         estimate D2E/DX2                !
 ! A74   A(23,25,61)           120.7163         estimate D2E/DX2                !
 ! A75   A(27,25,61)           109.0777         estimate D2E/DX2                !
 ! A76   A(3,26,24)            120.4762         estimate D2E/DX2                !
 ! A77   A(3,26,28)            108.6649         estimate D2E/DX2                !
 ! A78   A(24,26,28)           120.7314         estimate D2E/DX2                !
 ! A79   A(25,27,29)           120.6799         estimate D2E/DX2                !
 ! A80   A(25,27,65)           107.1458         estimate D2E/DX2                !
 ! A81   A(29,27,65)           121.3695         estimate D2E/DX2                !
 ! A82   A(26,28,30)           105.9488         estimate D2E/DX2                !
 ! A83   A(26,28,66)           122.1057         estimate D2E/DX2                !
 ! A84   A(30,28,66)           121.6094         estimate D2E/DX2                !
 ! A85   A(5,29,27)            120.1876         estimate D2E/DX2                !
 ! A86   A(5,29,31)            118.551          estimate D2E/DX2                !
 ! A87   A(27,29,31)           115.8014         estimate D2E/DX2                !
 ! A88   A(7,30,28)            109.6487         estimate D2E/DX2                !
 ! A89   A(7,30,32)            120.0469         estimate D2E/DX2                !
 ! A90   A(28,30,32)           120.1713         estimate D2E/DX2                !
 ! A91   A(29,31,33)           121.598          estimate D2E/DX2                !
 ! A92   A(29,31,69)           121.7427         estimate D2E/DX2                !
 ! A93   A(33,31,69)           108.6225         estimate D2E/DX2                !
 ! A94   A(30,32,34)           120.5718         estimate D2E/DX2                !
 ! A95   A(30,32,70)           119.6836         estimate D2E/DX2                !
 ! A96   A(34,32,70)           109.6563         estimate D2E/DX2                !
 ! A97   A(31,33,35)           121.4827         estimate D2E/DX2                !
 ! A98   A(31,33,73)           107.2247         estimate D2E/DX2                !
 ! A99   A(35,33,73)           122.1712         estimate D2E/DX2                !
 ! A100  A(32,34,36)           121.2783         estimate D2E/DX2                !
 ! A101  A(32,34,74)           106.3852         estimate D2E/DX2                !
 ! A102  A(36,34,74)           122.1777         estimate D2E/DX2                !
 ! A103  A(9,35,33)            117.2559         estimate D2E/DX2                !
 ! A104  A(9,35,37)            120.3743         estimate D2E/DX2                !
 ! A105  A(33,35,37)           118.1038         estimate D2E/DX2                !
 ! A106  A(12,36,34)           117.1791         estimate D2E/DX2                !
 ! A107  A(12,36,38)           119.4089         estimate D2E/DX2                !
 ! A108  A(34,36,38)           118.2282         estimate D2E/DX2                !
 ! A109  A(35,37,39)           119.6735         estimate D2E/DX2                !
 ! A110  A(35,37,77)           118.1601         estimate D2E/DX2                !
 ! A111  A(39,37,77)           117.0131         estimate D2E/DX2                !
 ! A112  A(36,38,42)           119.807          estimate D2E/DX2                !
 ! A113  A(36,38,78)           117.8359         estimate D2E/DX2                !
 ! A114  A(42,38,78)           117.3266         estimate D2E/DX2                !
 ! A115  A(37,39,43)           118.366          estimate D2E/DX2                !
 ! A116  A(37,39,79)           119.8171         estimate D2E/DX2                !
 ! A117  A(43,39,79)           116.3446         estimate D2E/DX2                !
 ! A118  A(41,40,44)           120.9714         estimate D2E/DX2                !
 ! A119  A(41,40,79)           108.2722         estimate D2E/DX2                !
 ! A120  A(44,40,79)           121.0856         estimate D2E/DX2                !
 ! A121  A(40,41,45)           120.3565         estimate D2E/DX2                !
 ! A122  A(40,41,80)           108.4237         estimate D2E/DX2                !
 ! A123  A(45,41,80)           120.9878         estimate D2E/DX2                !
 ! A124  A(38,42,46)           118.7            estimate D2E/DX2                !
 ! A125  A(38,42,80)           119.5459         estimate D2E/DX2                !
 ! A126  A(46,42,80)           115.9161         estimate D2E/DX2                !
 ! A127  A(2,43,13)            108.1722         estimate D2E/DX2                !
 ! A128  A(2,43,39)            121.7657         estimate D2E/DX2                !
 ! A129  A(13,43,39)           121.4712         estimate D2E/DX2                !
 ! A130  A(2,44,40)            117.1141         estimate D2E/DX2                !
 ! A131  A(2,44,47)            117.2326         estimate D2E/DX2                !
 ! A132  A(40,44,47)           118.5683         estimate D2E/DX2                !
 ! A133  A(4,45,41)            117.1797         estimate D2E/DX2                !
 ! A134  A(4,45,48)            117.0975         estimate D2E/DX2                !
 ! A135  A(41,45,48)           118.7014         estimate D2E/DX2                !
 ! A136  A(4,46,14)            107.9477         estimate D2E/DX2                !
 ! A137  A(4,46,42)            121.7653         estimate D2E/DX2                !
 ! A138  A(14,46,42)           121.2023         estimate D2E/DX2                !
 ! A139  A(44,47,48)           120.4325         estimate D2E/DX2                !
 ! A140  A(44,47,49)           121.258          estimate D2E/DX2                !
 ! A141  A(48,47,49)           108.3486         estimate D2E/DX2                !
 ! A142  A(45,48,47)           120.4298         estimate D2E/DX2                !
 ! A143  A(45,48,50)           121.6695         estimate D2E/DX2                !
 ! A144  A(47,48,50)           108.5703         estimate D2E/DX2                !
 ! A145  A(10,49,47)           122.0711         estimate D2E/DX2                !
 ! A146  A(10,49,56)           120.7852         estimate D2E/DX2                !
 ! A147  A(47,49,56)           106.9906         estimate D2E/DX2                !
 ! A148  A(11,50,48)           121.3437         estimate D2E/DX2                !
 ! A149  A(11,50,56)           120.0283         estimate D2E/DX2                !
 ! A150  A(48,50,56)           107.0087         estimate D2E/DX2                !
 ! A151  A(10,51,19)           119.3171         estimate D2E/DX2                !
 ! A152  A(10,51,53)           118.5642         estimate D2E/DX2                !
 ! A153  A(19,51,53)           115.6235         estimate D2E/DX2                !
 ! A154  A(11,52,20)           120.7277         estimate D2E/DX2                !
 ! A155  A(11,52,54)           117.6366         estimate D2E/DX2                !
 ! A156  A(20,52,54)           120.3903         estimate D2E/DX2                !
 ! A157  A(51,53,55)           121.421          estimate D2E/DX2                !
 ! A158  A(51,53,83)           122.1806         estimate D2E/DX2                !
 ! A159  A(55,53,83)           108.0007         estimate D2E/DX2                !
 ! A160  A(52,54,55)           112.1948         estimate D2E/DX2                !
 ! A161  A(52,54,84)           112.1672         estimate D2E/DX2                !
 ! A162  A(55,54,84)           100.765          estimate D2E/DX2                !
 ! A163  A(53,55,54)           111.2584         estimate D2E/DX2                !
 ! A164  A(53,55,56)           120.2616         estimate D2E/DX2                !
 ! A165  A(54,55,56)           122.2668         estimate D2E/DX2                !
 ! A166  A(49,56,50)           108.9075         estimate D2E/DX2                !
 ! A167  A(49,56,55)           120.7888         estimate D2E/DX2                !
 ! A168  A(50,56,55)           120.6558         estimate D2E/DX2                !
 ! A169  A(21,57,59)           119.1813         estimate D2E/DX2                !
 ! A170  A(21,57,83)           115.8439         estimate D2E/DX2                !
 ! A171  A(59,57,83)           118.0334         estimate D2E/DX2                !
 ! A172  A(22,58,60)           110.6765         estimate D2E/DX2                !
 ! A173  A(22,58,84)           121.8069         estimate D2E/DX2                !
 ! A174  A(60,58,84)           120.2809         estimate D2E/DX2                !
 ! A175  A(57,59,60)           118.2136         estimate D2E/DX2                !
 ! A176  A(57,59,61)           119.0231         estimate D2E/DX2                !
 ! A177  A(60,59,61)           115.8964         estimate D2E/DX2                !
 ! A178  A(58,60,59)           121.7183         estimate D2E/DX2                !
 ! A179  A(58,60,62)           108.8089         estimate D2E/DX2                !
 ! A180  A(59,60,62)           121.5188         estimate D2E/DX2                !
 ! A181  A(25,61,59)           120.4195         estimate D2E/DX2                !
 ! A182  A(25,61,63)           106.9846         estimate D2E/DX2                !
 ! A183  A(59,61,63)           122.1492         estimate D2E/DX2                !
 ! A184  A(24,62,60)           108.0777         estimate D2E/DX2                !
 ! A185  A(24,62,64)           121.5694         estimate D2E/DX2                !
 ! A186  A(60,62,64)           121.9688         estimate D2E/DX2                !
 ! A187  A(61,63,64)           121.9651         estimate D2E/DX2                !
 ! A188  A(61,63,65)           108.4596         estimate D2E/DX2                !
 ! A189  A(64,63,65)           120.6496         estimate D2E/DX2                !
 ! A190  A(62,64,63)           115.6169         estimate D2E/DX2                !
 ! A191  A(62,64,66)           119.4876         estimate D2E/DX2                !
 ! A192  A(63,64,66)           119.2324         estimate D2E/DX2                !
 ! A193  A(27,65,63)           108.2124         estimate D2E/DX2                !
 ! A194  A(27,65,67)           121.7821         estimate D2E/DX2                !
 ! A195  A(63,65,67)           121.5644         estimate D2E/DX2                !
 ! A196  A(28,66,64)           116.4463         estimate D2E/DX2                !
 ! A197  A(28,66,68)           118.0448         estimate D2E/DX2                !
 ! A198  A(64,66,68)           120.1238         estimate D2E/DX2                !
 ! A199  A(65,67,68)           119.0975         estimate D2E/DX2                !
 ! A200  A(65,67,69)           115.4431         estimate D2E/DX2                !
 ! A201  A(68,67,69)           119.7295         estimate D2E/DX2                !
 ! A202  A(66,68,67)           119.1574         estimate D2E/DX2                !
 ! A203  A(66,68,70)           118.2253         estimate D2E/DX2                !
 ! A204  A(67,68,70)           117.0368         estimate D2E/DX2                !
 ! A205  A(31,69,67)           121.2063         estimate D2E/DX2                !
 ! A206  A(31,69,71)           107.4683         estimate D2E/DX2                !
 ! A207  A(67,69,71)           121.1409         estimate D2E/DX2                !
 ! A208  A(32,70,68)           121.3029         estimate D2E/DX2                !
 ! A209  A(32,70,72)           106.3677         estimate D2E/DX2                !
 ! A210  A(68,70,72)           122.0983         estimate D2E/DX2                !
 ! A211  A(69,71,72)           119.4441         estimate D2E/DX2                !
 ! A212  A(69,71,73)           108.2645         estimate D2E/DX2                !
 ! A213  A(72,71,73)           120.3841         estimate D2E/DX2                !
 ! A214  A(70,72,71)           120.397          estimate D2E/DX2                !
 ! A215  A(70,72,74)           108.3013         estimate D2E/DX2                !
 ! A216  A(71,72,74)           119.7608         estimate D2E/DX2                !
 ! A217  A(33,73,71)           108.0895         estimate D2E/DX2                !
 ! A218  A(33,73,75)           119.6514         estimate D2E/DX2                !
 ! A219  A(71,73,75)           120.1498         estimate D2E/DX2                !
 ! A220  A(34,74,72)           108.5335         estimate D2E/DX2                !
 ! A221  A(34,74,76)           119.478          estimate D2E/DX2                !
 ! A222  A(72,74,76)           120.1164         estimate D2E/DX2                !
 ! A223  A(73,75,76)           119.6581         estimate D2E/DX2                !
 ! A224  A(73,75,77)           119.7802         estimate D2E/DX2                !
 ! A225  A(76,75,77)           108.8154         estimate D2E/DX2                !
 ! A226  A(74,76,75)           119.9015         estimate D2E/DX2                !
 ! A227  A(74,76,78)           119.8202         estimate D2E/DX2                !
 ! A228  A(75,76,78)           108.5294         estimate D2E/DX2                !
 ! A229  A(37,77,75)           122.0255         estimate D2E/DX2                !
 ! A230  A(37,77,81)           120.8386         estimate D2E/DX2                !
 ! A231  A(75,77,81)           106.3894         estimate D2E/DX2                !
 ! A232  A(38,78,76)           122.2109         estimate D2E/DX2                !
 ! A233  A(38,78,81)           120.8899         estimate D2E/DX2                !
 ! A234  A(76,78,81)           106.2613         estimate D2E/DX2                !
 ! A235  A(39,79,40)           121.7949         estimate D2E/DX2                !
 ! A236  A(39,79,82)           120.1817         estimate D2E/DX2                !
 ! A237  A(40,79,82)           106.8327         estimate D2E/DX2                !
 ! A238  A(41,80,42)           122.1039         estimate D2E/DX2                !
 ! A239  A(41,80,82)           106.516          estimate D2E/DX2                !
 ! A240  A(42,80,82)           120.2439         estimate D2E/DX2                !
 ! A241  A(77,81,78)           109.1214         estimate D2E/DX2                !
 ! A242  A(77,81,82)           120.7719         estimate D2E/DX2                !
 ! A243  A(78,81,82)           120.5699         estimate D2E/DX2                !
 ! A244  A(79,82,80)           109.5889         estimate D2E/DX2                !
 ! A245  A(79,82,81)           119.9059         estimate D2E/DX2                !
 ! A246  A(80,82,81)           120.236          estimate D2E/DX2                !
 ! A247  A(53,83,57)           121.6298         estimate D2E/DX2                !
 ! A248  A(53,83,84)           109.0492         estimate D2E/DX2                !
 ! A249  A(57,83,84)           121.6918         estimate D2E/DX2                !
 ! A250  A(54,84,58)           121.8494         estimate D2E/DX2                !
 ! A251  A(54,84,83)           110.6573         estimate D2E/DX2                !
 ! A252  A(58,84,83)           120.0186         estimate D2E/DX2                !
 ! D1    D(17,1,5,9)             4.1449         estimate D2E/DX2                !
 ! D2    D(17,1,5,29)         -149.9111         estimate D2E/DX2                !
 ! D3    D(23,1,5,9)           143.7876         estimate D2E/DX2                !
 ! D4    D(23,1,5,29)          -10.2683         estimate D2E/DX2                !
 ! D5    D(5,1,17,15)           -5.4207         estimate D2E/DX2                !
 ! D6    D(5,1,17,19)          138.5738         estimate D2E/DX2                !
 ! D7    D(23,1,17,15)        -150.295          estimate D2E/DX2                !
 ! D8    D(23,1,17,19)          -6.3006         estimate D2E/DX2                !
 ! D9    D(5,1,23,21)         -138.623          estimate D2E/DX2                !
 ! D10   D(5,1,23,25)            6.3784         estimate D2E/DX2                !
 ! D11   D(17,1,23,21)           6.3873         estimate D2E/DX2                !
 ! D12   D(17,1,23,25)         151.3887         estimate D2E/DX2                !
 ! D13   D(43,2,6,10)         -142.3654         estimate D2E/DX2                !
 ! D14   D(43,2,6,15)            2.7062         estimate D2E/DX2                !
 ! D15   D(44,2,6,10)            3.7034         estimate D2E/DX2                !
 ! D16   D(44,2,6,15)          148.775          estimate D2E/DX2                !
 ! D17   D(6,2,43,13)            0.8023         estimate D2E/DX2                !
 ! D18   D(6,2,43,39)          148.9634         estimate D2E/DX2                !
 ! D19   D(44,2,43,13)        -145.3466         estimate D2E/DX2                !
 ! D20   D(44,2,43,39)           2.8144         estimate D2E/DX2                !
 ! D21   D(6,2,44,40)         -149.3556         estimate D2E/DX2                !
 ! D22   D(6,2,44,47)            0.8417         estimate D2E/DX2                !
 ! D23   D(43,2,44,40)          -7.4443         estimate D2E/DX2                !
 ! D24   D(43,2,44,47)         142.753          estimate D2E/DX2                !
 ! D25   D(18,3,7,12)           -1.1538         estimate D2E/DX2                !
 ! D26   D(18,3,7,30)          143.7711         estimate D2E/DX2                !
 ! D27   D(26,3,7,12)         -144.7292         estimate D2E/DX2                !
 ! D28   D(26,3,7,30)            0.1957         estimate D2E/DX2                !
 ! D29   D(7,3,18,16)           10.9348         estimate D2E/DX2                !
 ! D30   D(7,3,18,20)         -143.014          estimate D2E/DX2                !
 ! D31   D(26,3,18,16)         150.1833         estimate D2E/DX2                !
 ! D32   D(26,3,18,20)          -3.7655         estimate D2E/DX2                !
 ! D33   D(7,3,26,24)          150.5484         estimate D2E/DX2                !
 ! D34   D(7,3,26,28)            4.9965         estimate D2E/DX2                !
 ! D35   D(18,3,26,24)           6.3623         estimate D2E/DX2                !
 ! D36   D(18,3,26,28)        -139.1896         estimate D2E/DX2                !
 ! D37   D(45,4,8,11)           -0.0661         estimate D2E/DX2                !
 ! D38   D(45,4,8,16)         -147.9817         estimate D2E/DX2                !
 ! D39   D(46,4,8,11)          145.4196         estimate D2E/DX2                !
 ! D40   D(46,4,8,16)           -2.4959         estimate D2E/DX2                !
 ! D41   D(8,4,45,41)          144.9384         estimate D2E/DX2                !
 ! D42   D(8,4,45,48)           -5.4222         estimate D2E/DX2                !
 ! D43   D(46,4,45,41)           4.1672         estimate D2E/DX2                !
 ! D44   D(46,4,45,48)        -146.1934         estimate D2E/DX2                !
 ! D45   D(8,4,46,14)            2.6456         estimate D2E/DX2                !
 ! D46   D(8,4,46,42)         -144.6068         estimate D2E/DX2                !
 ! D47   D(45,4,46,14)         147.7125         estimate D2E/DX2                !
 ! D48   D(45,4,46,42)           0.46           estimate D2E/DX2                !
 ! D49   D(1,5,9,13)             0.758          estimate D2E/DX2                !
 ! D50   D(1,5,9,35)          -155.4621         estimate D2E/DX2                !
 ! D51   D(29,5,9,13)          154.1473         estimate D2E/DX2                !
 ! D52   D(29,5,9,35)           -2.0728         estimate D2E/DX2                !
 ! D53   D(1,5,29,27)            7.4859         estimate D2E/DX2                !
 ! D54   D(1,5,29,31)          160.331          estimate D2E/DX2                !
 ! D55   D(9,5,29,27)         -146.3388         estimate D2E/DX2                !
 ! D56   D(9,5,29,31)            6.5063         estimate D2E/DX2                !
 ! D57   D(2,6,10,49)           -7.191          estimate D2E/DX2                !
 ! D58   D(2,6,10,51)          143.1842         estimate D2E/DX2                !
 ! D59   D(15,6,10,49)        -147.6472         estimate D2E/DX2                !
 ! D60   D(15,6,10,51)           2.728          estimate D2E/DX2                !
 ! D61   D(2,6,15,13)           -5.2686         estimate D2E/DX2                !
 ! D62   D(2,6,15,17)         -150.2409         estimate D2E/DX2                !
 ! D63   D(10,6,15,13)         140.1445         estimate D2E/DX2                !
 ! D64   D(10,6,15,17)          -4.8277         estimate D2E/DX2                !
 ! D65   D(3,7,12,14)           -9.2668         estimate D2E/DX2                !
 ! D66   D(3,7,12,36)          144.1433         estimate D2E/DX2                !
 ! D67   D(30,7,12,14)        -150.0252         estimate D2E/DX2                !
 ! D68   D(30,7,12,36)           3.385          estimate D2E/DX2                !
 ! D69   D(3,7,30,28)           -5.4054         estimate D2E/DX2                !
 ! D70   D(3,7,30,32)         -150.7957         estimate D2E/DX2                !
 ! D71   D(12,7,30,28)         140.5485         estimate D2E/DX2                !
 ! D72   D(12,7,30,32)          -4.8418         estimate D2E/DX2                !
 ! D73   D(4,8,11,50)            8.4846         estimate D2E/DX2                !
 ! D74   D(4,8,11,52)         -146.1651         estimate D2E/DX2                !
 ! D75   D(16,8,11,50)         152.4239         estimate D2E/DX2                !
 ! D76   D(16,8,11,52)          -2.2258         estimate D2E/DX2                !
 ! D77   D(4,8,16,14)            1.3758         estimate D2E/DX2                !
 ! D78   D(4,8,16,18)          150.1588         estimate D2E/DX2                !
 ! D79   D(11,8,16,14)        -147.0233         estimate D2E/DX2                !
 ! D80   D(11,8,16,18)           1.7596         estimate D2E/DX2                !
 ! D81   D(5,9,13,15)           -4.4827         estimate D2E/DX2                !
 ! D82   D(5,9,13,43)         -147.3184         estimate D2E/DX2                !
 ! D83   D(35,9,13,15)         152.5679         estimate D2E/DX2                !
 ! D84   D(35,9,13,43)           9.7322         estimate D2E/DX2                !
 ! D85   D(5,9,35,33)           -7.0151         estimate D2E/DX2                !
 ! D86   D(5,9,35,37)          149.3539         estimate D2E/DX2                !
 ! D87   D(13,9,35,33)        -163.3896         estimate D2E/DX2                !
 ! D88   D(13,9,35,37)          -7.0206         estimate D2E/DX2                !
 ! D89   D(6,10,49,47)           6.5306         estimate D2E/DX2                !
 ! D90   D(6,10,49,56)         147.3094         estimate D2E/DX2                !
 ! D91   D(51,10,49,47)       -144.0059         estimate D2E/DX2                !
 ! D92   D(51,10,49,56)         -3.2272         estimate D2E/DX2                !
 ! D93   D(6,10,51,19)           1.4545         estimate D2E/DX2                !
 ! D94   D(6,10,51,53)        -149.0551         estimate D2E/DX2                !
 ! D95   D(49,10,51,19)        151.3451         estimate D2E/DX2                !
 ! D96   D(49,10,51,53)          0.8354         estimate D2E/DX2                !
 ! D97   D(8,11,50,48)         -11.6839         estimate D2E/DX2                !
 ! D98   D(8,11,50,56)        -150.0702         estimate D2E/DX2                !
 ! D99   D(52,11,50,48)        142.4373         estimate D2E/DX2                !
 ! D100  D(52,11,50,56)          4.051          estimate D2E/DX2                !
 ! D101  D(8,11,52,20)           1.2116         estimate D2E/DX2                !
 ! D102  D(8,11,52,54)         168.5123         estimate D2E/DX2                !
 ! D103  D(50,11,52,20)       -152.3663         estimate D2E/DX2                !
 ! D104  D(50,11,52,54)         14.9344         estimate D2E/DX2                !
 ! D105  D(7,12,14,16)           9.6815         estimate D2E/DX2                !
 ! D106  D(7,12,14,46)         153.4244         estimate D2E/DX2                !
 ! D107  D(36,12,14,16)       -144.1223         estimate D2E/DX2                !
 ! D108  D(36,12,14,46)         -0.3793         estimate D2E/DX2                !
 ! D109  D(7,12,36,34)           3.695          estimate D2E/DX2                !
 ! D110  D(7,12,36,38)        -150.4331         estimate D2E/DX2                !
 ! D111  D(14,12,36,34)        156.1849         estimate D2E/DX2                !
 ! D112  D(14,12,36,38)          2.0568         estimate D2E/DX2                !
 ! D113  D(9,13,15,6)         -141.9452         estimate D2E/DX2                !
 ! D114  D(9,13,15,17)           3.3431         estimate D2E/DX2                !
 ! D115  D(43,13,15,6)           5.7312         estimate D2E/DX2                !
 ! D116  D(43,13,15,17)        151.0195         estimate D2E/DX2                !
 ! D117  D(9,13,43,2)          143.609          estimate D2E/DX2                !
 ! D118  D(9,13,43,39)          -4.6644         estimate D2E/DX2                !
 ! D119  D(15,13,43,2)          -4.0095         estimate D2E/DX2                !
 ! D120  D(15,13,43,39)       -152.2829         estimate D2E/DX2                !
 ! D121  D(12,14,16,8)         148.4343         estimate D2E/DX2                !
 ! D122  D(12,14,16,18)          0.1713         estimate D2E/DX2                !
 ! D123  D(46,14,16,8)           0.2606         estimate D2E/DX2                !
 ! D124  D(46,14,16,18)       -148.0024         estimate D2E/DX2                !
 ! D125  D(12,14,46,4)        -149.8118         estimate D2E/DX2                !
 ! D126  D(12,14,46,42)         -2.3386         estimate D2E/DX2                !
 ! D127  D(16,14,46,4)          -1.8088         estimate D2E/DX2                !
 ! D128  D(16,14,46,42)        145.6645         estimate D2E/DX2                !
 ! D129  D(6,15,17,1)          142.8801         estimate D2E/DX2                !
 ! D130  D(6,15,17,19)           2.5723         estimate D2E/DX2                !
 ! D131  D(13,15,17,1)           1.6472         estimate D2E/DX2                !
 ! D132  D(13,15,17,19)       -138.6606         estimate D2E/DX2                !
 ! D133  D(8,16,18,3)         -154.8738         estimate D2E/DX2                !
 ! D134  D(8,16,18,20)          -0.2047         estimate D2E/DX2                !
 ! D135  D(14,16,18,3)         -10.5558         estimate D2E/DX2                !
 ! D136  D(14,16,18,20)        144.1134         estimate D2E/DX2                !
 ! D137  D(1,17,19,21)           3.8872         estimate D2E/DX2                !
 ! D138  D(1,17,19,51)        -142.2578         estimate D2E/DX2                !
 ! D139  D(15,17,19,21)        147.822          estimate D2E/DX2                !
 ! D140  D(15,17,19,51)          1.677          estimate D2E/DX2                !
 ! D141  D(3,18,20,22)         -14.7421         estimate D2E/DX2                !
 ! D142  D(3,18,20,52)         152.4215         estimate D2E/DX2                !
 ! D143  D(16,18,20,22)       -167.966          estimate D2E/DX2                !
 ! D144  D(16,18,20,52)         -0.8025         estimate D2E/DX2                !
 ! D145  D(17,19,21,23)          0.1769         estimate D2E/DX2                !
 ! D146  D(17,19,21,57)       -145.5268         estimate D2E/DX2                !
 ! D147  D(51,19,21,23)        145.7439         estimate D2E/DX2                !
 ! D148  D(51,19,21,57)          0.0401         estimate D2E/DX2                !
 ! D149  D(17,19,51,10)         -3.6769         estimate D2E/DX2                !
 ! D150  D(17,19,51,53)        147.6693         estimate D2E/DX2                !
 ! D151  D(21,19,51,10)       -144.8952         estimate D2E/DX2                !
 ! D152  D(21,19,51,53)          6.451          estimate D2E/DX2                !
 ! D153  D(18,20,22,24)         28.6036         estimate D2E/DX2                !
 ! D154  D(18,20,22,58)        140.997          estimate D2E/DX2                !
 ! D155  D(52,20,22,24)       -138.5537         estimate D2E/DX2                !
 ! D156  D(52,20,22,58)        -26.1603         estimate D2E/DX2                !
 ! D157  D(18,20,52,11)          0.2991         estimate D2E/DX2                !
 ! D158  D(18,20,52,54)       -166.6525         estimate D2E/DX2                !
 ! D159  D(22,20,52,11)        167.0628         estimate D2E/DX2                !
 ! D160  D(22,20,52,54)          0.1112         estimate D2E/DX2                !
 ! D161  D(19,21,23,1)          -4.0933         estimate D2E/DX2                !
 ! D162  D(19,21,23,25)       -149.2965         estimate D2E/DX2                !
 ! D163  D(57,21,23,1)         142.2927         estimate D2E/DX2                !
 ! D164  D(57,21,23,25)         -2.9104         estimate D2E/DX2                !
 ! D165  D(19,21,57,59)        143.8075         estimate D2E/DX2                !
 ! D166  D(19,21,57,83)         -6.4918         estimate D2E/DX2                !
 ! D167  D(23,21,57,59)          2.3375         estimate D2E/DX2                !
 ! D168  D(23,21,57,83)       -147.9618         estimate D2E/DX2                !
 ! D169  D(20,22,24,26)        -27.4521         estimate D2E/DX2                !
 ! D170  D(20,22,24,62)        122.9069         estimate D2E/DX2                !
 ! D171  D(58,22,24,26)       -146.6364         estimate D2E/DX2                !
 ! D172  D(58,22,24,62)          3.7226         estimate D2E/DX2                !
 ! D173  D(20,22,58,60)       -123.4209         estimate D2E/DX2                !
 ! D174  D(20,22,58,84)         26.8354         estimate D2E/DX2                !
 ! D175  D(24,22,58,60)         -4.1401         estimate D2E/DX2                !
 ! D176  D(24,22,58,84)        146.1162         estimate D2E/DX2                !
 ! D177  D(1,23,25,27)           0.7881         estimate D2E/DX2                !
 ! D178  D(1,23,25,61)        -139.8293         estimate D2E/DX2                !
 ! D179  D(21,23,25,27)        141.8918         estimate D2E/DX2                !
 ! D180  D(21,23,25,61)          1.2744         estimate D2E/DX2                !
 ! D181  D(22,24,26,3)          10.5779         estimate D2E/DX2                !
 ! D182  D(22,24,26,28)        152.0087         estimate D2E/DX2                !
 ! D183  D(62,24,26,3)        -137.6066         estimate D2E/DX2                !
 ! D184  D(62,24,26,28)          3.8242         estimate D2E/DX2                !
 ! D185  D(22,24,62,60)         -2.0352         estimate D2E/DX2                !
 ! D186  D(22,24,62,64)       -150.714          estimate D2E/DX2                !
 ! D187  D(26,24,62,60)        149.3583         estimate D2E/DX2                !
 ! D188  D(26,24,62,64)          0.6796         estimate D2E/DX2                !
 ! D189  D(23,25,27,29)         -3.4679         estimate D2E/DX2                !
 ! D190  D(23,25,27,65)       -148.2003         estimate D2E/DX2                !
 ! D191  D(61,25,27,29)        141.2795         estimate D2E/DX2                !
 ! D192  D(61,25,27,65)         -3.4528         estimate D2E/DX2                !
 ! D193  D(23,25,61,59)          0.8807         estimate D2E/DX2                !
 ! D194  D(23,25,61,63)        146.4237         estimate D2E/DX2                !
 ! D195  D(27,25,61,59)       -143.3626         estimate D2E/DX2                !
 ! D196  D(27,25,61,63)          2.1803         estimate D2E/DX2                !
 ! D197  D(3,26,28,30)          -8.1545         estimate D2E/DX2                !
 ! D198  D(3,26,28,66)         137.2147         estimate D2E/DX2                !
 ! D199  D(24,26,28,30)       -153.6027         estimate D2E/DX2                !
 ! D200  D(24,26,28,66)         -8.2335         estimate D2E/DX2                !
 ! D201  D(25,27,29,5)          -0.7778         estimate D2E/DX2                !
 ! D202  D(25,27,29,31)       -154.336          estimate D2E/DX2                !
 ! D203  D(65,27,29,5)         138.9672         estimate D2E/DX2                !
 ! D204  D(65,27,29,31)        -14.5911         estimate D2E/DX2                !
 ! D205  D(25,27,65,63)          3.3685         estimate D2E/DX2                !
 ! D206  D(25,27,65,67)        151.8119         estimate D2E/DX2                !
 ! D207  D(29,27,65,63)       -141.069          estimate D2E/DX2                !
 ! D208  D(29,27,65,67)          7.3745         estimate D2E/DX2                !
 ! D209  D(26,28,30,7)           8.3519         estimate D2E/DX2                !
 ! D210  D(26,28,30,32)        153.6924         estimate D2E/DX2                !
 ! D211  D(66,28,30,7)        -137.2294         estimate D2E/DX2                !
 ! D212  D(66,28,30,32)          8.1111         estimate D2E/DX2                !
 ! D213  D(26,28,66,64)          7.4827         estimate D2E/DX2                !
 ! D214  D(26,28,66,68)       -146.6857         estimate D2E/DX2                !
 ! D215  D(30,28,66,64)        147.5716         estimate D2E/DX2                !
 ! D216  D(30,28,66,68)         -6.5968         estimate D2E/DX2                !
 ! D217  D(5,29,31,33)          -1.8984         estimate D2E/DX2                !
 ! D218  D(5,29,31,69)        -147.1255         estimate D2E/DX2                !
 ! D219  D(27,29,31,33)        152.1134         estimate D2E/DX2                !
 ! D220  D(27,29,31,69)          6.8863         estimate D2E/DX2                !
 ! D221  D(7,30,32,34)          -0.8764         estimate D2E/DX2                !
 ! D222  D(7,30,32,70)         140.976          estimate D2E/DX2                !
 ! D223  D(28,30,32,34)       -142.6527         estimate D2E/DX2                !
 ! D224  D(28,30,32,70)         -0.8004         estimate D2E/DX2                !
 ! D225  D(29,31,33,35)         -7.6846         estimate D2E/DX2                !
 ! D226  D(29,31,33,73)       -155.1992         estimate D2E/DX2                !
 ! D227  D(69,31,33,35)        141.5308         estimate D2E/DX2                !
 ! D228  D(69,31,33,73)         -5.9838         estimate D2E/DX2                !
 ! D229  D(29,31,69,67)          8.3696         estimate D2E/DX2                !
 ! D230  D(29,31,69,71)        153.9066         estimate D2E/DX2                !
 ! D231  D(33,31,69,67)       -140.7925         estimate D2E/DX2                !
 ! D232  D(33,31,69,71)          4.7445         estimate D2E/DX2                !
 ! D233  D(30,32,34,36)          8.3426         estimate D2E/DX2                !
 ! D234  D(30,32,34,74)        154.248          estimate D2E/DX2                !
 ! D235  D(70,32,34,36)       -136.9185         estimate D2E/DX2                !
 ! D236  D(70,32,34,74)          8.987          estimate D2E/DX2                !
 ! D237  D(30,32,70,68)         -7.8823         estimate D2E/DX2                !
 ! D238  D(30,32,70,72)       -153.6503         estimate D2E/DX2                !
 ! D239  D(34,32,70,68)        137.7338         estimate D2E/DX2                !
 ! D240  D(34,32,70,72)         -8.0342         estimate D2E/DX2                !
 ! D241  D(31,33,35,9)          11.8565         estimate D2E/DX2                !
 ! D242  D(31,33,35,37)       -145.0615         estimate D2E/DX2                !
 ! D243  D(73,33,35,9)         154.5521         estimate D2E/DX2                !
 ! D244  D(73,33,35,37)         -2.3659         estimate D2E/DX2                !
 ! D245  D(31,33,73,71)          4.8619         estimate D2E/DX2                !
 ! D246  D(31,33,73,75)        147.4176         estimate D2E/DX2                !
 ! D247  D(35,33,73,71)       -142.3791         estimate D2E/DX2                !
 ! D248  D(35,33,73,75)          0.1765         estimate D2E/DX2                !
 ! D249  D(32,34,36,12)         -9.4925         estimate D2E/DX2                !
 ! D250  D(32,34,36,38)        144.9484         estimate D2E/DX2                !
 ! D251  D(74,34,36,12)       -150.0437         estimate D2E/DX2                !
 ! D252  D(74,34,36,38)          4.3973         estimate D2E/DX2                !
 ! D253  D(32,34,74,72)         -6.3189         estimate D2E/DX2                !
 ! D254  D(32,34,74,76)       -149.2017         estimate D2E/DX2                !
 ! D255  D(36,34,74,72)        139.2074         estimate D2E/DX2                !
 ! D256  D(36,34,74,76)         -3.6753         estimate D2E/DX2                !
 ! D257  D(9,35,37,39)          -0.6423         estimate D2E/DX2                !
 ! D258  D(9,35,37,77)        -154.53           estimate D2E/DX2                !
 ! D259  D(33,35,37,39)        155.5312         estimate D2E/DX2                !
 ! D260  D(33,35,37,77)          1.6435         estimate D2E/DX2                !
 ! D261  D(12,36,38,42)         -1.1456         estimate D2E/DX2                !
 ! D262  D(12,36,38,78)        153.115          estimate D2E/DX2                !
 ! D263  D(34,36,38,42)       -155.0049         estimate D2E/DX2                !
 ! D264  D(34,36,38,78)         -0.7443         estimate D2E/DX2                !
 ! D265  D(35,37,39,43)          5.8606         estimate D2E/DX2                !
 ! D266  D(35,37,39,79)       -147.1018         estimate D2E/DX2                !
 ! D267  D(77,37,39,43)        160.0401         estimate D2E/DX2                !
 ! D268  D(77,37,39,79)          7.0777         estimate D2E/DX2                !
 ! D269  D(35,37,77,75)          1.2086         estimate D2E/DX2                !
 ! D270  D(35,37,77,81)        140.766          estimate D2E/DX2                !
 ! D271  D(39,37,77,75)       -153.3719         estimate D2E/DX2                !
 ! D272  D(39,37,77,81)        -13.8145         estimate D2E/DX2                !
 ! D273  D(36,38,42,46)         -1.4685         estimate D2E/DX2                !
 ! D274  D(36,38,42,80)        150.5476         estimate D2E/DX2                !
 ! D275  D(78,38,42,46)       -155.857          estimate D2E/DX2                !
 ! D276  D(78,38,42,80)         -3.8408         estimate D2E/DX2                !
 ! D277  D(36,38,78,76)         -3.6415         estimate D2E/DX2                !
 ! D278  D(36,38,78,81)       -143.3315         estimate D2E/DX2                !
 ! D279  D(42,38,78,76)        151.2609         estimate D2E/DX2                !
 ! D280  D(42,38,78,81)         11.571          estimate D2E/DX2                !
 ! D281  D(37,39,43,2)        -147.4312         estimate D2E/DX2                !
 ! D282  D(37,39,43,13)         -3.4227         estimate D2E/DX2                !
 ! D283  D(79,39,43,2)           6.4582         estimate D2E/DX2                !
 ! D284  D(79,39,43,13)        150.4667         estimate D2E/DX2                !
 ! D285  D(37,39,79,40)        142.1974         estimate D2E/DX2                !
 ! D286  D(37,39,79,82)          3.2016         estimate D2E/DX2                !
 ! D287  D(43,39,79,40)        -11.2928         estimate D2E/DX2                !
 ! D288  D(43,39,79,82)       -150.2885         estimate D2E/DX2                !
 ! D289  D(44,40,41,45)         -1.6358         estimate D2E/DX2                !
 ! D290  D(44,40,41,80)       -147.1221         estimate D2E/DX2                !
 ! D291  D(79,40,41,45)        144.7016         estimate D2E/DX2                !
 ! D292  D(79,40,41,80)         -0.7847         estimate D2E/DX2                !
 ! D293  D(41,40,44,2)         144.7872         estimate D2E/DX2                !
 ! D294  D(41,40,44,47)         -5.0016         estimate D2E/DX2                !
 ! D295  D(79,40,44,2)           2.7109         estimate D2E/DX2                !
 ! D296  D(79,40,44,47)       -147.0779         estimate D2E/DX2                !
 ! D297  D(41,40,79,39)       -139.4225         estimate D2E/DX2                !
 ! D298  D(41,40,79,82)          4.2388         estimate D2E/DX2                !
 ! D299  D(44,40,79,39)          6.8692         estimate D2E/DX2                !
 ! D300  D(44,40,79,82)        150.5304         estimate D2E/DX2                !
 ! D301  D(40,41,45,4)        -143.3472         estimate D2E/DX2                !
 ! D302  D(40,41,45,48)          6.5254         estimate D2E/DX2                !
 ! D303  D(80,41,45,4)          -2.1806         estimate D2E/DX2                !
 ! D304  D(80,41,45,48)        147.6919         estimate D2E/DX2                !
 ! D305  D(40,41,80,42)        140.7319         estimate D2E/DX2                !
 ! D306  D(40,41,80,82)         -2.9971         estimate D2E/DX2                !
 ! D307  D(45,41,80,42)         -4.4956         estimate D2E/DX2                !
 ! D308  D(45,41,80,82)       -148.2247         estimate D2E/DX2                !
 ! D309  D(38,42,46,4)         146.2163         estimate D2E/DX2                !
 ! D310  D(38,42,46,14)          3.2044         estimate D2E/DX2                !
 ! D311  D(80,42,46,4)          -6.7929         estimate D2E/DX2                !
 ! D312  D(80,42,46,14)       -149.8049         estimate D2E/DX2                !
 ! D313  D(38,42,80,41)       -143.9499         estimate D2E/DX2                !
 ! D314  D(38,42,80,82)         -4.988          estimate D2E/DX2                !
 ! D315  D(46,42,80,41)          8.8181         estimate D2E/DX2                !
 ! D316  D(46,42,80,82)        147.78           estimate D2E/DX2                !
 ! D317  D(2,44,47,48)        -143.129          estimate D2E/DX2                !
 ! D318  D(2,44,47,49)          -1.5296         estimate D2E/DX2                !
 ! D319  D(40,44,47,48)          6.6244         estimate D2E/DX2                !
 ! D320  D(40,44,47,49)        148.2238         estimate D2E/DX2                !
 ! D321  D(4,45,48,47)         145.0129         estimate D2E/DX2                !
 ! D322  D(4,45,48,50)           2.233          estimate D2E/DX2                !
 ! D323  D(41,45,48,47)         -4.8841         estimate D2E/DX2                !
 ! D324  D(41,45,48,50)       -147.6641         estimate D2E/DX2                !
 ! D325  D(44,47,48,45)         -1.7517         estimate D2E/DX2                !
 ! D326  D(44,47,48,50)        145.3546         estimate D2E/DX2                !
 ! D327  D(49,47,48,45)       -147.7352         estimate D2E/DX2                !
 ! D328  D(49,47,48,50)         -0.6289         estimate D2E/DX2                !
 ! D329  D(44,47,49,10)         -2.2737         estimate D2E/DX2                !
 ! D330  D(44,47,49,56)       -147.6621         estimate D2E/DX2                !
 ! D331  D(48,47,49,10)        143.375          estimate D2E/DX2                !
 ! D332  D(48,47,49,56)         -2.0134         estimate D2E/DX2                !
 ! D333  D(45,48,50,11)          6.5722         estimate D2E/DX2                !
 ! D334  D(45,48,50,56)        149.6115         estimate D2E/DX2                !
 ! D335  D(47,48,50,11)       -140.0468         estimate D2E/DX2                !
 ! D336  D(47,48,50,56)          2.9925         estimate D2E/DX2                !
 ! D337  D(10,49,56,50)       -142.0369         estimate D2E/DX2                !
 ! D338  D(10,49,56,55)          4.2139         estimate D2E/DX2                !
 ! D339  D(47,49,56,50)          3.8884         estimate D2E/DX2                !
 ! D340  D(47,49,56,55)        150.1392         estimate D2E/DX2                !
 ! D341  D(11,50,56,49)        139.3393         estimate D2E/DX2                !
 ! D342  D(11,50,56,55)         -6.9643         estimate D2E/DX2                !
 ! D343  D(48,50,56,49)         -4.2813         estimate D2E/DX2                !
 ! D344  D(48,50,56,55)       -150.5848         estimate D2E/DX2                !
 ! D345  D(10,51,53,55)          0.7121         estimate D2E/DX2                !
 ! D346  D(10,51,53,83)        145.0316         estimate D2E/DX2                !
 ! D347  D(19,51,53,55)       -150.8605         estimate D2E/DX2                !
 ! D348  D(19,51,53,83)         -6.541          estimate D2E/DX2                !
 ! D349  D(11,52,54,55)        -29.0122         estimate D2E/DX2                !
 ! D350  D(11,52,54,84)       -141.5972         estimate D2E/DX2                !
 ! D351  D(20,52,54,55)        138.3333         estimate D2E/DX2                !
 ! D352  D(20,52,54,84)         25.7483         estimate D2E/DX2                !
 ! D353  D(51,53,55,54)        153.0706         estimate D2E/DX2                !
 ! D354  D(51,53,55,56)          0.1713         estimate D2E/DX2                !
 ! D355  D(83,53,55,54)          4.3402         estimate D2E/DX2                !
 ! D356  D(83,53,55,56)       -148.5591         estimate D2E/DX2                !
 ! D357  D(51,53,83,57)          0.1223         estimate D2E/DX2                !
 ! D358  D(51,53,83,84)       -149.8084         estimate D2E/DX2                !
 ! D359  D(55,53,83,57)        148.565          estimate D2E/DX2                !
 ! D360  D(55,53,83,84)         -1.3658         estimate D2E/DX2                !
 ! D361  D(52,54,55,53)       -124.7395         estimate D2E/DX2                !
 ! D362  D(52,54,55,56)         27.5282         estimate D2E/DX2                !
[...]
 Alpha virt. eigenvalues --    1.16526   1.17026   1.17136   1.17492   1.17835
 Alpha virt. eigenvalues --    1.17853   1.17885   1.18235   1.18617   1.18827
 Alpha virt. eigenvalues --    1.18924   1.18975   1.19290   1.19480   1.19666
 Alpha virt. eigenvalues --    1.20072   1.20101   1.20346   1.20920   1.21183
 Alpha virt. eigenvalues --    1.21263   1.21619   1.21961   1.22364   1.22570
 Alpha virt. eigenvalues --    1.22972   1.24200   1.24318   1.24658   1.24851
 Alpha virt. eigenvalues --    1.25739   1.25878   1.26138   1.26432   1.26733
 Alpha virt. eigenvalues --    1.26945   1.27091   1.27406   1.27684   1.27953
 Alpha virt. eigenvalues --    1.28193   1.28414   1.28491   1.29058   1.29217
 Alpha virt. eigenvalues --    1.29715   1.30033   1.30362   1.30401   1.30529
 Alpha virt. eigenvalues --    1.30962   1.31297   1.31419   1.31634   1.32026
 Alpha virt. eigenvalues --    1.32461   1.32921   1.33130   1.33706   1.34151
 Alpha virt. eigenvalues --    1.34373   1.34825   1.35349   1.35644   1.36047
 Alpha virt. eigenvalues --    1.36227   1.37004   1.37473   1.37623   1.38020
 Alpha virt. eigenvalues --    1.38741   1.39061   1.39553   1.39846   1.40433
 Alpha virt. eigenvalues --    1.41247   1.41817   1.42783   1.42936   1.43311
 Alpha virt. eigenvalues --    1.44121   1.44727   1.45044   1.45890   1.46185
 Alpha virt. eigenvalues --    1.47281   1.47805   1.48376   1.48807   1.49089
 Alpha virt. eigenvalues --    1.49798   1.50018   1.50824   1.51153   1.51655
 Alpha virt. eigenvalues --    1.52033   1.52785   1.53065   1.53420   1.53983
 Alpha virt. eigenvalues --    1.54105   1.54650   1.55178   1.55408   1.56232
 Alpha virt. eigenvalues --    1.56324   1.56784   1.57166   1.57691   1.58192
 Alpha virt. eigenvalues --    1.58294   1.58506   1.59284   1.59309   1.59662
 Alpha virt. eigenvalues --    1.60002   1.60572   1.61274   1.61673   1.62803
 Alpha virt. eigenvalues --    1.63170   1.64002   1.64385   1.65082   1.65375
 Alpha virt. eigenvalues --    1.65783   1.65885   1.66294   1.66519   1.66862
 Alpha virt. eigenvalues --    1.67075   1.67562   1.67697   1.67955   1.68080
 Alpha virt. eigenvalues --    1.68190   1.68518   1.69127   1.69422   1.69647
 Alpha virt. eigenvalues --    1.70063   1.70422   1.70530   1.70724   1.70997
 Alpha virt. eigenvalues --    1.71196   1.71489   1.71799   1.71945   1.72215
 Alpha virt. eigenvalues --    1.72260   1.72607   1.72822   1.72888   1.73041
 Alpha virt. eigenvalues --    1.73445   1.73734   1.74133   1.74322   1.74493
 Alpha virt. eigenvalues --    1.74518   1.74872   1.74911   1.75301   1.75497
 Alpha virt. eigenvalues --    1.75685   1.75889   1.76309   1.76580   1.76677
 Alpha virt. eigenvalues --    1.76934   1.77302   1.77472   1.77674   1.77729
 Alpha virt. eigenvalues --    1.77977   1.78564   1.78813   1.79161   1.79346
 Alpha virt. eigenvalues --    1.79468   1.79668   1.79966   1.80237   1.80545
 Alpha virt. eigenvalues --    1.82349   1.82879   1.83814   1.84533   1.84813
 Alpha virt. eigenvalues --    1.85145   1.85762   1.86042   1.86274   1.87074
 Alpha virt. eigenvalues --    1.87421   1.87939   1.88346   1.90312   1.90464
 Alpha virt. eigenvalues --    1.91404   1.91836   1.91990   1.92182   1.92975
 Alpha virt. eigenvalues --    1.93259   1.94075   1.94484   1.94710   1.95029
 Alpha virt. eigenvalues --    1.95231   1.95594   1.95727   1.96388   1.96620
 Alpha virt. eigenvalues --    1.96939   1.97009   1.97258   1.97448   1.97862
 Alpha virt. eigenvalues --    1.98094   1.98213   1.98446   1.98553   1.98909
 Alpha virt. eigenvalues --    1.99131   1.99285   1.99607   1.99755   1.99852
 Alpha virt. eigenvalues --    2.00124   2.00305   2.00364   2.00737   2.00900
 Alpha virt. eigenvalues --    2.00978   2.01028   2.01212   2.01601   2.01683
 Alpha virt. eigenvalues --    2.01840   2.02006   2.02144   2.02526   2.02817
 Alpha virt. eigenvalues --    2.02881   2.03013   2.03228   2.03405   2.03758
 Alpha virt. eigenvalues --    2.03972   2.04123   2.04149   2.04425   2.04564
 Alpha virt. eigenvalues --    2.04843   2.05385   2.05675   2.05705   2.05953
 Alpha virt. eigenvalues --    2.06429   2.06792   2.07173   2.07648   2.08312
 Alpha virt. eigenvalues --    2.09085   2.09452   2.10077   2.11102   2.11574
 Alpha virt. eigenvalues --    2.12378   2.12528   2.13008   2.13474   2.13677
 Alpha virt. eigenvalues --    2.14447   2.14613   2.15157   2.15331   2.15764
 Alpha virt. eigenvalues --    2.16411   2.17014   2.17282   2.17907   2.18331
 Alpha virt. eigenvalues --    2.18733   2.19461   2.20038   2.20552   2.20932
 Alpha virt. eigenvalues --    2.21244   2.21673   2.22385   2.22907   2.23113
 Alpha virt. eigenvalues --    2.23451   2.23502   2.23637   2.23934   2.24673
 Alpha virt. eigenvalues --    2.25273   2.25612   2.25686   2.26130   2.26360
 Alpha virt. eigenvalues --    2.26787   2.26893   2.27262   2.28175   2.28409
 Alpha virt. eigenvalues --    2.29084   2.29398   2.29545   2.29701   2.30052
 Alpha virt. eigenvalues --    2.30332   2.31244   2.31618   2.31762   2.32163
 Alpha virt. eigenvalues --    2.32664   2.32788   2.32957   2.33814   2.34271
 Alpha virt. eigenvalues --    2.35089   2.35648   2.37282   2.37520   2.37955
 Alpha virt. eigenvalues --    2.38910   2.39294   2.40121   2.40626   2.41430
 Alpha virt. eigenvalues --    2.41627   2.41666   2.41863   2.42857   2.43117
 Alpha virt. eigenvalues --    2.43156   2.43757   2.44405   2.44536   2.45062
 Alpha virt. eigenvalues --    2.45621   2.45918   2.46318   2.46727   2.47489
 Alpha virt. eigenvalues --    2.47880   2.48552   2.49143   2.51211   2.51603
 Alpha virt. eigenvalues --    2.52021   2.52509   2.52765   2.53356   2.53541
 Alpha virt. eigenvalues --    2.54291   2.54998   2.55199   2.55340   2.55457
 Alpha virt. eigenvalues --    2.56148   2.56399   2.56715   2.57020   2.57050
 Alpha virt. eigenvalues --    2.57395   2.57732   2.58142   2.58204   2.58483
 Alpha virt. eigenvalues --    2.58837   2.58985   2.59306   2.59718   2.59810
 Alpha virt. eigenvalues --    2.60195   2.60433   2.60664   2.60812   2.61181
 Alpha virt. eigenvalues --    2.61326   2.61905   2.62023   2.62305   2.62610
 Alpha virt. eigenvalues --    2.62882   2.63150   2.63608   2.64020   2.64330
 Alpha virt. eigenvalues --    2.64740   2.65322   2.65419   2.65859   2.66174
 Alpha virt. eigenvalues --    2.66191   2.66897   2.67064   2.67113   2.68099
 Alpha virt. eigenvalues --    2.68398   2.68643   2.68759   2.68948   2.69134
 Alpha virt. eigenvalues --    2.69737   2.70039   2.70812   2.71232   2.72007
 Alpha virt. eigenvalues --    2.72569   2.72681   2.73371   2.73611   2.73805
 Alpha virt. eigenvalues --    2.74222   2.75177   2.76480   2.77371   2.77830
 Alpha virt. eigenvalues --    2.77967   2.78619   2.78858   2.79228   2.79762
 Alpha virt. eigenvalues --    2.80377   2.80957   2.81399   2.81622   2.82249
 Alpha virt. eigenvalues --    2.82419   2.82630   2.83243   2.83678   2.84109
 Alpha virt. eigenvalues --    2.84358   2.84850   2.85180   2.85401   2.85890
 Alpha virt. eigenvalues --    2.86037   2.86559   2.86769   2.87020   2.88321
 Alpha virt. eigenvalues --    2.88581   2.89133   2.89429   2.89672   2.90266
 Alpha virt. eigenvalues --    2.90484   2.90774   2.91509   2.92033   2.92359
 Alpha virt. eigenvalues --    2.92554   2.92950   2.93299   2.93564   2.94217
 Alpha virt. eigenvalues --    2.94617   2.94987   2.95590   2.95715   2.96226
 Alpha virt. eigenvalues --    2.96825   2.97275   2.97999   2.98608   2.99209
 Alpha virt. eigenvalues --    2.99486   3.00634   3.01935   3.02848   3.03409
 Alpha virt. eigenvalues --    3.04199   3.04820   3.05090   3.06623   3.08661
 Alpha virt. eigenvalues --    3.09133   3.12374   3.14575   3.15863   3.17412
 Alpha virt. eigenvalues --    3.18079   3.19527   3.20662   3.21620   3.23927
 Alpha virt. eigenvalues --    3.26372   3.27745   3.28297   3.30077   3.31781
 Alpha virt. eigenvalues --    3.32938   3.34636   3.34964   3.36654   3.37532
 Alpha virt. eigenvalues --    3.38147   3.41426   3.42192   3.43915   3.44955
 Alpha virt. eigenvalues --    3.46214   3.48250   3.49659   3.51336   3.54944
 Alpha virt. eigenvalues --    3.55710   3.57008   3.58145   3.62489   4.01722
 Alpha virt. eigenvalues --    4.02095   4.02322   4.02408   4.03036   4.03894
 Alpha virt. eigenvalues --    4.04500   4.04919   4.05185   4.06397   4.06991
 Alpha virt. eigenvalues --    4.07281   4.07501   4.07584   4.07774   4.08173
 Alpha virt. eigenvalues --    4.10175   4.10370   4.11191   4.11980   4.12051
 Alpha virt. eigenvalues --    4.12874   4.13612   4.14152   4.14947   4.17092
 Alpha virt. eigenvalues --    4.18246   4.19577   4.19996   4.20640   4.21248
 Alpha virt. eigenvalues --    4.21383   4.21799   4.22489   4.22760   4.23764
 Alpha virt. eigenvalues --    4.27460   4.28286   4.29582   4.29730   4.30419
 Alpha virt. eigenvalues --    4.30722   4.32076   4.32551   4.34957   4.38492
 Alpha virt. eigenvalues --    4.38768   4.40377   4.43798   4.45802   4.46998
 Alpha virt. eigenvalues --    4.47692   4.49510   4.51505   4.52115   4.52864
 Alpha virt. eigenvalues --    4.53602   4.56130   4.58023   4.58618   4.60432
 Alpha virt. eigenvalues --    4.63176   4.66314   4.67468   4.68635   4.69855
 Alpha virt. eigenvalues --    4.72103   4.73515   4.80471   4.82080   4.85437
 Alpha virt. eigenvalues --    4.86272   4.88325   4.90414   4.93742   4.97793
 Alpha virt. eigenvalues --    5.02592   5.05098   5.11684   5.15596   5.17816
 Alpha virt. eigenvalues --    5.20121   5.25356   5.26362
          Condensed to atoms (all electrons):
 Mulliken charges:
               1
     1  C   -0.027397
     2  C   -0.023634
     3  C   -0.024098
     4  C   -0.030919
     5  C    0.049614
     6  C   -0.024978
     7  C   -0.023529
     8  C   -0.033553
     9  C    0.040409
    10  C    0.062565
    11  C    0.059917
    12  C    0.053446
    13  C   -0.027153
    14  C   -0.031713
    15  C   -0.014710
    16  C   -0.030642
    17  C   -0.012168
    18  C    0.052239
    19  C   -0.019834
    20  C    0.044601
    21  C   -0.020012
    22  C   -0.022051
    23  C   -0.001935
    24  C   -0.014624
    25  C   -0.018654
    26  C   -0.013115
    27  C   -0.021743
    28  C   -0.021772
    29  C    0.050242
    30  C   -0.016887
    31  C   -0.033417
    32  C   -0.011962
    33  C   -0.025530
    34  C   -0.023108
    35  C    0.040778
    36  C    0.044557
    37  C    0.041692
    38  C    0.041440
    39  C    0.053288
    40  C   -0.027321
    41  C   -0.025474
    42  C    0.061272
    43  C   -0.032084
    44  C    0.066211
    45  C    0.069570
    46  C   -0.035654
    47  C   -0.023459
    48  C   -0.025354
    49  C   -0.025991
    50  C   -0.026188
    51  C    0.052383
    52  C    0.044107
    53  C   -0.019792
    54  C   -0.022924
    55  C   -0.003158
    56  C   -0.017782
    57  C    0.055716
    58  C   -0.013289
    59  C    0.056006
    60  C   -0.022913
    61  C   -0.023955
    62  C   -0.019857
    63  C   -0.029312
    64  C    0.050731
    65  C   -0.031078
    66  C    0.043561
    67  C    0.050746
    68  C    0.044644
    69  C   -0.021864
    70  C   -0.025986
    71  C   -0.010664
    72  C    0.003685
    73  C   -0.012729
    74  C   -0.009627
    75  C   -0.001329
    76  C   -0.003295
    77  C   -0.025600
    78  C   -0.022843
    79  C   -0.021089
    80  C   -0.024488
    81  C    0.000821
    82  C   -0.025855
    83  C   -0.020564
    84  C   -0.013585
 Sum of Mulliken charges =  -0.00000
 Mulliken charges with hydrogens summed into heavy atoms:
               1
     1  C   -0.027397
     2  C   -0.023634
     3  C   -0.024098
     4  C   -0.030919
     5  C    0.049614
     6  C   -0.024978
     7  C   -0.023529
     8  C   -0.033553
     9  C    0.040409
    10  C    0.062565
    11  C    0.059917
    12  C    0.053446
    13  C   -0.027153
    14  C   -0.031713
    15  C   -0.014710
    16  C   -0.030642
    17  C   -0.012168
    18  C    0.052239
    19  C   -0.019834
    20  C    0.044601
    21  C   -0.020012
    22  C   -0.022051
    23  C   -0.001935
    24  C   -0.014624
    25  C   -0.018654
    26  C   -0.013115
    27  C   -0.021743
    28  C   -0.021772
    29  C    0.050242
    30  C   -0.016887
    31  C   -0.033417
    32  C   -0.011962
    33  C   -0.025530
    34  C   -0.023108
    35  C    0.040778
    36  C    0.044557
    37  C    0.041692
    38  C    0.041440
    39  C    0.053288
    40  C   -0.027321
    41  C   -0.025474
    42  C    0.061272
    43  C   -0.032084
    44  C    0.066211
    45  C    0.069570
    46  C   -0.035654
    47  C   -0.023459
    48  C   -0.025354
    49  C   -0.025991
    50  C   -0.026188
    51  C    0.052383
    52  C    0.044107
    53  C   -0.019792
    54  C   -0.022924
    55  C   -0.003158
    56  C   -0.017782
    57  C    0.055716
    58  C   -0.013289
    59  C    0.056006
    60  C   -0.022913
    61  C   -0.023955
    62  C   -0.019857
    63  C   -0.029312
    64  C    0.050731
    65  C   -0.031078
    66  C    0.043561
    67  C    0.050746
    68  C    0.044644
    69  C   -0.021864
    70  C   -0.025986
    71  C   -0.010664
    72  C    0.003685
    73  C   -0.012729
    74  C   -0.009627
    75  C   -0.001329
    76  C   -0.003295
    77  C   -0.025600
    78  C   -0.022843
    79  C   -0.021089
    80  C   -0.024488
    81  C    0.000821
    82  C   -0.025855
    83  C   -0.020564
    84  C   -0.013585
 Electronic spatial extent (au):  <R**2>=          32827.6987
 Charge=             -0.0000 electrons
 Dipole moment (field-independent basis, Debye):
    X=              0.0123    Y=             -0.4306    Z=              0.5957  Tot=              0.7352
 Quadrupole moment (field-independent basis, Debye-Ang):
   XX=           -449.7079   YY=           -455.9415   ZZ=           -454.5549
   XY=              1.4831   XZ=             -0.0301   YZ=              1.0950
 Traceless Quadrupole moment (field-independent basis, Debye-Ang):
   XX=              3.6935   YY=             -2.5401   ZZ=             -1.1535
   XY=              1.4831   XZ=             -0.0301   YZ=              1.0950
 Octapole moment (field-independent basis, Debye-Ang**2):
  XXX=              0.8308  YYY=             -8.6571  ZZZ=              9.8949  XYY=              2.6519
  XXY=             -1.0661  XXZ=              1.6009  XZZ=             -2.8461  YZZ=             -1.8081
  YYZ=              2.5529  XYZ=              0.1689
 Hexadecapole moment (field-independent basis, Debye-Ang**3):
 XXXX=         -17608.2933 YYYY=         -16603.2757 ZZZZ=         -15291.8893 XXXY=             23.3910
 XXXZ=             -6.7610 YYYX=              1.3173 YYYZ=             11.4100 ZZZX=              5.0073
 ZZZY=             15.9202 XXYY=          -5699.5904 XXZZ=          -5484.4376 YYZZ=          -5321.1828
 XXYZ=             -0.4348 YYXZ=             -1.3748 ZZXY=             12.4921
 N-N= 1.413068473162D+04 E-N=-3.566984021940D+04  KE= 3.171024813645D+03
 No NMR shielding tensors so no spin-rotation constants.
 Leave Link  601 at Wed Apr 26 12:11:21 2023, MaxMem=  1342177280 cpu:              22.8 elap:               1.1
 (Enter /home/mkliu/g16/l9999.exe)
 1\1\GINC-NODE05\FOpt\RB3LYP\6-31G(d,p)\C84\MKLIU\26-Apr-2023\0\\#P opt
  b3lyp/6-31G(d, p) empiricaldispersion=GD3\\Gaussian input prepared by
  ASE\\0,1\C,0.7482219461,1.6107464163,3.8932209366\C,1.1963101787,4.18
 7075484,0.2010053029\C,-1.5644557396,-2.9521480861,-2.0979853747\C,-0.
 5427727782,1.1452756256,-3.8252153714\C,2.0068541351,1.1164443534,3.47
 5452903\C,0.2339284758,4.1272850598,1.2631428297\C,-0.2160592233,-3.20
 87081522,-2.5043791915\C,-1.7558891887,0.5258700459,-3.3745916858\C,2.
 7642274105,1.8838747986,2.4811937894\C,-1.1405967504,3.9072024179,1.01
 24989025\C,-2.6175782763,1.1574379729,-2.4595976362\C,0.5316796798,-2.
 2693017678,-3.2587610756\C,2.2012226032,3.0855275586,2.0093964886\C,-0
 .2041108436,-1.1632447967,-3.7493396508\C,0.8903708783,3.5154616387,2.
 3999862583\C,-1.5457514308,-0.908839939,-3.3510681347\C,0.1695608233,2
 .7802118908,3.3133870328\C,-2.2292298271,-1.7424870423,-2.4342588442\C
 ,-1.2580923949,2.5721194026,3.1153279792\C,-3.1629542895,-1.1285209629
 ,-1.4852683711\C,-1.5824808121,1.2902376551,3.6564248601\C,-3.39665435
 21,-1.8240362987,-0.2729703497\C,-0.359084768,0.7177855539,4.191733397
 7\C,-2.6222411678,-2.992471351,0.0941103921\C,-0.1775707291,-0.6404527
 277,4.1980133711\C,-1.7383950326,-3.5466952788,-0.7896787333\C,1.12794
 41508,-1.1820464634,3.9241728066\C,-0.4720977476,-4.0800206623,-0.3319
 664689\C,2.21282488,-0.3271004097,3.5761667311\C,0.4190813265,-3.96659
 971,-1.4443299148\C,3.2332862857,-0.9157470617,2.8121955034\C,1.771437
 9632,-3.8537727094,-1.2374459823\C,4.0504972423,-0.1295215954,1.898281
 1421\C,2.5767347769,-2.9910151533,-2.0872237845\C,3.7543871453,1.22427
 65419,1.62283667\C,1.9739579417,-2.1155913425,-3.0266825796\C,4.012060
 2478,1.724623221,0.2695891145\C,2.6066933658,-0.8161362765,-3.26658447
 07\C,3.2689351122,2.8830944618,-0.2300358094\C,1.7076898199,3.50367275
 86,-2.0713880256\C,1.2299533432,2.6746920964,-3.1832422951\C,1.7980200
 978,0.3134514871,-3.761601865\C,2.4107884757,3.5539094617,0.6538231218
 \C,0.7934716024,4.0979326563,-1.1611564899\C,-0.1615760311,2.432823663
 2,-3.3568955354\C,0.4322091062,0.108690321,-4.0230356125\C,-0.60183468
 77,3.9702918025,-1.4196870181\C,-1.0780969111,3.1178489195,-2.51732228
 4\C,-1.5398751353,3.905382981,-0.3648481874\C,-2.2996403808,2.51709711
 86,-2.1221757481\C,-1.9106046315,3.0925653601,1.9683596073\C,-3.352707
 7094,0.324289715,-1.4920241769\C,-3.0096074898,2.321791409,1.488991822
 9\C,-3.7617925881,0.9440415703,-0.2882751711\C,-3.322278213,2.28423640
 93,0.0702933843\C,-2.6212997624,3.0490149634,-0.8180783652\C,-2.578999
 4819,0.4561136224,3.0799111199\C,-3.6741477239,-1.1390632541,0.9530829
 978\C,-2.3757582734,-1.0023431379,3.0797538736\C,-2.9438888501,-1.7780
 281586,2.0397601626\C,-1.1838032509,-1.5260714352,3.6516010803\C,-2.27
 63830428,-2.9182016145,1.4975703634\C,-0.4948392744,-2.6378221273,3.08
 49847846\C,-0.9840266871,-3.3246427108,1.9492151129\C,0.9343180339,-2.
 438385912,3.2758255556\C,-0.0257896964,-3.900271648,1.0002027257\C,1.8
 823572588,-2.9641505713,2.3748868973\C,1.4147307765,-3.745879743,1.224
 7136821\C,3.112445444,-2.2438415791,2.2898600455\C,2.2828292755,-3.824
 3353546,0.1060577439\C,3.9426978555,-2.3243603767,1.1179248129\C,3.535
 1648355,-3.0977446746,0.0499128724\C,4.543995701,-1.0225409867,0.89566
 13366\C,3.7151687909,-2.6058740518,-1.3097889153\C,4.7412707138,-0.559
 0548156,-0.3971219447\C,4.3061758647,-1.3721516394,-1.5304410585\C,4.5
 113425214,0.8123038608,-0.6984478226\C,3.7800137841,-0.504588579,-2.53
 56224947\C,2.9433937715,2.9759761933,-1.6262706529\C,2.1837229501,1.65
 78454071,-3.4296206614\C,4.0371621081,0.8560881452,-2.0743755775\C,3.2
 819961329,1.8961766795,-2.5219841656\C,-3.3326102959,1.0451936197,2.02
 80417494\C,-3.8585723639,0.2235158373,0.9437092325\\Version=ES64L-G16R
 evA.03\State=1-A\HF=-3201.0196526\RMSD=6.524e-09\RMSF=3.922e-05\Dipole
 =0.0593736,-0.0728376,0.2735479\Quadrupole=2.106948,-1.0023139,-1.1046
 341,-0.9965064,-1.1558797,1.4626433\PG=C01 [X(C84)]\\@


            ARSENIC

 FOR SMELTER FUMES HAVE I BEEN NAMED,
    I AM AN EVIL POISONOUS SMOKE...
 BUT WHEN FROM POISON I AM FREED,
    THROUGH ART AND SLEIGHT OF HAND,
 THEN CAN I CURE BOTH MAN AND BEAST,
    FROM DIRE DISEASE OFTTIMES DIRECT THEM;
 BUT PREPARE ME CORRECTLY, AND TAKE GREAT CARE
    THAT YOU FAITHFULLY KEEP WATCHFUL GUARD OVER ME;
 FOR ELSE I AM POISON, AND POISON REMAIN,
    THAT PIERCES THE HEART OF MANY A ONE.

 ATTRIBUTED TO THE PROBABLY MYTHICAL 15TH
 CENTURY MONK, BASILIUS VALENTINUS
 Job cpu time:       1 days  3 hours 18 minutes 19.4 seconds.
 Elapsed time:       0 days  1 hours  8 minutes 22.1 seconds.
 File lengths (MBytes):  RWF=    978 Int=      0 D2E=      0 Chk=    124 Scr=      1
 Normal termination of Gaussian 16 at Wed Apr 26 12:11:23 2023.
