 Entering Gaussian System, Link 0=g16
 Input=2_addons_C84_11_mirror_Cl22_rank_2.gjf
 Output=2_addons_C84_11_mirror_Cl22_rank_2.log
 Initial command:
 /home/mkliu/g16/l1.exe "/data/scratch/Gau-174873.inp" -scrdir="/data/scratch/"
 Entering Link 1 = /home/mkliu/g16/l1.exe PID=    174874.
  
 Copyright (c) 1988,1990,1992,1993,1995,1998,2003,2009,2016,
            Gaussian, Inc.  All Rights Reserved.
  
 This is part of the Gaussian(R) 16 program.  It is based on
 the Gaussian(R) 09 system (copyright 2009, Gaussian, Inc.),
 the Gaussian(R) 03 system (copyright 2003, Gaussian, Inc.),
 the Gaussian(R) 98 system (copyright 1998, Gaussian, Inc.),
 the Gaussian(R) 94 system (copyright 1995, Gaussian, Inc.),
 the Gaussian 92(TM) system (copyright 1992, Gaussian, Inc.),
 the Gaussian 90(TM) system (copyright 1990, Gaussian, Inc.),
 the Gaussian 88(TM) system (copyright 1988, Gaussian, Inc.),
 the Gaussian 86(TM) system (copyright 1986, Carnegie Mellon
 University), and the Gaussian 82(TM) system (copyright 1983,
 Carnegie Mellon University). Gaussian is a federally registered
 trademark of Gaussian, Inc.
  
 This software contains proprietary and confidential information,
 including trade secrets, belonging to Gaussian, Inc.
  
 This software is provided under written license and may be
 used, copied, transmitted, or stored only in accord with that
 written license.
  
 The following legend is applicable only to US Government
 contracts under FAR:
  
                    RESTRICTED RIGHTS LEGEND
  
 Use, reproduction and disclosure by the US Government is
 subject to restrictions as set forth in subparagraphs (a)
 and (c) of the Commercial Computer Software - Restricted
 Rights clause in FAR 52.227-19.
  
 Gaussian, Inc.
 340 Quinnipiac St., Bldg. 40, Wallingford CT 06492
  
  
 ---------------------------------------------------------------
 Warning -- This program may not be used in any manner that
 competes with the business of Gaussian, Inc. or will provide
 assistance to any competitor of Gaussian, Inc.  The licensee
 of this program is prohibited from giving any competitor of
 Gaussian, Inc. access to this program.  By using this program,
 the user acknowledges that Gaussian, Inc. is engaged in the
 business of creating and licensing software in the field of
 computational chemistry and represents and warrants to the
 licensee that it is not a competitor of Gaussian, Inc. and that
 it will not use this program in any manner prohibited above.
 ---------------------------------------------------------------
  

 Cite this work as:
 Gaussian 16, Revision A.03,
 M. J. Frisch, G. W. Trucks, H. B. Schlegel, G. E. Scuseria, 
 M. A. Robb, J. R. Cheeseman, G. Scalmani, V. Barone, 
 G. A. Petersson, H. Nakatsuji, X. Li, M. Caricato, A. V. Marenich, 
 J. Bloino, B. G. Janesko, R. Gomperts, B. Mennucci, H. P. Hratchian, 
 J. V. Ortiz, A. F. Izmaylov, J. L. Sonnenberg, D. Williams-Young, 
 F. Ding, F. Lipparini, F. Egidi, J. Goings, B. Peng, A. Petrone, 
 T. Henderson, D. Ranasinghe, V. G. Zakrzewski, J. Gao, N. Rega, 
 G. Zheng, W. Liang, M. Hada, M. Ehara, K. Toyota, R. Fukuda, 
 J. Hasegawa, M. Ishida, T. Nakajima, Y. Honda, O. Kitao, H. Nakai, 
 T. Vreven, K. Throssell, J. A. Montgomery, Jr., J. E. Peralta, 
 F. Ogliaro, M. J. Bearpark, J. J. Heyd, E. N. Brothers, K. N. Kudin, 
 V. N. Staroverov, T. A. Keith, R. Kobayashi, J. Normand, 
 K. Raghavachari, A. P. Rendell, J. C. Burant, S. S. Iyengar, 
 J. Tomasi, M. Cossi, J. M. Millam, M. Klene, C. Adamo, R. Cammi, 
 J. W. Ochterski, R. L. Martin, K. Morokuma, O. Farkas, 
 J. B. Foresman, and D. J. Fox, Gaussian, Inc., Wallingford CT, 2016.
 
 ******************************************
 Gaussian 16:  ES64L-G16RevA.03 25-Dec-2016
                29-Jun-2022 
 ******************************************
 %mem=10GB
 %chk=2_addons_C84_11_mirror_Cl22_rank_2.chk
 %nprocshared=24
 Will use up to   24 processors via shared memory.
 ------------------------------------------------
 #P opt b3lyp/6-31G(d, p) empiricaldispersion=GD3
 ------------------------------------------------
 1/18=20,19=15,26=3,38=1/1,3;
 2/9=110,12=2,17=6,18=5,40=1/2;
 3/5=1,6=6,7=101,11=2,25=1,30=1,71=1,74=-5,124=31/1,2,3;
 4//1;
 5/5=2,38=5/2;
 6/7=2,8=2,9=2,10=2,28=1/1;
 7//1,2,3,16;
 1/18=20,19=15,26=3/3(2);
 2/9=110/2;
 99//99;
 2/9=110/2;
 3/5=1,6=6,7=101,11=2,25=1,30=1,71=1,74=-5,124=31/1,2,3;
 4/5=5,16=3,69=1/1;
 5/5=2,38=5/2;
 7//1,2,3,16;
 1/18=20,19=15,26=3/3(-5);
 2/9=110/2;
 6/7=2,8=2,9=2,10=2,19=2,28=1/1;
 99/9=1/99;
 Leave Link    1 at Wed Jun 29 19:43:42 2022, MaxMem=  1342177280 cpu:               0.6 elap:               0.1
 (Enter /home/mkliu/g16/l101.exe)
 -----
 force
 -----
 Symbolic Z-matrix:
 Charge =  0 Multiplicity = 1
 C                     8.54749   18.96796   10.78747 
 C                     12.42989   20.21919   8.90189 
 C                     8.30711   26.7458   10.55435 
 C                     12.3354   25.5008   8.91888 
 C                     8.06844   19.15505   9.47641 
 C                     12.06817   19.75484   10.2015 
 C                     7.99872   26.75389   9.16208 
 C                     11.86816   25.89308   10.20917 
 C                     9.02716   19.25367   8.39172 
 C                     12.31972   20.5057   11.36477 
 C                     12.12108   25.13394   11.36 
 C                     8.99315   26.58221   8.1766 
 C                     10.38445   19.12922   8.70734 
 C                     10.31674   26.59562   8.6539 
 C                     10.84601   19.01527   10.0535 
 C                     10.6246   26.58879   10.0341 
 C                     9.94103   18.95532   11.08313 
 C                     9.62877   26.56696   11.02664 
 C                     10.18882   19.67975   12.30474 
 C                     9.87147   25.8281   12.24124 
 C                     8.92308   20.07415   12.82157 
 C                     8.73085   25.36923   12.92487 
 C                     7.91206   19.57481   11.92589 
 C                     7.40933   25.49662   12.38164 
 C                     6.73814   20.26756   11.77139 
 C                     7.1908    26.2033   11.24113 
 C                     6.14976   20.35615   10.47194 
 C                     6.05186   25.89914   10.3067 
 C                     6.78749   19.80512   9.34716 
 C                     6.68554   26.23636   8.99182 
 C                     6.45306   20.40302   8.11748 
 C                     6.37605   25.58271   7.84989 
 C                     7.37455   20.391    7.0081 
 C                     7.35175   25.44008   6.81794 
 C                     8.69666   19.9485   7.15871 
 C                     8.68803   25.86579   6.96755 
 C                     9.72974   20.60636   6.3799 
 C                     9.7342    25.13881   6.27689 
 C                     11.09936   20.59102   6.84604 
 C                     12.89634   22.15154   7.54504 
 C                     12.88065   23.60131   7.54543 
 C                     11.09135   25.15645   6.80309 
 C                     11.40526   19.83327   7.9818 
 C                     13.14151   21.42986   8.7306 
 C                     13.08726   24.31728   8.74594 
 C                     11.36314   25.90458   7.95622 
 C                     13.47115   22.14852   9.903 
 C                     13.42565   23.59834   9.91023 
 C                     13.09166   21.6835   11.17864 
 C                     12.99728   24.02823   11.18784 
 C                     11.34341   20.47563   12.44286 
 C                     11.11326   25.09914   12.40872 
 C                     11.18195   21.62154   13.25927 
 C                     11.10619   23.97551   13.25204 
 C                     11.93296   22.82302   12.99491 
 C                     12.85884   22.84903   11.99223 
 C                     8.73741   21.29639   13.5074 
 C                     8.73174   24.1489   13.6633 
 C                     7.49536   22.02742   13.32996 
 C                     7.49653   23.44245   13.42839 
 C                     6.51683   21.49894   12.47397 
 C                     6.68362   24.26587   12.62171 
 C                     5.74677   22.33267   11.6098 
 C                     5.86269   23.73039   11.59839 
 C                     5.49981   21.62447   10.39617 
 C                     5.65262   24.43179   10.35281 
 C                     5.3129    22.30337   9.18787 
 C                     5.36165   23.7465   9.18819 
 C                     5.64424   21.55709   8.03061 
 C                     5.38451   24.45169   7.839 
 C                     5.97062   22.23081   6.79676 
 C                     5.94073   23.59549   6.73105 
 C                     7.02219   21.48471   6.16423 
 C                     7.00826   24.27583   6.07207 
 C                     8.01211   22.13732   5.45579 
 C                     8.01035   23.57707   5.41889 
 C                     9.35319   21.67793   5.5434 
 C                     9.35532   24.03544   5.49373 
 C                     11.95348   21.6987   6.59576 
 C                     11.94615   24.04263   6.58256 
 C                     10.18248   22.85136   5.42019 
 C                     11.44208   22.86436   5.93676 
 C                     9.92332   22.01628   13.77104 
 C                     9.90677   23.4618   13.82449 
 Cl                    4.59542   26.91188   10.66746 
 Cl                    3.69646   24.99839   7.45763 
 
 ITRead=  0  0  0  0  0  0  0  0  0  0  0  0  0  0  0  0  0  0  0  0
 ITRead=  0  0  0  0  0  0  0  0  0  0  0  0  0  0  0  0  0  0  0  0
 ITRead=  0  0  0  0  0  0  0  0  0  0  0  0  0  0  0  0  0  0  0  0
 ITRead=  0  0  0  0  0  0  0  0  0  0  0  0  0  0  0  0  0  0  0  0
 ITRead=  0  0  0  0  0  0
 MicOpt= -1 -1 -1 -1 -1 -1 -1 -1 -1 -1 -1 -1 -1 -1 -1 -1 -1 -1 -1 -1
 MicOpt= -1 -1 -1 -1 -1 -1 -1 -1 -1 -1 -1 -1 -1 -1 -1 -1 -1 -1 -1 -1
 MicOpt= -1 -1 -1 -1 -1 -1 -1 -1 -1 -1 -1 -1 -1 -1 -1 -1 -1 -1 -1 -1
 MicOpt= -1 -1 -1 -1 -1 -1 -1 -1 -1 -1 -1 -1 -1 -1 -1 -1 -1 -1 -1 -1
 MicOpt= -1 -1 -1 -1 -1 -1
 NAtoms=     86 NQM=       86 NQMF=       0 NMMI=      0 NMMIF=      0
                NMic=       0 NMicF=      0.
                    Isotopes and Nuclear Properties:
 (Nuclear quadrupole moments (NQMom) in fm**2, nuclear magnetic moments (NMagM)
  in nuclear magnetons)

  Atom         1           2           3           4           5           6           7           8           9          10
 IAtWgt=          12          12          12          12          12          12          12          12          12          12
 AtmWgt=  12.0000000  12.0000000  12.0000000  12.0000000  12.0000000  12.0000000  12.0000000  12.0000000  12.0000000  12.0000000
 NucSpn=           0           0           0           0           0           0           0           0           0           0
 AtZEff=  -0.0000000  -0.0000000  -0.0000000  -0.0000000  -0.0000000  -0.0000000  -0.0000000  -0.0000000  -0.0000000  -0.0000000
 NQMom=    0.0000000   0.0000000   0.0000000   0.0000000   0.0000000   0.0000000   0.0000000   0.0000000   0.0000000   0.0000000
 NMagM=    0.0000000   0.0000000   0.0000000   0.0000000   0.0000000   0.0000000   0.0000000   0.0000000   0.0000000   0.0000000
 AtZNuc=   6.0000000   6.0000000   6.0000000   6.0000000   6.0000000   6.0000000   6.0000000   6.0000000   6.0000000   6.0000000

  Atom        11          12          13          14          15          16          17          18          19          20
 IAtWgt=          12          12          12          12          12          12          12          12          12          12
 AtmWgt=  12.0000000  12.0000000  12.0000000  12.0000000  12.0000000  12.0000000  12.0000000  12.0000000  12.0000000  12.0000000
 NucSpn=           0           0           0           0           0           0           0           0           0           0
 AtZEff=  -0.0000000  -0.0000000  -0.0000000  -0.0000000  -0.0000000  -0.0000000  -0.0000000  -0.0000000  -0.0000000  -0.0000000
 NQMom=    0.0000000   0.0000000   0.0000000   0.0000000   0.0000000   0.0000000   0.0000000   0.0000000   0.0000000   0.0000000
 NMagM=    0.0000000   0.0000000   0.0000000   0.0000000   0.0000000   0.0000000   0.0000000   0.0000000   0.0000000   0.0000000
 AtZNuc=   6.0000000   6.0000000   6.0000000   6.0000000   6.0000000   6.0000000   6.0000000   6.0000000   6.0000000   6.0000000

  Atom        21          22          23          24          25          26          27          28          29          30
 IAtWgt=          12          12          12          12          12          12          12          12          12          12
 AtmWgt=  12.0000000  12.0000000  12.0000000  12.0000000  12.0000000  12.0000000  12.0000000  12.0000000  12.0000000  12.0000000
 NucSpn=           0           0           0           0           0           0           0           0           0           0
 AtZEff=  -0.0000000  -0.0000000  -0.0000000  -0.0000000  -0.0000000  -0.0000000  -0.0000000  -0.0000000  -0.0000000  -0.0000000
 NQMom=    0.0000000   0.0000000   0.0000000   0.0000000   0.0000000   0.0000000   0.0000000   0.0000000   0.0000000   0.0000000
 NMagM=    0.0000000   0.0000000   0.0000000   0.0000000   0.0000000   0.0000000   0.0000000   0.0000000   0.0000000   0.0000000
 AtZNuc=   6.0000000   6.0000000   6.0000000   6.0000000   6.0000000   6.0000000   6.0000000   6.0000000   6.0000000   6.0000000

  Atom        31          32          33          34          35          36          37          38          39          40
 IAtWgt=          12          12          12          12          12          12          12          12          12          12
 AtmWgt=  12.0000000  12.0000000  12.0000000  12.0000000  12.0000000  12.0000000  12.0000000  12.0000000  12.0000000  12.0000000
 NucSpn=           0           0           0           0           0           0           0           0           0           0
 AtZEff=  -0.0000000  -0.0000000  -0.0000000  -0.0000000  -0.0000000  -0.0000000  -0.0000000  -0.0000000  -0.0000000  -0.0000000
 NQMom=    0.0000000   0.0000000   0.0000000   0.0000000   0.0000000   0.0000000   0.0000000   0.0000000   0.0000000   0.0000000
 NMagM=    0.0000000   0.0000000   0.0000000   0.0000000   0.0000000   0.0000000   0.0000000   0.0000000   0.0000000   0.0000000
 AtZNuc=   6.0000000   6.0000000   6.0000000   6.0000000   6.0000000   6.0000000   6.0000000   6.0000000   6.0000000   6.0000000

  Atom        41          42          43          44          45          46          47          48          49          50
 IAtWgt=          12          12          12          12          12          12          12          12          12          12
 AtmWgt=  12.0000000  12.0000000  12.0000000  12.0000000  12.0000000  12.0000000  12.0000000  12.0000000  12.0000000  12.0000000
 NucSpn=           0           0           0           0           0           0           0           0           0           0
 AtZEff=  -0.0000000  -0.0000000  -0.0000000  -0.0000000  -0.0000000  -0.0000000  -0.0000000  -0.0000000  -0.0000000  -0.0000000
 NQMom=    0.0000000   0.0000000   0.0000000   0.0000000   0.0000000   0.0000000   0.0000000   0.0000000   0.0000000   0.0000000
 NMagM=    0.0000000   0.0000000   0.0000000   0.0000000   0.0000000   0.0000000   0.0000000   0.0000000   0.0000000   0.0000000
 AtZNuc=   6.0000000   6.0000000   6.0000000   6.0000000   6.0000000   6.0000000   6.0000000   6.0000000   6.0000000   6.0000000

  Atom        51          52          53          54          55          56          57          58          59          60
 IAtWgt=          12          12          12          12          12          12          12          12          12          12
 AtmWgt=  12.0000000  12.0000000  12.0000000  12.0000000  12.0000000  12.0000000  12.0000000  12.0000000  12.0000000  12.0000000
 NucSpn=           0           0           0           0           0           0           0           0           0           0
 AtZEff=  -0.0000000  -0.0000000  -0.0000000  -0.0000000  -0.0000000  -0.0000000  -0.0000000  -0.0000000  -0.0000000  -0.0000000
 NQMom=    0.0000000   0.0000000   0.0000000   0.0000000   0.0000000   0.0000000   0.0000000   0.0000000   0.0000000   0.0000000
 NMagM=    0.0000000   0.0000000   0.0000000   0.0000000   0.0000000   0.0000000   0.0000000   0.0000000   0.0000000   0.0000000
 AtZNuc=   6.0000000   6.0000000   6.0000000   6.0000000   6.0000000   6.0000000   6.0000000   6.0000000   6.0000000   6.0000000

  Atom        61          62          63          64          65          66          67          68          69          70
 IAtWgt=          12          12          12          12          12          12          12          12          12          12
 AtmWgt=  12.0000000  12.0000000  12.0000000  12.0000000  12.0000000  12.0000000  12.0000000  12.0000000  12.0000000  12.0000000
 NucSpn=           0           0           0           0           0           0           0           0           0           0
 AtZEff=  -0.0000000  -0.0000000  -0.0000000  -0.0000000  -0.0000000  -0.0000000  -0.0000000  -0.0000000  -0.0000000  -0.0000000
 NQMom=    0.0000000   0.0000000   0.0000000   0.0000000   0.0000000   0.0000000   0.0000000   0.0000000   0.0000000   0.0000000
 NMagM=    0.0000000   0.0000000   0.0000000   0.0000000   0.0000000   0.0000000   0.0000000   0.0000000   0.0000000   0.0000000
 AtZNuc=   6.0000000   6.0000000   6.0000000   6.0000000   6.0000000   6.0000000   6.0000000   6.0000000   6.0000000   6.0000000

  Atom        71          72          73          74          75          76          77          78          79          80
 IAtWgt=          12          12          12          12          12          12          12          12          12          12
 AtmWgt=  12.0000000  12.0000000  12.0000000  12.0000000  12.0000000  12.0000000  12.0000000  12.0000000  12.0000000  12.0000000
 NucSpn=           0           0           0           0           0           0           0           0           0           0
 AtZEff=  -0.0000000  -0.0000000  -0.0000000  -0.0000000  -0.0000000  -0.0000000  -0.0000000  -0.0000000  -0.0000000  -0.0000000
 NQMom=    0.0000000   0.0000000   0.0000000   0.0000000   0.0000000   0.0000000   0.0000000   0.0000000   0.0000000   0.0000000
 NMagM=    0.0000000   0.0000000   0.0000000   0.0000000   0.0000000   0.0000000   0.0000000   0.0000000   0.0000000   0.0000000
 AtZNuc=   6.0000000   6.0000000   6.0000000   6.0000000   6.0000000   6.0000000   6.0000000   6.0000000   6.0000000   6.0000000

  Atom        81          82          83          84          85          86
 IAtWgt=          12          12          12          12          35          35
 AtmWgt=  12.0000000  12.0000000  12.0000000  12.0000000  34.9688527  34.9688527
 NucSpn=           0           0           0           0           3           3
 AtZEff=  -0.0000000  -0.0000000  -0.0000000  -0.0000000  -0.0000000  -0.0000000
 NQMom=    0.0000000   0.0000000   0.0000000   0.0000000  -8.1650000  -8.1650000
 NMagM=    0.0000000   0.0000000   0.0000000   0.0000000   0.8218740   0.8218740
 AtZNuc=   6.0000000   6.0000000   6.0000000   6.0000000  17.0000000  17.0000000
 Leave Link  101 at Wed Jun 29 19:43:43 2022, MaxMem=  1342177280 cpu:               6.5 elap:               0.3
 (Enter /home/mkliu/g16/l103.exe)

 GradGradGradGradGradGradGradGradGradGradGradGradGradGradGradGradGradGrad
 Berny optimization.
 Initialization pass.
                           ----------------------------
                           !    Initial Parameters    !
                           ! (Angstroms and Degrees)  !
 --------------------------                            --------------------------
 ! Name  Definition              Value          Derivative Info.                !
 --------------------------------------------------------------------------------
 ! R1    R(1,5)                  1.4083         estimate D2E/DX2                !
 ! R2    R(1,17)                 1.4246         estimate D2E/DX2                !
 ! R3    R(1,23)                 1.4381         estimate D2E/DX2                !
 ! R4    R(2,6)                  1.4267         estimate D2E/DX2                !
 ! R5    R(2,43)                 1.4302         estimate D2E/DX2                !
 ! R6    R(2,44)                 1.4147         estimate D2E/DX2                !
 ! R7    R(3,7)                  1.426          estimate D2E/DX2                !
 ! R8    R(3,18)                 1.4149         estimate D2E/DX2                !
 ! R9    R(3,26)                 1.4185         estimate D2E/DX2                !
 ! R10   R(4,8)                  1.4273         estimate D2E/DX2                !
 ! R11   R(4,45)                 1.4128         estimate D2E/DX2                !
 ! R12   R(4,46)                 1.4265         estimate D2E/DX2                !
 ! R13   R(5,9)                  1.451          estimate D2E/DX2                !
 ! R14   R(5,29)                 1.4423         estimate D2E/DX2                !
 ! R15   R(6,10)                 1.4072         estimate D2E/DX2                !
 ! R16   R(6,15)                 1.4362         estimate D2E/DX2                !
 ! R17   R(7,12)                 1.4105         estimate D2E/DX2                !
 ! R18   R(7,30)                 1.4217         estimate D2E/DX2                !
 ! R19   R(8,11)                 1.4017         estimate D2E/DX2                !
 ! R20   R(8,16)                 1.4357         estimate D2E/DX2                !
 ! R21   R(9,13)                 1.3991         estimate D2E/DX2                !
 ! R22   R(9,35)                 1.4534         estimate D2E/DX2                !
 ! R23   R(10,49)                1.4205         estimate D2E/DX2                !
 ! R24   R(10,51)                1.4548         estimate D2E/DX2                !
 ! R25   R(11,50)                1.4213         estimate D2E/DX2                !
 ! R26   R(11,52)                1.4549         estimate D2E/DX2                !
 ! R27   R(12,14)                1.4071         estimate D2E/DX2                !
 ! R28   R(12,36)                1.4381         estimate D2E/DX2                !
 ! R29   R(13,15)                1.4276         estimate D2E/DX2                !
 ! R30   R(13,43)                1.4367         estimate D2E/DX2                !
 ! R31   R(14,16)                1.4141         estimate D2E/DX2                !
 ! R32   R(14,46)                1.435          estimate D2E/DX2                !
 ! R33   R(15,17)                1.3721         estimate D2E/DX2                !
 ! R34   R(16,18)                1.4062         estimate D2E/DX2                !
 ! R35   R(17,19)                1.4417         estimate D2E/DX2                !
 ! R36   R(18,20)                1.4422         estimate D2E/DX2                !
 ! R37   R(19,21)                1.4229         estimate D2E/DX2                !
 ! R38   R(19,51)                1.4091         estimate D2E/DX2                !
 ! R39   R(20,22)                1.4067         estimate D2E/DX2                !
 ! R40   R(20,52)                1.4496         estimate D2E/DX2                !
 ! R41   R(21,23)                1.44           estimate D2E/DX2                !
 ! R42   R(21,57)                1.4138         estimate D2E/DX2                !
 ! R43   R(22,24)                1.4345         estimate D2E/DX2                !
 ! R44   R(22,58)                1.4263         estimate D2E/DX2                !
 ! R45   R(23,25)                1.3718         estimate D2E/DX2                !
 ! R46   R(24,26)                1.3594         estimate D2E/DX2                !
 ! R47   R(24,62)                1.4488         estimate D2E/DX2                !
 ! R48   R(25,27)                1.4292         estimate D2E/DX2                !
 ! R49   R(25,61)                1.4349         estimate D2E/DX2                !
 ! R50   R(26,28)                1.5043         estimate D2E/DX2                !
 ! R51   R(27,29)                1.4055         estimate D2E/DX2                !
 ! R52   R(27,65)                1.4272         estimate D2E/DX2                !
 ! R53   R(28,30)                1.4981         estimate D2E/DX2                !
 ! R54   R(28,66)                1.5214         estimate D2E/DX2                !
 ! R55   R(28,85)                1.8102         estimate D2E/DX2                !
 ! R56   R(29,31)                1.4076         estimate D2E/DX2                !
 ! R57   R(30,32)                1.3517         estimate D2E/DX2                !
 ! R58   R(31,33)                1.4422         estimate D2E/DX2                !
 ! R59   R(31,69)                1.412          estimate D2E/DX2                !
 ! R60   R(32,34)                1.4273         estimate D2E/DX2                !
 ! R61   R(32,70)                1.5041         estimate D2E/DX2                !
 ! R62   R(33,35)                1.4023         estimate D2E/DX2                !
 ! R63   R(33,73)                1.4257         estimate D2E/DX2                !
 ! R64   R(34,36)                1.4104         estimate D2E/DX2                !
 ! R65   R(34,74)                1.4247         estimate D2E/DX2                !
 ! R66   R(35,37)                1.4514         estimate D2E/DX2                !
 ! R67   R(36,38)                1.4491         estimate D2E/DX2                !
 ! R68   R(37,39)                1.4468         estimate D2E/DX2                !
 ! R69   R(37,77)                1.4106         estimate D2E/DX2                !
 ! R70   R(38,42)                1.4557         estimate D2E/DX2                !
 ! R71   R(38,78)                1.4051         estimate D2E/DX2                !
 ! R72   R(39,43)                1.3992         estimate D2E/DX2                !
 ! R73   R(39,79)                1.421          estimate D2E/DX2                !
 ! R74   R(40,41)                1.4499         estimate D2E/DX2                !
 ! R75   R(40,44)                1.4094         estimate D2E/DX2                !
 ! R76   R(40,79)                1.4125         estimate D2E/DX2                !
 ! R77   R(41,45)                1.413          estimate D2E/DX2                !
 ! R78   R(41,80)                1.4125         estimate D2E/DX2                !
 ! R79   R(42,46)                1.4012         estimate D2E/DX2                !
 ! R80   R(42,80)                1.4212         estimate D2E/DX2                !
 ! R81   R(44,47)                1.4141         estimate D2E/DX2                !
 ! R82   R(45,48)                1.4096         estimate D2E/DX2                !
 ! R83   R(47,48)                1.4506         estimate D2E/DX2                !
 ! R84   R(47,49)                1.4098         estimate D2E/DX2                !
 ! R85   R(48,50)                1.4144         estimate D2E/DX2                !
 ! R86   R(49,56)                1.4403         estimate D2E/DX2                !
 ! R87   R(50,56)                1.4341         estimate D2E/DX2                !
 ! R88   R(51,53)                1.4162         estimate D2E/DX2                !
 ! R89   R(52,54)                1.4049         estimate D2E/DX2                !
 ! R90   R(53,55)                1.4413         estimate D2E/DX2                !
 ! R91   R(53,83)                1.4149         estimate D2E/DX2                !
 ! R92   R(54,55)                1.4415         estimate D2E/DX2                !
 ! R93   R(54,84)                1.4249         estimate D2E/DX2                !
 ! R94   R(55,56)                1.365          estimate D2E/DX2                !
 ! R95   R(57,59)                1.4521         estimate D2E/DX2                !
 ! R96   R(57,83)                1.4121         estimate D2E/DX2                !
 ! R97   R(58,60)                1.4422         estimate D2E/DX2                !
 ! R98   R(58,84)                1.3707         estimate D2E/DX2                !
 ! R99   R(59,60)                1.4185         estimate D2E/DX2                !
 ! R100  R(59,61)                1.4034         estimate D2E/DX2                !
 ! R101  R(60,62)                1.4105         estimate D2E/DX2                !
 ! R102  R(61,63)                1.4265         estimate D2E/DX2                !
 ! R103  R(62,64)                1.417          estimate D2E/DX2                !
 ! R104  R(63,64)                1.4026         estimate D2E/DX2                !
 ! R105  R(63,65)                1.4267         estimate D2E/DX2                !
 ! R106  R(64,66)                1.4448         estimate D2E/DX2                !
 ! R107  R(65,67)                1.3985         estimate D2E/DX2                !
 ! R108  R(66,68)                1.3822         estimate D2E/DX2                !
 ! R109  R(67,68)                1.444          estimate D2E/DX2                !
 ! R110  R(67,69)                1.4163         estimate D2E/DX2                !
 ! R111  R(68,70)                1.5225         estimate D2E/DX2                !
 ! R112  R(69,71)                1.4432         estimate D2E/DX2                !
 ! R113  R(70,72)                1.5067         estimate D2E/DX2                !
 ! R114  R(70,86)                1.8149         estimate D2E/DX2                !
 ! R115  R(71,72)                1.3666         estimate D2E/DX2                !
 ! R116  R(71,73)                1.4362         estimate D2E/DX2                !
 ! R117  R(72,74)                1.4271         estimate D2E/DX2                !
 ! R118  R(73,75)                1.3812         estimate D2E/DX2                !
 ! R119  R(74,76)                1.3853         estimate D2E/DX2                !
 ! R120  R(75,76)                1.4402         estimate D2E/DX2                !
 ! R121  R(75,77)                1.4203         estimate D2E/DX2                !
 ! R122  R(76,78)                1.4229         estimate D2E/DX2                !
 ! R123  R(77,81)                1.4422         estimate D2E/DX2                !
 ! R124  R(78,81)                1.4462         estimate D2E/DX2                !
 ! R125  R(79,82)                1.4334         estimate D2E/DX2                !
 ! R126  R(80,82)                1.4351         estimate D2E/DX2                !
 ! R127  R(81,82)                1.3615         estimate D2E/DX2                !
 ! R128  R(83,84)                1.4466         estimate D2E/DX2                !
 ! A1    A(5,1,17)             121.8111         estimate D2E/DX2                !
 ! A2    A(5,1,23)             122.0454         estimate D2E/DX2                !
 ! A3    A(17,1,23)            105.7641         estimate D2E/DX2                !
 ! A4    A(6,2,43)             108.4559         estimate D2E/DX2                !
 ! A5    A(6,2,44)             121.0876         estimate D2E/DX2                !
 ! A6    A(43,2,44)            120.8905         estimate D2E/DX2                !
 ! A7    A(7,3,18)             121.9128         estimate D2E/DX2                !
 ! A8    A(7,3,26)             107.7394         estimate D2E/DX2                !
 ! A9    A(18,3,26)            121.6796         estimate D2E/DX2                !
 ! A10   A(8,4,45)             121.0065         estimate D2E/DX2                !
 ! A11   A(8,4,46)             108.0078         estimate D2E/DX2                !
 ! A12   A(45,4,46)            121.1462         estimate D2E/DX2                !
 ! A13   A(1,5,9)              118.6978         estimate D2E/DX2                !
 ! A14   A(1,5,29)             116.4501         estimate D2E/DX2                !
 ! A15   A(9,5,29)             119.288          estimate D2E/DX2                !
 ! A16   A(2,6,10)             122.278          estimate D2E/DX2                !
 ! A17   A(2,6,15)             106.8274         estimate D2E/DX2                !
 ! A18   A(10,6,15)            120.8025         estimate D2E/DX2                !
 ! A19   A(3,7,12)             121.936          estimate D2E/DX2                !
 ! A20   A(3,7,30)             108.3364         estimate D2E/DX2                !
 ! A21   A(12,7,30)            121.5488         estimate D2E/DX2                !
 ! A22   A(4,8,11)             122.2983         estimate D2E/DX2                !
 ! A23   A(4,8,16)             107.8494         estimate D2E/DX2                !
 ! A24   A(11,8,16)            121.2572         estimate D2E/DX2                !
 ! A25   A(5,9,13)             117.7959         estimate D2E/DX2                !
 ! A26   A(5,9,35)             121.0936         estimate D2E/DX2                !
 ! A27   A(13,9,35)            117.0341         estimate D2E/DX2                !
 ! A28   A(6,10,49)            115.5464         estimate D2E/DX2                !
 ! A29   A(6,10,51)            118.7908         estimate D2E/DX2                !
 ! A30   A(49,10,51)           118.6169         estimate D2E/DX2                !
 ! A31   A(8,11,50)            115.6669         estimate D2E/DX2                !
 ! A32   A(8,11,52)            118.6713         estimate D2E/DX2                !
 ! A33   A(50,11,52)           119.7195         estimate D2E/DX2                !
 ! A34   A(7,12,14)            115.1522         estimate D2E/DX2                !
 ! A35   A(7,12,36)            119.8967         estimate D2E/DX2                !
 ! A36   A(14,12,36)           119.3083         estimate D2E/DX2                !
 ! A37   A(9,13,15)            122.2402         estimate D2E/DX2                !
 ! A38   A(9,13,43)            122.1268         estimate D2E/DX2                !
 ! A39   A(15,13,43)           106.5933         estimate D2E/DX2                !
 ! A40   A(12,14,16)           122.3988         estimate D2E/DX2                !
 ! A41   A(12,14,46)           121.0922         estimate D2E/DX2                !
 ! A42   A(16,14,46)           108.2673         estimate D2E/DX2                !
 ! A43   A(6,15,13)            109.3416         estimate D2E/DX2                !
 ! A44   A(6,15,17)            120.427          estimate D2E/DX2                !
 ! A45   A(13,15,17)           119.8554         estimate D2E/DX2                !
 ! A46   A(8,16,14)            108.055          estimate D2E/DX2                !
 ! A47   A(8,16,18)            121.3209         estimate D2E/DX2                !
 ! A48   A(14,16,18)           122.3315         estimate D2E/DX2                !
 ! A49   A(1,17,15)            119.2775         estimate D2E/DX2                !
 ! A50   A(1,17,19)            109.8477         estimate D2E/DX2                !
 ! A51   A(15,17,19)           120.0344         estimate D2E/DX2                !
 ! A52   A(3,18,16)            115.0847         estimate D2E/DX2                !
 ! A53   A(3,18,20)            120.203          estimate D2E/DX2                !
 ! A54   A(16,18,20)           118.896          estimate D2E/DX2                !
 ! A55   A(17,19,21)           107.1066         estimate D2E/DX2                !
 ! A56   A(17,19,51)           120.5102         estimate D2E/DX2                !
 ! A57   A(21,19,51)           122.4596         estimate D2E/DX2                !
 ! A58   A(18,20,22)           116.0992         estimate D2E/DX2                !
 ! A59   A(18,20,52)           119.9375         estimate D2E/DX2                !
 ! A60   A(22,20,52)           118.3198         estimate D2E/DX2                !
 ! A61   A(19,21,23)           107.6072         estimate D2E/DX2                !
 ! A62   A(19,21,57)           122.1843         estimate D2E/DX2                !
 ! A63   A(23,21,57)           120.6179         estimate D2E/DX2                !
 ! A64   A(20,22,24)           122.2743         estimate D2E/DX2                !
 ! A65   A(20,22,58)           122.0163         estimate D2E/DX2                !
 ! A66   A(24,22,58)           105.8192         estimate D2E/DX2                !
 ! A67   A(1,23,21)            109.1766         estimate D2E/DX2                !
 ! A68   A(1,23,25)            120.1372         estimate D2E/DX2                !
 ! A69   A(21,23,25)           119.7185         estimate D2E/DX2                !
 ! A70   A(22,24,26)           120.7959         estimate D2E/DX2                !
 ! A71   A(22,24,62)           108.8607         estimate D2E/DX2                !
 ! A72   A(26,24,62)           120.0074         estimate D2E/DX2                !
 ! A73   A(23,25,27)           119.0778         estimate D2E/DX2                !
 ! A74   A(23,25,61)           120.6775         estimate D2E/DX2                !
 ! A75   A(27,25,61)           109.1779         estimate D2E/DX2                !
 ! A76   A(3,26,24)            118.5889         estimate D2E/DX2                !
 ! A77   A(3,26,28)            111.8647         estimate D2E/DX2                !
 ! A78   A(24,26,28)           122.5318         estimate D2E/DX2                !
 ! A79   A(25,27,29)           121.099          estimate D2E/DX2                !
 ! A80   A(25,27,65)           106.9085         estimate D2E/DX2                !
 ! A81   A(29,27,65)           120.8345         estimate D2E/DX2                !
 ! A82   A(26,28,30)           100.337          estimate D2E/DX2                !
 ! A83   A(26,28,66)           112.0161         estimate D2E/DX2                !
 ! A84   A(26,28,85)           111.8544         estimate D2E/DX2                !
 ! A85   A(30,28,66)           110.7758         estimate D2E/DX2                !
 ! A86   A(30,28,85)           112.9116         estimate D2E/DX2                !
 ! A87   A(66,28,85)           108.8087         estimate D2E/DX2                !
 ! A88   A(5,29,27)            120.5291         estimate D2E/DX2                !
 ! A89   A(5,29,31)            118.7344         estimate D2E/DX2                !
 ! A90   A(27,29,31)           115.1361         estimate D2E/DX2                !
 ! A91   A(7,30,28)            111.5642         estimate D2E/DX2                !
 ! A92   A(7,30,32)            119.2543         estimate D2E/DX2                !
 ! A93   A(28,30,32)           122.3986         estimate D2E/DX2                !
 ! A94   A(29,31,33)           121.1061         estimate D2E/DX2                !
 ! A95   A(29,31,69)           122.4811         estimate D2E/DX2                !
 ! A96   A(33,31,69)           108.9953         estimate D2E/DX2                !
 ! A97   A(30,32,34)           120.1727         estimate D2E/DX2                !
 ! A98   A(30,32,70)           121.3773         estimate D2E/DX2                !
 ! A99   A(34,32,70)           111.7311         estimate D2E/DX2                !
 ! A100  A(31,33,35)           121.4942         estimate D2E/DX2                !
 ! A101  A(31,33,73)           106.9177         estimate D2E/DX2                !
 ! A102  A(35,33,73)           122.5934         estimate D2E/DX2                !
 ! A103  A(32,34,36)           122.7383         estimate D2E/DX2                !
 ! A104  A(32,34,74)           107.179          estimate D2E/DX2                !
 ! A105  A(36,34,74)           122.0466         estimate D2E/DX2                !
 ! A106  A(9,35,33)            117.1527         estimate D2E/DX2                !
 ! A107  A(9,35,37)            120.668          estimate D2E/DX2                !
 ! A108  A(33,35,37)           118.0616         estimate D2E/DX2                !
 ! A109  A(12,36,34)           116.1397         estimate D2E/DX2                !
 ! A110  A(12,36,38)           119.8304         estimate D2E/DX2                !
 ! A111  A(34,36,38)           118.8168         estimate D2E/DX2                !
 ! A112  A(35,37,39)           119.7423         estimate D2E/DX2                !
 ! A113  A(35,37,77)           118.1978         estimate D2E/DX2                !
 ! A114  A(39,37,77)           116.8597         estimate D2E/DX2                !
 ! A115  A(36,38,42)           119.6497         estimate D2E/DX2                !
 ! A116  A(36,38,78)           117.7044         estimate D2E/DX2                !
 ! A117  A(42,38,78)           117.5413         estimate D2E/DX2                !
 ! A118  A(37,39,43)           118.3089         estimate D2E/DX2                !
 ! A119  A(37,39,79)           120.2643         estimate D2E/DX2                !
 ! A120  A(43,39,79)           115.7039         estimate D2E/DX2                !
 ! A121  A(41,40,44)           120.9079         estimate D2E/DX2                !
 ! A122  A(41,40,79)           108.2724         estimate D2E/DX2                !
 ! A123  A(44,40,79)           121.149          estimate D2E/DX2                !
 ! A124  A(40,41,45)           120.353          estimate D2E/DX2                !
 ! A125  A(40,41,80)           108.6262         estimate D2E/DX2                !
 ! A126  A(45,41,80)           121.1712         estimate D2E/DX2                !
 ! A127  A(38,42,46)           118.9996         estimate D2E/DX2                !
 ! A128  A(38,42,80)           119.6796         estimate D2E/DX2                !
 ! A129  A(46,42,80)           115.4338         estimate D2E/DX2                !
 ! A130  A(2,43,13)            108.4446         estimate D2E/DX2                !
 ! A131  A(2,43,39)            122.1899         estimate D2E/DX2                !
 ! A132  A(13,43,39)           121.3305         estimate D2E/DX2                !
 ! A133  A(2,44,40)            116.9059         estimate D2E/DX2                !
 ! A134  A(2,44,47)            116.858          estimate D2E/DX2                !
 ! A135  A(40,44,47)           118.5369         estimate D2E/DX2                !
 ! A136  A(4,45,41)            116.7866         estimate D2E/DX2                !
 ! A137  A(4,45,48)            116.9956         estimate D2E/DX2                !
 ! A138  A(41,45,48)           118.5834         estimate D2E/DX2                !
 ! A139  A(4,46,14)            107.7699         estimate D2E/DX2                !
 ! A140  A(4,46,42)            122.4413         estimate D2E/DX2                !
 ! A141  A(14,46,42)           121.0502         estimate D2E/DX2                !
 ! A142  A(44,47,48)           120.3164         estimate D2E/DX2                !
 ! A143  A(44,47,49)           121.3193         estimate D2E/DX2                !
 ! A144  A(48,47,49)           108.4653         estimate D2E/DX2                !
 ! A145  A(45,48,47)           120.8765         estimate D2E/DX2                !
 ! A146  A(45,48,50)           121.2224         estimate D2E/DX2                !
 ! A147  A(47,48,50)           108.5285         estimate D2E/DX2                !
 ! A148  A(10,49,47)           122.5713         estimate D2E/DX2                !
 ! A149  A(10,49,56)           120.6038         estimate D2E/DX2                !
 ! A150  A(47,49,56)           106.7206         estimate D2E/DX2                !
 ! A151  A(11,50,48)           122.1801         estimate D2E/DX2                !
 ! A152  A(11,50,56)           120.8129         estimate D2E/DX2                !
 ! A153  A(48,50,56)           106.6171         estimate D2E/DX2                !
 ! A154  A(10,51,19)           119.2698         estimate D2E/DX2                !
 ! A155  A(10,51,53)           119.143          estimate D2E/DX2                !
 ! A156  A(19,51,53)           114.8404         estimate D2E/DX2                !
 ! A157  A(11,52,20)           119.8732         estimate D2E/DX2                !
 ! A158  A(11,52,54)           117.0843         estimate D2E/DX2                !
 ! A159  A(20,52,54)           117.8536         estimate D2E/DX2                !
 ! A160  A(51,53,55)           120.6199         estimate D2E/DX2                !
 ! A161  A(51,53,83)           122.3895         estimate D2E/DX2                !
 ! A162  A(55,53,83)           107.2946         estimate D2E/DX2                !
 ! A163  A(52,54,55)           121.9701         estimate D2E/DX2                !
 ! A164  A(52,54,84)           122.2592         estimate D2E/DX2                !
 ! A165  A(55,54,84)           105.4397         estimate D2E/DX2                !
 ! A166  A(53,55,54)           109.566          estimate D2E/DX2                !
 ! A167  A(53,55,56)           120.2672         estimate D2E/DX2                !
 ! A168  A(54,55,56)           120.3198         estimate D2E/DX2                !
 ! A169  A(49,56,50)           109.4467         estimate D2E/DX2                !
 ! A170  A(49,56,55)           120.6064         estimate D2E/DX2                !
 ! A171  A(50,56,55)           119.5479         estimate D2E/DX2                !
 ! A172  A(21,57,59)           119.2277         estimate D2E/DX2                !
 ! A173  A(21,57,83)           114.8983         estimate D2E/DX2                !
 ! A174  A(59,57,83)           118.9791         estimate D2E/DX2                !
 ! A175  A(22,58,60)           109.5254         estimate D2E/DX2                !
 ! A176  A(22,58,84)           119.3598         estimate D2E/DX2                !
 ! A177  A(60,58,84)           120.5185         estimate D2E/DX2                !
 ! A178  A(57,59,60)           119.5402         estimate D2E/DX2                !
 ! A179  A(57,59,61)           118.774          estimate D2E/DX2                !
 ! A180  A(60,59,61)           114.7438         estimate D2E/DX2                !
 ! A181  A(58,60,59)           120.0437         estimate D2E/DX2                !
 ! A182  A(58,60,62)           107.5055         estimate D2E/DX2                !
 ! A183  A(59,60,62)           122.8337         estimate D2E/DX2                !
 ! A184  A(25,61,59)           120.9492         estimate D2E/DX2                !
 ! A185  A(25,61,63)           106.7502         estimate D2E/DX2                !
 ! A186  A(59,61,63)           121.7226         estimate D2E/DX2                !
 ! A187  A(24,62,60)           107.5774         estimate D2E/DX2                !
 ! A188  A(24,62,64)           119.4431         estimate D2E/DX2                !
 ! A189  A(60,62,64)           121.7557         estimate D2E/DX2                !
 ! A190  A(61,63,64)           122.8712         estimate D2E/DX2                !
 ! A191  A(61,63,65)           108.5814         estimate D2E/DX2                !
 ! A192  A(64,63,65)           120.1373         estimate D2E/DX2                !
 ! A193  A(62,64,63)           114.7467         estimate D2E/DX2                !
 ! A194  A(62,64,66)           121.5585         estimate D2E/DX2                !
 ! A195  A(63,64,66)           118.6046         estimate D2E/DX2                !
 ! A196  A(27,65,63)           108.4908         estimate D2E/DX2                !
 ! A197  A(27,65,67)           122.5578         estimate D2E/DX2                !
 ! A198  A(63,65,67)           121.1395         estimate D2E/DX2                !
 ! A199  A(28,66,64)           117.1406         estimate D2E/DX2                !
 ! A200  A(28,66,68)           120.5221         estimate D2E/DX2                !
 ! A201  A(64,66,68)           121.0837         estimate D2E/DX2                !
 ! A202  A(65,67,68)           118.7156         estimate D2E/DX2                !
 ! A203  A(65,67,69)           114.7649         estimate D2E/DX2                !
 ! A204  A(68,67,69)           121.2587         estimate D2E/DX2                !
 ! A205  A(66,68,67)           120.1849         estimate D2E/DX2                !
 ! A206  A(66,68,70)           120.9195         estimate D2E/DX2                !
 ! A207  A(67,68,70)           117.5945         estimate D2E/DX2                !
 ! A208  A(31,69,67)           120.9587         estimate D2E/DX2                !
 ! A209  A(31,69,71)           107.7352         estimate D2E/DX2                !
 ! A210  A(67,69,71)           120.364          estimate D2E/DX2                !
 ! A211  A(32,70,68)           110.5946         estimate D2E/DX2                !
 ! A212  A(32,70,72)           100.91           estimate D2E/DX2                !
 ! A213  A(32,70,86)           112.8396         estimate D2E/DX2                !
 ! A214  A(68,70,72)           113.2023         estimate D2E/DX2                !
 ! A215  A(68,70,86)           108.1655         estimate D2E/DX2                !
 ! A216  A(72,70,86)           111.1017         estimate D2E/DX2                !
 ! A217  A(69,71,72)           120.1546         estimate D2E/DX2                !
 ! A218  A(69,71,73)           107.4343         estimate D2E/DX2                !
 ! A219  A(72,71,73)           120.905          estimate D2E/DX2                !
 ! A220  A(70,72,71)           122.6971         estimate D2E/DX2                !
 ! A221  A(70,72,74)           110.1693         estimate D2E/DX2                !
 ! A222  A(71,72,74)           118.8093         estimate D2E/DX2                !
 ! A223  A(33,73,71)           108.592          estimate D2E/DX2                !
 ! A224  A(33,73,75)           119.2715         estimate D2E/DX2                !
 ! A225  A(71,73,75)           120.3458         estimate D2E/DX2                !
 ! A226  A(34,74,72)           109.158          estimate D2E/DX2                !
 ! A227  A(34,74,76)           118.9891         estimate D2E/DX2                !
 ! A228  A(72,74,76)           121.2214         estimate D2E/DX2                !
 ! A229  A(73,75,76)           118.9866         estimate D2E/DX2                !
 ! A230  A(73,75,77)           119.4896         estimate D2E/DX2                !
 ! A231  A(76,75,77)           109.0309         estimate D2E/DX2                !
 ! A232  A(74,76,75)           119.541          estimate D2E/DX2                !
 ! A233  A(74,76,78)           119.766          estimate D2E/DX2                !
 ! A234  A(75,76,78)           108.6343         estimate D2E/DX2                !
 ! A235  A(37,77,75)           122.2999         estimate D2E/DX2                !
 ! A236  A(37,77,81)           121.0153         estimate D2E/DX2                !
 ! A237  A(75,77,81)           105.9331         estimate D2E/DX2                !
 ! A238  A(38,78,76)           122.4904         estimate D2E/DX2                !
 ! A239  A(38,78,81)           121.133          estimate D2E/DX2                !
 ! A240  A(76,78,81)           105.9142         estimate D2E/DX2                !
 ! A241  A(39,79,40)           122.1932         estimate D2E/DX2                !
 ! A242  A(39,79,82)           120.0301         estimate D2E/DX2                !
 ! A243  A(40,79,82)           106.6434         estimate D2E/DX2                !
 ! A244  A(41,80,42)           122.4795         estimate D2E/DX2                !
 ! A245  A(41,80,82)           106.4168         estimate D2E/DX2                !
 ! A246  A(42,80,82)           120.1332         estimate D2E/DX2                !
 ! A247  A(77,81,78)           109.447          estimate D2E/DX2                !
 ! A248  A(77,81,82)           120.4879         estimate D2E/DX2                !
 ! A249  A(78,81,82)           120.1342         estimate D2E/DX2                !
 ! A250  A(79,82,80)           109.6017         estimate D2E/DX2                !
 ! A251  A(79,82,81)           119.7857         estimate D2E/DX2                !
 ! A252  A(80,82,81)           120.2355         estimate D2E/DX2                !
 ! A253  A(53,83,57)           122.5001         estimate D2E/DX2                !
 ! A254  A(53,83,84)           107.5976         estimate D2E/DX2                !
 ! A255  A(57,83,84)           120.4441         estimate D2E/DX2                !
 ! A256  A(54,84,58)           119.5806         estimate D2E/DX2                !
 ! A257  A(54,84,83)           109.6206         estimate D2E/DX2                !
 ! A258  A(58,84,83)           120.4225         estimate D2E/DX2                !
 ! D1    D(17,1,5,9)             3.889          estimate D2E/DX2                !
 ! D2    D(17,1,5,29)         -149.6523         estimate D2E/DX2                !
 ! D3    D(23,1,5,9)           143.8366         estimate D2E/DX2                !
 ! D4    D(23,1,5,29)           -9.7047         estimate D2E/DX2                !
 ! D5    D(5,1,17,15)           -5.519          estimate D2E/DX2                !
 ! D6    D(5,1,17,19)          138.8155         estimate D2E/DX2                !
 ! D7    D(23,1,17,15)        -150.9947         estimate D2E/DX2                !
 ! D8    D(23,1,17,19)          -6.6603         estimate D2E/DX2                !
 ! D9    D(5,1,23,21)         -138.2709         estimate D2E/DX2                !
 ! D10   D(5,1,23,25)            5.7083         estimate D2E/DX2                !
 ! D11   D(17,1,23,21)           7.1042         estimate D2E/DX2                !
 ! D12   D(17,1,23,25)         151.0834         estimate D2E/DX2                !
 ! D13   D(43,2,6,10)         -142.3305         estimate D2E/DX2                !
 ! D14   D(43,2,6,15)            3.137          estimate D2E/DX2                !
 ! D15   D(44,2,6,10)            4.1015         estimate D2E/DX2                !
 ! D16   D(44,2,6,15)          149.569          estimate D2E/DX2                !
 ! D17   D(6,2,43,13)            0.4385         estimate D2E/DX2                !
 ! D18   D(6,2,43,39)          149.4906         estimate D2E/DX2                !
 ! D19   D(44,2,43,13)        -146.0719         estimate D2E/DX2                !
 ! D20   D(44,2,43,39)           2.9802         estimate D2E/DX2                !
 ! D21   D(6,2,44,40)         -149.0775         estimate D2E/DX2                !
 ! D22   D(6,2,44,47)           -0.0434         estimate D2E/DX2                !
 ! D23   D(43,2,44,40)          -6.7527         estimate D2E/DX2                !
 ! D24   D(43,2,44,47)         142.2814         estimate D2E/DX2                !
 ! D25   D(18,3,7,12)            0.092          estimate D2E/DX2                !
 ! D26   D(18,3,7,30)          148.9743         estimate D2E/DX2                !
 ! D27   D(26,3,7,12)         -147.9875         estimate D2E/DX2                !
 ! D28   D(26,3,7,30)            0.8948         estimate D2E/DX2                !
 ! D29   D(7,3,18,16)            8.5761         estimate D2E/DX2                !
 ! D30   D(7,3,18,20)         -144.2757         estimate D2E/DX2                !
 ! D31   D(26,3,18,16)         152.2929         estimate D2E/DX2                !
 ! D32   D(26,3,18,20)          -0.5589         estimate D2E/DX2                !
 ! D33   D(7,3,26,24)          148.2329         estimate D2E/DX2                !
 ! D34   D(7,3,26,28)           -3.2402         estimate D2E/DX2                !
 ! D35   D(18,3,26,24)           0.0635         estimate D2E/DX2                !
 ! D36   D(18,3,26,28)        -151.4097         estimate D2E/DX2                !
 ! D37   D(45,4,8,11)           -0.2529         estimate D2E/DX2                !
 ! D38   D(45,4,8,16)         -148.2972         estimate D2E/DX2                !
 ! D39   D(46,4,8,11)          145.8363         estimate D2E/DX2                !
 ! D40   D(46,4,8,16)           -2.208          estimate D2E/DX2                !
 ! D41   D(8,4,45,41)          145.0754         estimate D2E/DX2                !
 ! D42   D(8,4,45,48)           -4.092          estimate D2E/DX2                !
 ! D43   D(46,4,45,41)           3.3869         estimate D2E/DX2                !
 ! D44   D(46,4,45,48)        -145.7804         estimate D2E/DX2                !
 ! D45   D(8,4,46,14)            2.2294         estimate D2E/DX2                !
 ! D46   D(8,4,46,42)         -145.4957         estimate D2E/DX2                !
 ! D47   D(45,4,46,14)         148.2619         estimate D2E/DX2                !
 ! D48   D(45,4,46,42)           0.5368         estimate D2E/DX2                !
 ! D49   D(1,5,9,13)             1.2817         estimate D2E/DX2                !
 ! D50   D(1,5,9,35)          -155.344          estimate D2E/DX2                !
 ! D51   D(29,5,9,13)          154.0636         estimate D2E/DX2                !
 ! D52   D(29,5,9,35)           -2.562          estimate D2E/DX2                !
 ! D53   D(1,5,29,27)            7.3707         estimate D2E/DX2                !
 ! D54   D(1,5,29,31)          159.7101         estimate D2E/DX2                !
 ! D55   D(9,5,29,27)         -146.0073         estimate D2E/DX2                !
 ! D56   D(9,5,29,31)            6.3321         estimate D2E/DX2                !
 ! D57   D(2,6,10,49)           -6.8858         estimate D2E/DX2                !
 ! D58   D(2,6,10,51)          143.3865         estimate D2E/DX2                !
 ! D59   D(15,6,10,49)        -147.7093         estimate D2E/DX2                !
 ! D60   D(15,6,10,51)           2.563          estimate D2E/DX2                !
 ! D61   D(2,6,15,13)           -5.6174         estimate D2E/DX2                !
 ! D62   D(2,6,15,17)         -150.5042         estimate D2E/DX2                !
 ! D63   D(10,6,15,13)         140.4661         estimate D2E/DX2                !
 ! D64   D(10,6,15,17)          -4.4207         estimate D2E/DX2                !
 ! D65   D(3,7,12,14)           -8.6807         estimate D2E/DX2                !
 ! D66   D(3,7,12,36)          144.6693         estimate D2E/DX2                !
 ! D67   D(30,7,12,14)        -153.5361         estimate D2E/DX2                !
 ! D68   D(30,7,12,36)          -0.1862         estimate D2E/DX2                !
 ! D69   D(3,7,30,28)            1.762          estimate D2E/DX2                !
 ! D70   D(3,7,30,32)         -150.0884         estimate D2E/DX2                !
 ! D71   D(12,7,30,28)         150.7885         estimate D2E/DX2                !
 ! D72   D(12,7,30,32)          -1.0619         estimate D2E/DX2                !
 ! D73   D(4,8,11,50)            6.7439         estimate D2E/DX2                !
 ! D74   D(4,8,11,52)         -146.0888         estimate D2E/DX2                !
 ! D75   D(16,8,11,50)         150.6344         estimate D2E/DX2                !
 ! D76   D(16,8,11,52)          -2.1983         estimate D2E/DX2                !
 ! D77   D(4,8,16,14)            1.3408         estimate D2E/DX2                !
 ! D78   D(4,8,16,18)          150.3042         estimate D2E/DX2                !
 ! D79   D(11,8,16,14)        -147.1027         estimate D2E/DX2                !
 ! D80   D(11,8,16,18)           1.8607         estimate D2E/DX2                !
 ! D81   D(5,9,13,15)           -4.9341         estimate D2E/DX2                !
 ! D82   D(5,9,13,43)         -147.5646         estimate D2E/DX2                !
 ! D83   D(35,9,13,15)         152.6448         estimate D2E/DX2                !
 ! D84   D(35,9,13,43)          10.0143         estimate D2E/DX2                !
 ! D85   D(5,9,35,33)           -6.6054         estimate D2E/DX2                !
 ! D86   D(5,9,35,37)          150.145          estimate D2E/DX2                !
 ! D87   D(13,9,35,33)        -163.4011         estimate D2E/DX2                !
 ! D88   D(13,9,35,37)          -6.6507         estimate D2E/DX2                !
 ! D89   D(6,10,49,47)           6.1033         estimate D2E/DX2                !
 ! D90   D(6,10,49,56)         146.8634         estimate D2E/DX2                !
 ! D91   D(51,10,49,47)       -144.2233         estimate D2E/DX2                !
 ! D92   D(51,10,49,56)         -3.4632         estimate D2E/DX2                !
 ! D93   D(6,10,51,19)           1.1556         estimate D2E/DX2                !
 ! D94   D(6,10,51,53)        -148.6005         estimate D2E/DX2                !
 ! D95   D(49,10,51,19)        150.5145         estimate D2E/DX2                !
 ! D96   D(49,10,51,53)          0.7584         estimate D2E/DX2                !
 ! D97   D(8,11,50,48)          -9.1981         estimate D2E/DX2                !
 ! D98   D(8,11,50,56)        -149.4362         estimate D2E/DX2                !
 ! D99   D(52,11,50,48)        143.332          estimate D2E/DX2                !
 ! D100  D(52,11,50,56)          3.0939         estimate D2E/DX2                !
 ! D101  D(8,11,52,20)           0.755          estimate D2E/DX2                !
 ! D102  D(8,11,52,54)         154.7697         estimate D2E/DX2                !
 ! D103  D(50,11,52,20)       -150.9593         estimate D2E/DX2                !
 ! D104  D(50,11,52,54)          3.0554         estimate D2E/DX2                !
 ! D105  D(7,12,14,16)           8.6609         estimate D2E/DX2                !
 ! D106  D(7,12,14,46)         153.3681         estimate D2E/DX2                !
 ! D107  D(36,12,14,16)       -144.8561         estimate D2E/DX2                !
 ! D108  D(36,12,14,46)         -0.149          estimate D2E/DX2                !
 ! D109  D(7,12,36,34)           3.6217         estimate D2E/DX2                !
 ! D110  D(7,12,36,38)        -150.5807         estimate D2E/DX2                !
 ! D111  D(14,12,36,34)        155.8721         estimate D2E/DX2                !
 ! D112  D(14,12,36,38)          1.6696         estimate D2E/DX2                !
 ! D113  D(9,13,15,6)         -141.7039         estimate D2E/DX2                !
 ! D114  D(9,13,15,17)           3.4153         estimate D2E/DX2                !
 ! D115  D(43,13,15,6)           5.8607         estimate D2E/DX2                !
 ! D116  D(43,13,15,17)        150.9799         estimate D2E/DX2                !
 ! D117  D(9,13,43,2)          143.7576         estimate D2E/DX2                !
 ! D118  D(9,13,43,39)          -5.6116         estimate D2E/DX2                !
 ! D119  D(15,13,43,2)          -3.8524         estimate D2E/DX2                !
 ! D120  D(15,13,43,39)       -153.2216         estimate D2E/DX2                !
 ! D121  D(12,14,16,8)         148.6386         estimate D2E/DX2                !
 ! D122  D(12,14,16,18)          0.0555         estimate D2E/DX2                !
 ! D123  D(46,14,16,8)           0.0387         estimate D2E/DX2                !
 ! D124  D(46,14,16,18)       -148.5444         estimate D2E/DX2                !
 ! D125  D(12,14,46,4)        -150.4923         estimate D2E/DX2                !
 ! D126  D(12,14,46,42)         -2.2292         estimate D2E/DX2                !
 ! D127  D(16,14,46,4)          -1.4036         estimate D2E/DX2                !
 ! D128  D(16,14,46,42)        146.8594         estimate D2E/DX2                !
 ! D129  D(6,15,17,1)          143.1148         estimate D2E/DX2                !
 ! D130  D(6,15,17,19)           2.4221         estimate D2E/DX2                !
 ! D131  D(13,15,17,1)           1.8543         estimate D2E/DX2                !
 ! D132  D(13,15,17,19)       -138.8384         estimate D2E/DX2                !
 ! D133  D(8,16,18,3)         -153.2197         estimate D2E/DX2                !
 ! D134  D(8,16,18,20)           0.009          estimate D2E/DX2                !
 ! D135  D(14,16,18,3)          -8.68           estimate D2E/DX2                !
 ! D136  D(14,16,18,20)        144.5487         estimate D2E/DX2                !
 ! D137  D(1,17,19,21)           3.7423         estimate D2E/DX2                !
 ! D138  D(1,17,19,51)        -142.6822         estimate D2E/DX2                !
 ! D139  D(15,17,19,21)        147.7656         estimate D2E/DX2                !
 ! D140  D(15,17,19,51)          1.3412         estimate D2E/DX2                !
 ! D141  D(3,18,20,22)          -2.6797         estimate D2E/DX2                !
 ! D142  D(3,18,20,52)         150.4099         estimate D2E/DX2                !
 ! D143  D(16,18,20,22)       -154.5139         estimate D2E/DX2                !
 ! D144  D(16,18,20,52)         -1.4243         estimate D2E/DX2                !
 ! D145  D(17,19,21,23)          0.7626         estimate D2E/DX2                !
 ! D146  D(17,19,21,57)       -145.4479         estimate D2E/DX2                !
 ! D147  D(51,19,21,23)        146.3823         estimate D2E/DX2                !
 ! D148  D(51,19,21,57)          0.1719         estimate D2E/DX2                !
 ! D149  D(17,19,51,10)         -3.1231         estimate D2E/DX2                !
 ! D150  D(17,19,51,53)        147.8795         estimate D2E/DX2                !
 ! D151  D(21,19,51,10)       -144.3353         estimate D2E/DX2                !
 ! D152  D(21,19,51,53)          6.6673         estimate D2E/DX2                !
 ! D153  D(18,20,22,24)          6.5391         estimate D2E/DX2                !
 ! D154  D(18,20,22,58)        147.3565         estimate D2E/DX2                !
 ! D155  D(52,20,22,24)       -147.0035         estimate D2E/DX2                !
 ! D156  D(52,20,22,58)         -6.1861         estimate D2E/DX2                !
 ! D157  D(18,20,52,11)          1.0535         estimate D2E/DX2                !
 ! D158  D(18,20,52,54)       -152.7654         estimate D2E/DX2                !
 ! D159  D(22,20,52,11)        153.5561         estimate D2E/DX2                !
 ! D160  D(22,20,52,54)         -0.2628         estimate D2E/DX2                !
 ! D161  D(19,21,23,1)          -4.949          estimate D2E/DX2                !
 ! D162  D(19,21,23,25)       -149.1029         estimate D2E/DX2                !
 ! D163  D(57,21,23,1)         141.8937         estimate D2E/DX2                !
 ! D164  D(57,21,23,25)         -2.2602         estimate D2E/DX2                !
 ! D165  D(19,21,57,59)        143.789          estimate D2E/DX2                !
 ! D166  D(19,21,57,83)         -6.8744         estimate D2E/DX2                !
 ! D167  D(23,21,57,59)          1.8112         estimate D2E/DX2                !
 ! D168  D(23,21,57,83)       -148.8522         estimate D2E/DX2                !
 ! D169  D(20,22,24,26)         -7.3366         estimate D2E/DX2                !
 ! D170  D(20,22,24,62)        137.6328         estimate D2E/DX2                !
 ! D171  D(58,22,24,26)       -153.5029         estimate D2E/DX2                !
 ! D172  D(58,22,24,62)         -8.5335         estimate D2E/DX2                !
 ! D173  D(20,22,58,60)       -138.4304         estimate D2E/DX2                !
 ! D174  D(20,22,58,84)          6.4242         estimate D2E/DX2                !
 ! D175  D(24,22,58,60)          7.8444         estimate D2E/DX2                !
 ! D176  D(24,22,58,84)        152.6989         estimate D2E/DX2                !
 ! D177  D(1,23,25,27)           1.0316         estimate D2E/DX2                !
 ! D178  D(1,23,25,61)        -139.0469         estimate D2E/DX2                !
 ! D179  D(21,23,25,27)        141.2719         estimate D2E/DX2                !
 ! D180  D(21,23,25,61)          1.1934         estimate D2E/DX2                !
 ! D181  D(22,24,26,3)           3.7196         estimate D2E/DX2                !
 ! D182  D(22,24,26,28)        152.004          estimate D2E/DX2                !
 ! D183  D(62,24,26,3)        -137.4312         estimate D2E/DX2                !
 ! D184  D(62,24,26,28)         10.8532         estimate D2E/DX2                !
 ! D185  D(22,24,62,60)          6.1244         estimate D2E/DX2                !
 ! D186  D(22,24,62,64)       -138.2429         estimate D2E/DX2                !
 ! D187  D(26,24,62,60)        151.4162         estimate D2E/DX2                !
 ! D188  D(26,24,62,64)          7.0489         estimate D2E/DX2                !
 ! D189  D(23,25,27,29)         -3.2345         estimate D2E/DX2                !
 ! D190  D(23,25,27,65)       -147.2335         estimate D2E/DX2                !
 ! D191  D(61,25,27,29)        141.0078         estimate D2E/DX2                !
 ! D192  D(61,25,27,65)         -2.9911         estimate D2E/DX2                !
 ! D193  D(23,25,61,59)          0.2877         estimate D2E/DX2                !
 ! D194  D(23,25,61,63)        145.4468         estimate D2E/DX2                !
 ! D195  D(27,25,61,59)       -143.2845         estimate D2E/DX2                !
 ! D196  D(27,25,61,63)          1.8745         estimate D2E/DX2                !
 ! D197  D(3,26,28,30)           4.0095         estimate D2E/DX2                !
 ! D198  D(3,26,28,66)         121.5695         estimate D2E/DX2                !
 ! D199  D(3,26,28,85)        -115.9594         estimate D2E/DX2                !
 ! D200  D(24,26,28,30)       -146.1633         estimate D2E/DX2                !
 ! D201  D(24,26,28,66)        -28.6032         estimate D2E/DX2                !
 ! D202  D(24,26,28,85)         93.8678         estimate D2E/DX2                !
 ! D203  D(25,27,29,5)          -1.1076         estimate D2E/DX2                !
 ! D204  D(25,27,29,31)       -154.3866         estimate D2E/DX2                !
 ! D205  D(65,27,29,5)         137.9751         estimate D2E/DX2                !
 ! D206  D(65,27,29,31)        -15.3039         estimate D2E/DX2                !
 ! D207  D(25,27,65,63)          2.9555         estimate D2E/DX2                !
 ! D208  D(25,27,65,67)        152.3241         estimate D2E/DX2                !
 ! D209  D(29,27,65,63)       -141.1584         estimate D2E/DX2                !
 ! D210  D(29,27,65,67)          8.2101         estimate D2E/DX2                !
 ! D211  D(26,28,30,7)          -3.4242         estimate D2E/DX2                !
 ! D212  D(26,28,30,32)        147.4002         estimate D2E/DX2                !
 ! D213  D(66,28,30,7)        -121.8977         estimate D2E/DX2                !
 ! D214  D(66,28,30,32)         28.9268         estimate D2E/DX2                !
 ! D215  D(85,28,30,7)         115.7778         estimate D2E/DX2                !
 ! D216  D(85,28,30,32)        -93.3977         estimate D2E/DX2                !
 ! D217  D(26,28,66,64)         29.4423         estimate D2E/DX2                !
 ! D218  D(26,28,66,68)       -137.9062         estimate D2E/DX2                !
 ! D219  D(30,28,66,64)        140.5681         estimate D2E/DX2                !
 ! D220  D(30,28,66,68)        -26.7805         estimate D2E/DX2                !
 ! D221  D(85,28,66,64)        -94.7451         estimate D2E/DX2                !
 ! D222  D(85,28,66,68)         97.9063         estimate D2E/DX2                !
 ! D223  D(5,29,31,33)          -1.0047         estimate D2E/DX2                !
 ! D224  D(5,29,31,69)        -147.5961         estimate D2E/DX2                !
 ! D225  D(27,29,31,33)        152.7825         estimate D2E/DX2                !
 ! D226  D(27,29,31,69)          6.1911         estimate D2E/DX2                !
 ! D227  D(7,30,32,34)          -1.2774         estimate D2E/DX2                !
 ! D228  D(7,30,32,70)         147.6147         estimate D2E/DX2                !
 ! D229  D(28,30,32,34)       -149.9692         estimate D2E/DX2                !
 ! D230  D(28,30,32,70)         -1.0771         estimate D2E/DX2                !
 ! D231  D(29,31,33,35)         -8.6692         estimate D2E/DX2                !
 ! D232  D(29,31,33,73)       -156.519          estimate D2E/DX2                !
 ! D233  D(69,31,33,35)        141.9097         estimate D2E/DX2                !
 ! D234  D(69,31,33,73)         -5.94           estimate D2E/DX2                !
 ! D235  D(29,31,69,67)         10.7702         estimate D2E/DX2                !
 ! D236  D(29,31,69,71)        154.9377         estimate D2E/DX2                !
 ! D237  D(33,31,69,67)       -139.3233         estimate D2E/DX2                !
 ! D238  D(33,31,69,71)          4.8442         estimate D2E/DX2                !
 ! D239  D(30,32,34,36)          5.088          estimate D2E/DX2                !
 ! D240  D(30,32,34,74)        154.2964         estimate D2E/DX2                !
 ! D241  D(70,32,34,36)       -146.5631         estimate D2E/DX2                !
 ! D242  D(70,32,34,74)          2.6454         estimate D2E/DX2                !
 ! D243  D(30,32,70,68)        -28.1962         estimate D2E/DX2                !
 ! D244  D(30,32,70,72)       -148.2659         estimate D2E/DX2                !
 ! D245  D(30,32,70,86)         93.1123         estimate D2E/DX2                !
 ! D246  D(34,32,70,68)        123.0646         estimate D2E/DX2                !
 ! D247  D(34,32,70,72)          2.9949         estimate D2E/DX2                !
 ! D248  D(34,32,70,86)       -115.6269         estimate D2E/DX2                !
 ! D249  D(31,33,35,9)          12.1543         estimate D2E/DX2                !
 ! D250  D(31,33,35,37)       -145.2169         estimate D2E/DX2                !
 ! D251  D(73,33,35,9)         154.9774         estimate D2E/DX2                !
 ! D252  D(73,33,35,37)         -2.3938         estimate D2E/DX2                !
 ! D253  D(31,33,73,71)          4.7137         estimate D2E/DX2                !
 ! D254  D(31,33,73,75)        147.8064         estimate D2E/DX2                !
 ! D255  D(35,33,73,71)       -142.6999         estimate D2E/DX2                !
 ! D256  D(35,33,73,75)          0.3928         estimate D2E/DX2                !
 ! D257  D(32,34,36,12)         -6.1012         estimate D2E/DX2                !
 ! D258  D(32,34,36,38)        148.3747         estimate D2E/DX2                !
 ! D259  D(74,34,36,12)       -150.8611         estimate D2E/DX2                !
 ! D260  D(74,34,36,38)          3.6148         estimate D2E/DX2                !
 ! D261  D(32,34,74,72)         -7.6378         estimate D2E/DX2                !
 ! D262  D(32,34,74,76)       -152.7048         estimate D2E/DX2                !
 ! D263  D(36,34,74,72)        141.8308         estimate D2E/DX2                !
 ! D264  D(36,34,74,76)         -3.2362         estimate D2E/DX2                !
 ! D265  D(9,35,37,39)          -1.0718         estimate D2E/DX2                !
 ! D266  D(9,35,37,77)        -154.8078         estimate D2E/DX2                !
 ! D267  D(33,35,37,39)        155.4734         estimate D2E/DX2                !
 ! D268  D(33,35,37,77)          1.7374         estimate D2E/DX2                !
 ! D269  D(12,36,38,42)         -0.9087         estimate D2E/DX2                !
 ! D270  D(12,36,38,78)        153.2299         estimate D2E/DX2                !
 ! D271  D(34,36,38,42)       -154.4277         estimate D2E/DX2                !
 ! D272  D(34,36,38,78)         -0.2891         estimate D2E/DX2                !
 ! D273  D(35,37,39,43)          5.6715         estimate D2E/DX2                !
 ! D274  D(35,37,39,79)       -146.5411         estimate D2E/DX2                !
 ! D275  D(77,37,39,43)        159.7491         estimate D2E/DX2                !
 ! D276  D(77,37,39,79)          7.5365         estimate D2E/DX2                !
 ! D277  D(35,37,77,75)          0.8415         estimate D2E/DX2                !
 ! D278  D(35,37,77,81)        140.2195         estimate D2E/DX2                !
 ! D279  D(39,37,77,75)       -153.648          estimate D2E/DX2                !
 ! D280  D(39,37,77,81)        -14.2699         estimate D2E/DX2                !
 ! D281  D(36,38,42,46)         -1.397          estimate D2E/DX2                !
 ! D282  D(36,38,42,80)        150.3766         estimate D2E/DX2                !
 ! D283  D(78,38,42,46)       -155.5769         estimate D2E/DX2                !
 ! D284  D(78,38,42,80)         -3.8034         estimate D2E/DX2                !
 ! D285  D(36,38,78,76)         -3.4259         estimate D2E/DX2                !
 ! D286  D(36,38,78,81)       -143.2833         estimate D2E/DX2                !
 ! D287  D(42,38,78,76)        151.2631         estimate D2E/DX2                !
 ! D288  D(42,38,78,81)         11.4057         estimate D2E/DX2                !
 ! D289  D(37,39,43,2)        -147.7277         estimate D2E/DX2                !
 ! D290  D(37,39,43,13)         -2.5561         estimate D2E/DX2                !
 ! D291  D(79,39,43,2)           5.7289         estimate D2E/DX2                !
 ! D292  D(79,39,43,13)        150.9006         estimate D2E/DX2                !
 ! D293  D(37,39,79,40)        142.0647         estimate D2E/DX2                !
 ! D294  D(37,39,79,82)          3.0526         estimate D2E/DX2                !
 ! D295  D(43,39,79,40)        -10.8374         estimate D2E/DX2                !
 ! D296  D(43,39,79,82)       -149.8495         estimate D2E/DX2                !
 ! D297  D(44,40,41,45)         -1.1942         estimate D2E/DX2                !
 ! D298  D(44,40,41,80)       -147.3279         estimate D2E/DX2                !
 ! D299  D(79,40,41,45)        145.1688         estimate D2E/DX2                !
 ! D300  D(79,40,41,80)         -0.9649         estimate D2E/DX2                !
 ! D301  D(41,40,44,2)         143.847          estimate D2E/DX2                !
 ! D302  D(41,40,44,47)         -4.6525         estimate D2E/DX2                !
 ! D303  D(79,40,44,2)           1.7706         estimate D2E/DX2                !
 ! D304  D(79,40,44,47)       -146.729          estimate D2E/DX2                !
 ! D305  D(41,40,79,39)       -138.9366         estimate D2E/DX2                !
 ! D306  D(41,40,79,82)          4.7158         estimate D2E/DX2                !
 ! D307  D(44,40,79,39)          7.3297         estimate D2E/DX2                !
 ! D308  D(44,40,79,82)        150.9821         estimate D2E/DX2                !
 ! D309  D(40,41,45,4)        -143.0652         estimate D2E/DX2                !
 ! D310  D(40,41,45,48)          5.5976         estimate D2E/DX2                !
 ! D311  D(80,41,45,4)          -1.1752         estimate D2E/DX2                !
 ! D312  D(80,41,45,48)        147.4876         estimate D2E/DX2                !
 ! D313  D(40,41,80,42)        140.7092         estimate D2E/DX2                !
 ! D314  D(40,41,80,82)         -3.1861         estimate D2E/DX2                !
 ! D315  D(45,41,80,42)         -5.0957         estimate D2E/DX2                !
 ! D316  D(45,41,80,82)       -148.991          estimate D2E/DX2                !
 ! D317  D(38,42,46,4)         146.5456         estimate D2E/DX2                !
 ! D318  D(38,42,46,14)          2.9551         estimate D2E/DX2                !
 ! D319  D(80,42,46,4)          -6.389          estimate D2E/DX2                !
 ! D320  D(80,42,46,14)       -149.9795         estimate D2E/DX2                !
 ! D321  D(38,42,80,41)       -144.0788         estimate D2E/DX2                !
 ! D322  D(38,42,80,82)         -4.8893         estimate D2E/DX2                !
 ! D323  D(46,42,80,41)          8.6597         estimate D2E/DX2                !
 ! D324  D(46,42,80,82)        147.8491         estimate D2E/DX2                !
 ! D325  D(2,44,47,48)        -142.4895         estimate D2E/DX2                !
 ! D326  D(2,44,47,49)          -0.7427         estimate D2E/DX2                !
 ! D327  D(40,44,47,48)          6.025          estimate D2E/DX2                !
 ! D328  D(40,44,47,49)        147.7717         estimate D2E/DX2                !
 ! D329  D(4,45,48,47)         144.3791         estimate D2E/DX2                !
 ! D330  D(4,45,48,50)           1.6861         estimate D2E/DX2                !
 ! D331  D(41,45,48,47)         -4.2191         estimate D2E/DX2                !
 ! D332  D(41,45,48,50)       -146.9121         estimate D2E/DX2                !
 ! D333  D(44,47,48,45)         -1.6355         estimate D2E/DX2                !
 ! D334  D(44,47,48,50)        145.228          estimate D2E/DX2                !
 ! D335  D(49,47,48,45)       -147.7435         estimate D2E/DX2                !
 ! D336  D(49,47,48,50)         -0.88           estimate D2E/DX2                !
 ! D337  D(44,47,49,10)         -2.4457         estimate D2E/DX2                !
 ! D338  D(44,47,49,56)       -147.8004         estimate D2E/DX2                !
 ! D339  D(48,47,49,10)        143.2573         estimate D2E/DX2                !
 ! D340  D(48,47,49,56)         -2.0974         estimate D2E/DX2                !
 ! D341  D(45,48,50,11)          5.1991         estimate D2E/DX2                !
 ! D342  D(45,48,50,56)        150.2215         estimate D2E/DX2                !
 ! D343  D(47,48,50,11)       -141.528          estimate D2E/DX2                !
 ! D344  D(47,48,50,56)          3.4944         estimate D2E/DX2                !
 ! D345  D(10,49,56,50)       -141.8487         estimate D2E/DX2                !
 ! D346  D(10,49,56,55)          2.8872         estimate D2E/DX2                !
 ! D347  D(47,49,56,50)          4.3293         estimate D2E/DX2                !
 ! D348  D(47,49,56,55)        149.0652         estimate D2E/DX2                !
[...]
 Alpha virt. eigenvalues --    1.14414   1.14664   1.14836   1.15662   1.15957
 Alpha virt. eigenvalues --    1.16192   1.16483   1.16781   1.16834   1.16928
 Alpha virt. eigenvalues --    1.17073   1.17382   1.17440   1.17722   1.18074
 Alpha virt. eigenvalues --    1.18547   1.18581   1.18882   1.19235   1.19319
 Alpha virt. eigenvalues --    1.19628   1.19711   1.19961   1.20530   1.20628
 Alpha virt. eigenvalues --    1.20902   1.21286   1.21456   1.21615   1.21914
 Alpha virt. eigenvalues --    1.22775   1.23348   1.23484   1.23985   1.24137
 Alpha virt. eigenvalues --    1.24473   1.24490   1.24972   1.25388   1.25678
 Alpha virt. eigenvalues --    1.25770   1.26126   1.26325   1.26856   1.27105
 Alpha virt. eigenvalues --    1.27219   1.27266   1.28018   1.28264   1.28563
 Alpha virt. eigenvalues --    1.28731   1.29128   1.29380   1.29811   1.30048
 Alpha virt. eigenvalues --    1.30492   1.30540   1.30728   1.30944   1.31458
 Alpha virt. eigenvalues --    1.31505   1.32368   1.32456   1.33034   1.33140
 Alpha virt. eigenvalues --    1.33843   1.33895   1.34415   1.34601   1.35182
 Alpha virt. eigenvalues --    1.35356   1.36120   1.36248   1.37142   1.37209
 Alpha virt. eigenvalues --    1.37447   1.38071   1.38419   1.39087   1.39521
 Alpha virt. eigenvalues --    1.40678   1.40941   1.41567   1.42133   1.42344
 Alpha virt. eigenvalues --    1.42559   1.43157   1.43290   1.44311   1.45054
 Alpha virt. eigenvalues --    1.45149   1.46185   1.47454   1.47558   1.48122
 Alpha virt. eigenvalues --    1.48555   1.48711   1.49670   1.50191   1.50742
 Alpha virt. eigenvalues --    1.51078   1.51655   1.51770   1.52745   1.52918
 Alpha virt. eigenvalues --    1.53300   1.53627   1.54002   1.54222   1.54824
 Alpha virt. eigenvalues --    1.55082   1.56109   1.56409   1.56669   1.57349
 Alpha virt. eigenvalues --    1.57480   1.57795   1.58132   1.58600   1.58964
 Alpha virt. eigenvalues --    1.59294   1.59922   1.60654   1.60872   1.61694
 Alpha virt. eigenvalues --    1.62938   1.63274   1.63570   1.64391   1.64612
 Alpha virt. eigenvalues --    1.64989   1.65138   1.65383   1.65567   1.65805
 Alpha virt. eigenvalues --    1.66148   1.66354   1.66614   1.66829   1.67357
 Alpha virt. eigenvalues --    1.67556   1.67734   1.67910   1.68316   1.68965
 Alpha virt. eigenvalues --    1.69215   1.69400   1.69693   1.70178   1.70242
 Alpha virt. eigenvalues --    1.70560   1.70729   1.70947   1.71163   1.71357
 Alpha virt. eigenvalues --    1.71614   1.71834   1.72053   1.72191   1.72490
 Alpha virt. eigenvalues --    1.72735   1.72787   1.73154   1.73620   1.73718
 Alpha virt. eigenvalues --    1.73825   1.74021   1.74309   1.74375   1.74552
 Alpha virt. eigenvalues --    1.74942   1.74996   1.75336   1.75491   1.75765
 Alpha virt. eigenvalues --    1.76157   1.76264   1.76464   1.76698   1.76927
 Alpha virt. eigenvalues --    1.77243   1.77325   1.77612   1.77957   1.78128
 Alpha virt. eigenvalues --    1.78503   1.78680   1.78911   1.79401   1.79716
 Alpha virt. eigenvalues --    1.80086   1.80656   1.81397   1.81967   1.82318
 Alpha virt. eigenvalues --    1.82700   1.82939   1.83467   1.83685   1.84195
 Alpha virt. eigenvalues --    1.84322   1.84748   1.85734   1.86204   1.86670
 Alpha virt. eigenvalues --    1.87152   1.87763   1.88028   1.89319   1.90287
 Alpha virt. eigenvalues --    1.90596   1.90879   1.91319   1.91461   1.92286
 Alpha virt. eigenvalues --    1.92645   1.93187   1.93884   1.93979   1.94222
 Alpha virt. eigenvalues --    1.94514   1.94794   1.94922   1.95467   1.95839
 Alpha virt. eigenvalues --    1.95948   1.96292   1.96428   1.96742   1.96826
 Alpha virt. eigenvalues --    1.97201   1.97578   1.97780   1.98065   1.98277
 Alpha virt. eigenvalues --    1.98580   1.98929   1.99176   1.99249   1.99652
 Alpha virt. eigenvalues --    1.99711   1.99845   2.00257   2.00305   2.00414
 Alpha virt. eigenvalues --    2.00523   2.00734   2.01181   2.01234   2.01499
 Alpha virt. eigenvalues --    2.01721   2.01848   2.02239   2.02435   2.02665
 Alpha virt. eigenvalues --    2.02922   2.03052   2.03582   2.03671   2.03867
 Alpha virt. eigenvalues --    2.03956   2.04064   2.04325   2.04740   2.04769
 Alpha virt. eigenvalues --    2.05047   2.05352   2.05670   2.06022   2.06661
 Alpha virt. eigenvalues --    2.06825   2.07476   2.07725   2.08462   2.08991
 Alpha virt. eigenvalues --    2.09444   2.10203   2.10253   2.10939   2.11424
 Alpha virt. eigenvalues --    2.11943   2.12388   2.13047   2.13400   2.13510
 Alpha virt. eigenvalues --    2.14035   2.14375   2.15060   2.15414   2.15874
 Alpha virt. eigenvalues --    2.16377   2.16784   2.17338   2.18045   2.18304
 Alpha virt. eigenvalues --    2.18555   2.18991   2.19590   2.20049   2.20257
 Alpha virt. eigenvalues --    2.20749   2.21359   2.21554   2.22241   2.22488
 Alpha virt. eigenvalues --    2.22758   2.23180   2.23288   2.23885   2.24067
 Alpha virt. eigenvalues --    2.24666   2.24920   2.25816   2.26049   2.26230
 Alpha virt. eigenvalues --    2.26584   2.26749   2.27347   2.27951   2.28179
 Alpha virt. eigenvalues --    2.28758   2.29018   2.29207   2.29606   2.30021
 Alpha virt. eigenvalues --    2.30228   2.30632   2.31054   2.31192   2.31886
 Alpha virt. eigenvalues --    2.32195   2.32989   2.33203   2.33900   2.34191
 Alpha virt. eigenvalues --    2.35143   2.36094   2.36702   2.36965   2.37876
 Alpha virt. eigenvalues --    2.38704   2.39358   2.39604   2.40037   2.40267
 Alpha virt. eigenvalues --    2.40550   2.40927   2.41630   2.42162   2.42497
 Alpha virt. eigenvalues --    2.43045   2.43422   2.43921   2.44055   2.44586
 Alpha virt. eigenvalues --    2.44798   2.45743   2.45999   2.46682   2.47309
 Alpha virt. eigenvalues --    2.47903   2.48747   2.49855   2.50579   2.50998
 Alpha virt. eigenvalues --    2.51728   2.52281   2.52679   2.53123   2.53348
 Alpha virt. eigenvalues --    2.53665   2.53849   2.54540   2.54795   2.55225
 Alpha virt. eigenvalues --    2.55626   2.55951   2.56089   2.56461   2.56703
 Alpha virt. eigenvalues --    2.56920   2.57371   2.57578   2.57912   2.58188
 Alpha virt. eigenvalues --    2.58383   2.58729   2.59022   2.59167   2.59690
 Alpha virt. eigenvalues --    2.59722   2.60077   2.60272   2.60322   2.60785
 Alpha virt. eigenvalues --    2.61006   2.61480   2.61947   2.62122   2.62718
 Alpha virt. eigenvalues --    2.63144   2.63338   2.63541   2.63777   2.63863
 Alpha virt. eigenvalues --    2.64719   2.64840   2.65279   2.65773   2.66092
 Alpha virt. eigenvalues --    2.66195   2.67207   2.67346   2.67469   2.67806
 Alpha virt. eigenvalues --    2.68023   2.68408   2.68836   2.69207   2.69682
 Alpha virt. eigenvalues --    2.70059   2.70220   2.70713   2.71313   2.71533
 Alpha virt. eigenvalues --    2.72495   2.73026   2.73084   2.73536   2.73814
 Alpha virt. eigenvalues --    2.74135   2.75232   2.75383   2.75900   2.76864
 Alpha virt. eigenvalues --    2.77293   2.77393   2.78352   2.78417   2.78742
 Alpha virt. eigenvalues --    2.79803   2.79947   2.80245   2.80690   2.81150
 Alpha virt. eigenvalues --    2.81246   2.82215   2.82494   2.82921   2.83498
 Alpha virt. eigenvalues --    2.83646   2.84296   2.84508   2.85230   2.85636
 Alpha virt. eigenvalues --    2.85777   2.85907   2.86438   2.87201   2.87894
 Alpha virt. eigenvalues --    2.88084   2.88311   2.89120   2.89300   2.89797
 Alpha virt. eigenvalues --    2.90116   2.90827   2.91160   2.91676   2.91944
 Alpha virt. eigenvalues --    2.92110   2.92668   2.92907   2.93200   2.93308
 Alpha virt. eigenvalues --    2.94155   2.94333   2.94545   2.95563   2.95663
 Alpha virt. eigenvalues --    2.96780   2.97567   2.98522   2.98722   2.99466
 Alpha virt. eigenvalues --    3.00611   3.01159   3.01764   3.02899   3.03534
 Alpha virt. eigenvalues --    3.04251   3.05101   3.05906   3.07375   3.08915
 Alpha virt. eigenvalues --    3.09766   3.12899   3.13984   3.15406   3.16960
 Alpha virt. eigenvalues --    3.17518   3.18827   3.20810   3.23422   3.24219
 Alpha virt. eigenvalues --    3.25783   3.27537   3.28113   3.28226   3.31136
 Alpha virt. eigenvalues --    3.32610   3.33714   3.34256   3.37228   3.37783
 Alpha virt. eigenvalues --    3.39521   3.41107   3.42229   3.43962   3.45930
 Alpha virt. eigenvalues --    3.47676   3.49084   3.50121   3.51028   3.55683
 Alpha virt. eigenvalues --    3.56312   3.57658   3.60972   4.01083   4.01862
 Alpha virt. eigenvalues --    4.02060   4.02607   4.03185   4.04049   4.04257
 Alpha virt. eigenvalues --    4.04687   4.05298   4.06534   4.06725   4.07004
 Alpha virt. eigenvalues --    4.07094   4.07555   4.08202   4.08507   4.09997
 Alpha virt. eigenvalues --    4.10309   4.11478   4.11791   4.12247   4.13008
 Alpha virt. eigenvalues --    4.13351   4.14460   4.14954   4.17434   4.17946
 Alpha virt. eigenvalues --    4.19344   4.19638   4.20052   4.21089   4.21605
 Alpha virt. eigenvalues --    4.21749   4.22363   4.22887   4.24297   4.27029
 Alpha virt. eigenvalues --    4.27764   4.28636   4.29359   4.29528   4.30195
 Alpha virt. eigenvalues --    4.30342   4.31574   4.32894   4.35708   4.37826
 Alpha virt. eigenvalues --    4.38892   4.39784   4.42302   4.43980   4.45666
 Alpha virt. eigenvalues --    4.46632   4.46966   4.49405   4.50563   4.52136
 Alpha virt. eigenvalues --    4.52700   4.53202   4.56713   4.57535   4.58328
 Alpha virt. eigenvalues --    4.59789   4.62661   4.63875   4.67270   4.67737
 Alpha virt. eigenvalues --    4.69200   4.70972   4.72921   4.80025   4.81049
 Alpha virt. eigenvalues --    4.84423   4.84702   4.86750   4.88833   4.92673
 Alpha virt. eigenvalues --    4.97036   5.01957   5.03182   5.07521   5.11226
 Alpha virt. eigenvalues --    5.16643   5.19337   5.22797   5.24864
          Condensed to atoms (all electrons):
 Mulliken charges:
               1
     1  C   -0.026404
     2  C   -0.021675
     3  C    0.007547
     4  C   -0.031019
     5  C    0.050989
     6  C   -0.024290
     7  C    0.000180
     8  C   -0.034782
     9  C    0.040864
    10  C    0.063677
    11  C    0.063106
    12  C    0.046253
    13  C   -0.028230
    14  C   -0.030582
    15  C   -0.013422
    16  C   -0.028363
    17  C   -0.011329
    18  C    0.043231
    19  C   -0.019512
    20  C    0.044954
    21  C   -0.019726
    22  C   -0.019783
    23  C   -0.004191
    24  C   -0.001745
    25  C   -0.015726
    26  C    0.071659
    27  C   -0.020758
    28  C   -0.354421
    29  C    0.049294
    30  C    0.088928
    31  C   -0.024935
    32  C    0.089110
    33  C   -0.025759
    34  C    0.001846
    35  C    0.043362
    36  C    0.035811
    37  C    0.042334
    38  C    0.046141
    39  C    0.052089
    40  C   -0.026384
    41  C   -0.023366
    42  C    0.062314
    43  C   -0.029650
    44  C    0.066196
    45  C    0.071005
    46  C   -0.034418
    47  C   -0.022705
    48  C   -0.024931
    49  C   -0.024294
    50  C   -0.026481
    51  C    0.052257
    52  C    0.043132
    53  C   -0.019716
    54  C   -0.023003
    55  C   -0.002473
    56  C   -0.017418
    57  C    0.057461
    58  C   -0.013800
    59  C    0.055746
    60  C   -0.015612
    61  C   -0.024110
    62  C   -0.036274
    63  C   -0.029216
    64  C    0.086625
    65  C   -0.032256
    66  C    0.105845
    67  C    0.084552
    68  C    0.102405
    69  C   -0.039226
    70  C   -0.350545
    71  C    0.008951
    72  C    0.077636
    73  C   -0.012537
    74  C    0.023658
    75  C   -0.001234
    76  C   -0.012985
    77  C   -0.026059
    78  C   -0.021483
    79  C   -0.020112
    80  C   -0.024540
    81  C   -0.000034
    82  C   -0.021989
    83  C   -0.020410
    84  C   -0.011614
    85  Cl  -0.014802
    86  Cl  -0.018827
 Sum of Mulliken charges =  -0.00000
 Mulliken charges with hydrogens summed into heavy atoms:
               1
     1  C   -0.026404
     2  C   -0.021675
     3  C    0.007547
     4  C   -0.031019
     5  C    0.050989
     6  C   -0.024290
     7  C    0.000180
     8  C   -0.034782
     9  C    0.040864
    10  C    0.063677
    11  C    0.063106
    12  C    0.046253
    13  C   -0.028230
    14  C   -0.030582
    15  C   -0.013422
    16  C   -0.028363
    17  C   -0.011329
    18  C    0.043231
    19  C   -0.019512
    20  C    0.044954
    21  C   -0.019726
    22  C   -0.019783
    23  C   -0.004191
    24  C   -0.001745
    25  C   -0.015726
    26  C    0.071659
    27  C   -0.020758
    28  C   -0.354421
    29  C    0.049294
    30  C    0.088928
    31  C   -0.024935
    32  C    0.089110
    33  C   -0.025759
    34  C    0.001846
    35  C    0.043362
    36  C    0.035811
    37  C    0.042334
    38  C    0.046141
    39  C    0.052089
    40  C   -0.026384
    41  C   -0.023366
    42  C    0.062314
    43  C   -0.029650
    44  C    0.066196
    45  C    0.071005
    46  C   -0.034418
    47  C   -0.022705
    48  C   -0.024931
    49  C   -0.024294
    50  C   -0.026481
    51  C    0.052257
    52  C    0.043132
    53  C   -0.019716
    54  C   -0.023003
    55  C   -0.002473
    56  C   -0.017418
    57  C    0.057461
    58  C   -0.013800
    59  C    0.055746
    60  C   -0.015612
    61  C   -0.024110
    62  C   -0.036274
    63  C   -0.029216
    64  C    0.086625
    65  C   -0.032256
    66  C    0.105845
    67  C    0.084552
    68  C    0.102405
    69  C   -0.039226
    70  C   -0.350545
    71  C    0.008951
    72  C    0.077636
    73  C   -0.012537
    74  C    0.023658
    75  C   -0.001234
    76  C   -0.012985
    77  C   -0.026059
    78  C   -0.021483
    79  C   -0.020112
    80  C   -0.024540
    81  C   -0.000034
    82  C   -0.021989
    83  C   -0.020410
    84  C   -0.011614
    85  Cl  -0.014802
    86  Cl  -0.018827
 Electronic spatial extent (au):  <R**2>=          37594.8488
 Charge=              0.0000 electrons
 Dipole moment (field-independent basis, Debye):
    X=             -3.2839    Y=              0.5717    Z=              0.5365  Tot=              3.3762
 Quadrupole moment (field-independent basis, Debye-Ang):
   XX=           -501.5231   YY=           -475.5160   ZZ=           -477.7344
   XY=              5.5470   XZ=             -1.5235   YZ=             -0.7930
 Traceless Quadrupole moment (field-independent basis, Debye-Ang):
   XX=            -16.5986   YY=              9.4084   ZZ=              7.1901
   XY=              5.5470   XZ=             -1.5235   YZ=             -0.7930
 Octapole moment (field-independent basis, Debye-Ang**2):
  XXX=            -61.0700  YYY=             -2.5447  ZZZ=              7.1068  XYY=             16.1069
  XXY=              6.7835  XXZ=              3.3873  XZZ=             27.4833  YZZ=             -2.8106
  YYZ=              3.0710  XYZ=            -10.3313
 Hexadecapole moment (field-independent basis, Debye-Ang**3):
 XXXX=         -23238.7021 YYYY=         -17451.1716 ZZZZ=         -15532.6231 XXXY=             19.0668
 XXXZ=            -13.8727 YYYX=             20.5126 YYYZ=             16.2671 ZZZX=            -30.6046
 ZZZY=             39.3060 XXYY=          -6723.2872 XXZZ=          -6361.6892 YYZZ=          -5491.6925
 XXYZ=            -37.4823 YYXZ=             -2.2966 ZZXY=             -0.9548
 N-N= 1.559494615349D+04 E-N=-4.078337368873D+04  KE= 4.088613999496D+03
 No NMR shielding tensors so no spin-rotation constants.
 Leave Link  601 at Wed Jun 29 20:43:27 2022, MaxMem=  1342177280 cpu:              22.4 elap:               1.1
 (Enter /home/mkliu/g16/l9999.exe)
 1\1\GINC-NODE04\FOpt\RB3LYP\6-31G(d,p)\C84Cl2\MKLIU\29-Jun-2022\0\\#P 
 opt b3lyp/6-31G(d, p) empiricaldispersion=GD3\\force\\0,1\C,8.54063751
 47,18.9329434368,10.7991154842\C,12.4493929631,20.1936958928,8.8954568
 046\C,8.2990703377,26.7735774111,10.5606440747\C,12.3641990049,25.5305
 406461,8.9118124484\C,8.0553050738,19.1229975034,9.4808398902\C,12.080
 0132018,19.7266997114,10.2021305285\C,7.9866720657,26.7841604833,9.160
 8134622\C,11.8911668512,25.9265026142,10.2091592263\C,9.0265443474,19.
 2167442176,8.3836155637\C,12.3346290805,20.4885347604,11.3654478472\C,
 12.1441968127,25.1550876862,11.3595847115\C,8.9937713825,26.6178164089
 ,8.1732734769\C,10.390605837,19.091259283,8.7009684975\C,10.3277156973
 ,26.6348052442,8.64782144\C,10.849023314,18.9797370586,10.0564744798\C
 ,10.6385197397,26.6298887367,10.0339303368\C,9.9414253331,18.919574342
 ,11.0883569805\C,9.6318181853,26.5993993928,11.0283680934\C,10.1915090
 328,19.6505761806,12.320927513\C,9.8720801764,25.8537999164,12.2567677
 928\C,8.9203633496,20.0506555025,12.8426975138\C,8.7253099468,25.38763
 0978,12.9471820247\C,7.8978175972,19.5490172705,11.9427019648\C,7.3947
 157923,25.5162177079,12.4001964854\C,6.7222677059,20.2425846564,11.787
 5375432\C,7.1837545796,26.2202762258,11.2565337739\C,6.1229442153,20.3
 307680142,10.4843982882\C,6.0365577018,25.9122241228,10.3105845942\C,6
 .76217448,19.7827614915,9.3477859583\C,6.6668105362,26.2631665885,8.98
 2510758\C,6.4250169522,20.3781863807,8.1081844056\C,6.3540600377,25.61
 13650964,7.8391622014\C,7.3603627248,20.3726056988,6.9881263605\C,7.33
 7680171,25.4594424317,6.8018527552\C,8.688327195,19.922060036,7.138791
 9872\C,8.6827041159,25.8935156247,6.9532323933\C,9.7356374091,20.59051
 66129,6.3561711067\C,9.7403388237,25.1576224594,6.2571225228\C,11.1178
 00104,20.5699598566,6.8307654219\C,12.924099537,22.1411063609,7.528173
 8818\C,12.9070856407,23.6087299332,7.5308011342\C,11.1131942149,25.176
 6259414,6.7934699351\C,11.419190697,19.8039824442,7.9675794234\C,13.15
 94708254,21.4155542587,8.7246725708\C,13.1086611024,24.3317377063,8.74
 08540483\C,11.3837506063,25.9375783438,7.9444806177\C,13.4995910547,22
 .1398069611,9.9040531039\C,13.4558653166,23.6074520346,9.9111482651\C,
 13.1187799464,21.676604422,11.1831289568\C,13.0317990519,24.038538866,
 11.1938673444\C,11.3479295402,20.4582375657,12.4579587823\C,11.1266243
 853,25.117335178,12.4233460926\C,11.1946249319,21.614221573,13.2804396
 946\C,11.1204702037,23.9860996117,13.2721775017\C,11.9516985174,22.825
 1381214,13.0020793687\C,12.8828771518,22.8512709752,12.0027445205\C,8.
 7407450693,21.2843660275,13.5275790007\C,8.7350222773,24.161960386,13.
 6873270753\C,7.4814623327,22.0234615114,13.3477353298\C,7.4847632493,2
 3.448872596,13.4554452796\C,6.4955391521,21.4825167809,12.4964802099\C
 ,6.6670013471,24.2724044574,12.6446505253\C,5.7105875164,22.3186262628
 ,11.6326661071\C,5.832882066,23.722892622,11.624136552\C,5.4596492741,
 21.6039725686,10.4104345146\C,5.6245771525,24.4335887792,10.3652279591
 \C,5.2791868354,22.2832225342,9.1950767634\C,5.3323877098,23.742878783
 5,9.1935800902\C,5.622298352,21.5435294108,8.0232480492\C,5.3672434573
 ,24.4584889858,7.8331273175\C,5.9596280627,22.2262676324,6.7855327226\
 C,5.9360331154,23.592696618,6.7192257865\C,7.0171298534,21.4748484762,
 6.1436737729\C,7.0065280336,24.2848186365,6.0551198832\C,8.0134374098,
 22.1321338864,5.4371413094\C,8.0119886166,23.5857055652,5.3976694097\C
 ,9.3582496272,21.6717098675,5.5151560843\C,9.3620906413,24.0459802213,
 5.4685213052\C,11.9801603067,21.6910204307,6.5738040385\C,11.975585079
 8,24.0506315493,6.5614653715\C,10.2008683137,22.8529713599,5.402329408
 7\C,11.46257681,22.8644272578,5.9141635199\C,9.9325906226,22.013857855
 9,13.793263402\C,9.9137411617,23.4748890806,13.8464990249\Cl,4.5668358
 088,26.9763492503,10.6946694278\Cl,3.642696588,25.0015083549,7.3962807
 624\\Version=ES64L-G16RevA.03\State=1-A\HF=-4121.4156179\RMSD=5.970e-0
 9\RMSF=7.223e-05\Dipole=1.0366445,-0.8290412,0.0497134\Quadrupole=-9.5
 338915,1.6388075,7.8950839,7.421269,-0.3659059,-0.6093717\PG=C01 [X(C8
 4Cl2)]\\@


 The most important thing in communication is to hear what isn't being said.
 -- Peter F. Drucker
 Job cpu time:       0 days 23 hours 45 minutes 23.4 seconds.
 Elapsed time:       0 days  0 hours 59 minutes 28.9 seconds.
 File lengths (MBytes):  RWF=   1037 Int=      0 D2E=      0 Chk=    131 Scr=      1
 Normal termination of Gaussian 16 at Wed Jun 29 20:43:29 2022.
