 Entering Gaussian System, Link 0=g16
 Input=2_addons_C84_11_mirror_Cl22_rank_8.gjf
 Output=2_addons_C84_11_mirror_Cl22_rank_8.log
 Initial command:
 /home/mkliu/g16/l1.exe "/data/scratch/Gau-108006.inp" -scrdir="/data/scratch/"
 Entering Link 1 = /home/mkliu/g16/l1.exe PID=    108007.
  
 Copyright (c) 1988,1990,1992,1993,1995,1998,2003,2009,2016,
            Gaussian, Inc.  All Rights Reserved.
  
 This is part of the Gaussian(R) 16 program.  It is based on
 the Gaussian(R) 09 system (copyright 2009, Gaussian, Inc.),
 the Gaussian(R) 03 system (copyright 2003, Gaussian, Inc.),
 the Gaussian(R) 98 system (copyright 1998, Gaussian, Inc.),
 the Gaussian(R) 94 system (copyright 1995, Gaussian, Inc.),
 the Gaussian 92(TM) system (copyright 1992, Gaussian, Inc.),
 the Gaussian 90(TM) system (copyright 1990, Gaussian, Inc.),
 the Gaussian 88(TM) system (copyright 1988, Gaussian, Inc.),
 the Gaussian 86(TM) system (copyright 1986, Carnegie Mellon
 University), and the Gaussian 82(TM) system (copyright 1983,
 Carnegie Mellon University). Gaussian is a federally registered
 trademark of Gaussian, Inc.
  
 This software contains proprietary and confidential information,
 including trade secrets, belonging to Gaussian, Inc.
  
 This software is provided under written license and may be
 used, copied, transmitted, or stored only in accord with that
 written license.
  
 The following legend is applicable only to US Government
 contracts under FAR:
  
                    RESTRICTED RIGHTS LEGEND
  
 Use, reproduction and disclosure by the US Government is
 subject to restrictions as set forth in subparagraphs (a)
 and (c) of the Commercial Computer Software - Restricted
 Rights clause in FAR 52.227-19.
  
 Gaussian, Inc.
 340 Quinnipiac St., Bldg. 40, Wallingford CT 06492
  
  
 ---------------------------------------------------------------
 Warning -- This program may not be used in any manner that
 competes with the business of Gaussian, Inc. or will provide
 assistance to any competitor of Gaussian, Inc.  The licensee
 of this program is prohibited from giving any competitor of
 Gaussian, Inc. access to this program.  By using this program,
 the user acknowledges that Gaussian, Inc. is engaged in the
 business of creating and licensing software in the field of
 computational chemistry and represents and warrants to the
 licensee that it is not a competitor of Gaussian, Inc. and that
 it will not use this program in any manner prohibited above.
 ---------------------------------------------------------------
  

 Cite this work as:
 Gaussian 16, Revision A.03,
 M. J. Frisch, G. W. Trucks, H. B. Schlegel, G. E. Scuseria, 
 M. A. Robb, J. R. Cheeseman, G. Scalmani, V. Barone, 
 G. A. Petersson, H. Nakatsuji, X. Li, M. Caricato, A. V. Marenich, 
 J. Bloino, B. G. Janesko, R. Gomperts, B. Mennucci, H. P. Hratchian, 
 J. V. Ortiz, A. F. Izmaylov, J. L. Sonnenberg, D. Williams-Young, 
 F. Ding, F. Lipparini, F. Egidi, J. Goings, B. Peng, A. Petrone, 
 T. Henderson, D. Ranasinghe, V. G. Zakrzewski, J. Gao, N. Rega, 
 G. Zheng, W. Liang, M. Hada, M. Ehara, K. Toyota, R. Fukuda, 
 J. Hasegawa, M. Ishida, T. Nakajima, Y. Honda, O. Kitao, H. Nakai, 
 T. Vreven, K. Throssell, J. A. Montgomery, Jr., J. E. Peralta, 
 F. Ogliaro, M. J. Bearpark, J. J. Heyd, E. N. Brothers, K. N. Kudin, 
 V. N. Staroverov, T. A. Keith, R. Kobayashi, J. Normand, 
 K. Raghavachari, A. P. Rendell, J. C. Burant, S. S. Iyengar, 
 J. Tomasi, M. Cossi, J. M. Millam, M. Klene, C. Adamo, R. Cammi, 
 J. W. Ochterski, R. L. Martin, K. Morokuma, O. Farkas, 
 J. B. Foresman, and D. J. Fox, Gaussian, Inc., Wallingford CT, 2016.
 
 ******************************************
 Gaussian 16:  ES64L-G16RevA.03 25-Dec-2016
                29-Jun-2022 
 ******************************************
 %mem=10GB
 %chk=2_addons_C84_11_mirror_Cl22_rank_8.chk
 %nprocshared=24
 Will use up to   24 processors via shared memory.
 ------------------------------------------------
 #P opt b3lyp/6-31G(d, p) empiricaldispersion=GD3
 ------------------------------------------------
 1/18=20,19=15,26=3,38=1/1,3;
 2/9=110,12=2,17=6,18=5,40=1/2;
 3/5=1,6=6,7=101,11=2,25=1,30=1,71=1,74=-5,124=31/1,2,3;
 4//1;
 5/5=2,38=5/2;
 6/7=2,8=2,9=2,10=2,28=1/1;
 7//1,2,3,16;
 1/18=20,19=15,26=3/3(2);
 2/9=110/2;
 99//99;
 2/9=110/2;
 3/5=1,6=6,7=101,11=2,25=1,30=1,71=1,74=-5,124=31/1,2,3;
 4/5=5,16=3,69=1/1;
 5/5=2,38=5/2;
 7//1,2,3,16;
 1/18=20,19=15,26=3/3(-5);
 2/9=110/2;
 6/7=2,8=2,9=2,10=2,19=2,28=1/1;
 99/9=1/99;
 Leave Link    1 at Wed Jun 29 05:25:31 2022, MaxMem=  1342177280 cpu:               0.8 elap:               0.1
 (Enter /home/mkliu/g16/l101.exe)
 -----
 force
 -----
 Symbolic Z-matrix:
 Charge =  0 Multiplicity = 1
 C                     8.53838   18.98013   10.79387 
 C                     12.41637   20.23876   8.92371 
 C                     8.30983   26.76729   10.56005 
 C                     12.32057   25.48459   8.93298 
 C                     8.05525   19.15654   9.48305 
 C                     12.06449   19.76637   10.21656 
 C                     7.99438   26.78118   9.1674 
 C                     11.85882   25.87369   10.20958 
 C                     9.01265   19.2566   8.39931 
 C                     12.3165   20.51802   11.38749 
 C                     12.11786   25.12057   11.38052 
 C                     8.97449   26.56723   8.17913 
 C                     10.37739   19.14271   8.71787 
 C                     10.29639   26.56023   8.65425 
 C                     10.84145   19.02767   10.06737 
 C                     10.61932   26.57213   10.04364 
 C                     9.93444   18.97183   11.09158 
 C                     9.62877   26.56576   11.03454 
 C                     10.17965   19.69237   12.31728 
 C                     9.86826   25.81917   12.25562 
 C                     8.91635   20.08299   12.83276 
 C                     8.7307    25.36748   12.94879 
 C                     7.90388   19.59066   11.92856 
 C                     7.412     25.47962   12.39473 
 C                     6.73094   20.28071   11.77352 
 C                     7.19608   26.17467   11.23523 
 C                     6.13196   20.36312   10.47697 
 C                     6.23902   25.70771   10.26782 
 C                     6.76834   19.79721   9.34972 
 C                     6.69575   26.20498   9.01405 
 C                     6.43081   20.37657   8.12082 
 C                     6.38179   25.54078   7.84882 
 C                     7.34991   20.37634   7.01506 
 C                     7.31993   25.45555   6.77528 
 C                     8.67954   19.94647   7.17218 
 C                     8.6703    25.83733   6.96923 
 C                     9.70319   20.6247   6.40699 
 C                     9.71497   25.11262   6.30546 
 C                     11.06024   20.62367   6.87196 
 C                     12.85259   22.19612   7.57652 
 C                     12.88762   23.5917   7.5543 
 C                     11.0182   25.11862   6.81809 
 C                     11.3833   19.85348   8.00331 
 C                     13.11969   21.44972   8.75487 
 C                     13.08453   24.3098   8.75418 
 C                     11.31499   25.85979   7.96522 
 C                     13.46559   22.16079   9.91794 
 C                     13.42377   23.59417   9.92061 
 C                     13.08839   21.68935   11.20986 
 C                     12.99063   24.02547   11.21216 
 C                     11.33915   20.48433   12.46312 
 C                     11.1109   25.09295   12.42496 
 C                     11.17982   21.62476   13.28509 
 C                     11.10741   23.97097   13.27976 
 C                     11.93305   22.82544   13.03121 
 C                     12.85919   22.84994   12.01853 
 C                     8.73012   21.30058   13.52496 
 C                     8.72943   24.14551   13.68748 
 C                     7.48789   22.03352   13.3465 
 C                     7.49621   23.43772   13.45045 
 C                     6.50321   21.51033   12.48003 
 C                     6.68357   24.26394   12.627 
 C                     5.72107   22.33271   11.62988 
 C                     5.83158   23.73412   11.62636 
 C                     5.46859   21.61625   10.40432 
 C                     5.61836   24.45335   10.38471 
 C                     5.26532   22.28375   9.18754 
 C                     5.30909   23.7334   9.16171 
 C                     5.61631   21.54208   8.03421 
 C                     5.60762   24.33807   7.92699 
 C                     5.94158   22.19838   6.80404 
 C                     5.94369   23.57568   6.75527 
 C                     6.9934    21.46575   6.16879 
 C                     6.98438   24.26752   6.03733 
 C                     7.98065   22.15151   5.47593 
 C                     7.95653   23.56825   5.36815 
 C                     9.33185   21.71008   5.57866 
 C                     9.35187   24.10459   5.22478 
 C                     11.887    21.73988   6.61334 
 C                     12.07252   24.11745   6.39209 
 C                     10.16302   22.84602   5.38556 
 C                     11.42014   22.86195   5.90087 
 C                     9.91572   22.01696   13.79765 
 C                     9.90381   23.45865   13.85235 
 Cl                    13.14223   24.89125   5.15303 
 Cl                    9.6144    24.88282   3.60166 
 
 ITRead=  0  0  0  0  0  0  0  0  0  0  0  0  0  0  0  0  0  0  0  0
 ITRead=  0  0  0  0  0  0  0  0  0  0  0  0  0  0  0  0  0  0  0  0
 ITRead=  0  0  0  0  0  0  0  0  0  0  0  0  0  0  0  0  0  0  0  0
 ITRead=  0  0  0  0  0  0  0  0  0  0  0  0  0  0  0  0  0  0  0  0
 ITRead=  0  0  0  0  0  0
 MicOpt= -1 -1 -1 -1 -1 -1 -1 -1 -1 -1 -1 -1 -1 -1 -1 -1 -1 -1 -1 -1
 MicOpt= -1 -1 -1 -1 -1 -1 -1 -1 -1 -1 -1 -1 -1 -1 -1 -1 -1 -1 -1 -1
 MicOpt= -1 -1 -1 -1 -1 -1 -1 -1 -1 -1 -1 -1 -1 -1 -1 -1 -1 -1 -1 -1
 MicOpt= -1 -1 -1 -1 -1 -1 -1 -1 -1 -1 -1 -1 -1 -1 -1 -1 -1 -1 -1 -1
 MicOpt= -1 -1 -1 -1 -1 -1
 NAtoms=     86 NQM=       86 NQMF=       0 NMMI=      0 NMMIF=      0
                NMic=       0 NMicF=      0.
                    Isotopes and Nuclear Properties:
 (Nuclear quadrupole moments (NQMom) in fm**2, nuclear magnetic moments (NMagM)
  in nuclear magnetons)

  Atom         1           2           3           4           5           6           7           8           9          10
 IAtWgt=          12          12          12          12          12          12          12          12          12          12
 AtmWgt=  12.0000000  12.0000000  12.0000000  12.0000000  12.0000000  12.0000000  12.0000000  12.0000000  12.0000000  12.0000000
 NucSpn=           0           0           0           0           0           0           0           0           0           0
 AtZEff=  -0.0000000  -0.0000000  -0.0000000  -0.0000000  -0.0000000  -0.0000000  -0.0000000  -0.0000000  -0.0000000  -0.0000000
 NQMom=    0.0000000   0.0000000   0.0000000   0.0000000   0.0000000   0.0000000   0.0000000   0.0000000   0.0000000   0.0000000
 NMagM=    0.0000000   0.0000000   0.0000000   0.0000000   0.0000000   0.0000000   0.0000000   0.0000000   0.0000000   0.0000000
 AtZNuc=   6.0000000   6.0000000   6.0000000   6.0000000   6.0000000   6.0000000   6.0000000   6.0000000   6.0000000   6.0000000

  Atom        11          12          13          14          15          16          17          18          19          20
 IAtWgt=          12          12          12          12          12          12          12          12          12          12
 AtmWgt=  12.0000000  12.0000000  12.0000000  12.0000000  12.0000000  12.0000000  12.0000000  12.0000000  12.0000000  12.0000000
 NucSpn=           0           0           0           0           0           0           0           0           0           0
 AtZEff=  -0.0000000  -0.0000000  -0.0000000  -0.0000000  -0.0000000  -0.0000000  -0.0000000  -0.0000000  -0.0000000  -0.0000000
 NQMom=    0.0000000   0.0000000   0.0000000   0.0000000   0.0000000   0.0000000   0.0000000   0.0000000   0.0000000   0.0000000
 NMagM=    0.0000000   0.0000000   0.0000000   0.0000000   0.0000000   0.0000000   0.0000000   0.0000000   0.0000000   0.0000000
 AtZNuc=   6.0000000   6.0000000   6.0000000   6.0000000   6.0000000   6.0000000   6.0000000   6.0000000   6.0000000   6.0000000

  Atom        21          22          23          24          25          26          27          28          29          30
 IAtWgt=          12          12          12          12          12          12          12          12          12          12
 AtmWgt=  12.0000000  12.0000000  12.0000000  12.0000000  12.0000000  12.0000000  12.0000000  12.0000000  12.0000000  12.0000000
 NucSpn=           0           0           0           0           0           0           0           0           0           0
 AtZEff=  -0.0000000  -0.0000000  -0.0000000  -0.0000000  -0.0000000  -0.0000000  -0.0000000  -0.0000000  -0.0000000  -0.0000000
 NQMom=    0.0000000   0.0000000   0.0000000   0.0000000   0.0000000   0.0000000   0.0000000   0.0000000   0.0000000   0.0000000
 NMagM=    0.0000000   0.0000000   0.0000000   0.0000000   0.0000000   0.0000000   0.0000000   0.0000000   0.0000000   0.0000000
 AtZNuc=   6.0000000   6.0000000   6.0000000   6.0000000   6.0000000   6.0000000   6.0000000   6.0000000   6.0000000   6.0000000

  Atom        31          32          33          34          35          36          37          38          39          40
 IAtWgt=          12          12          12          12          12          12          12          12          12          12
 AtmWgt=  12.0000000  12.0000000  12.0000000  12.0000000  12.0000000  12.0000000  12.0000000  12.0000000  12.0000000  12.0000000
 NucSpn=           0           0           0           0           0           0           0           0           0           0
 AtZEff=  -0.0000000  -0.0000000  -0.0000000  -0.0000000  -0.0000000  -0.0000000  -0.0000000  -0.0000000  -0.0000000  -0.0000000
 NQMom=    0.0000000   0.0000000   0.0000000   0.0000000   0.0000000   0.0000000   0.0000000   0.0000000   0.0000000   0.0000000
 NMagM=    0.0000000   0.0000000   0.0000000   0.0000000   0.0000000   0.0000000   0.0000000   0.0000000   0.0000000   0.0000000
 AtZNuc=   6.0000000   6.0000000   6.0000000   6.0000000   6.0000000   6.0000000   6.0000000   6.0000000   6.0000000   6.0000000

  Atom        41          42          43          44          45          46          47          48          49          50
 IAtWgt=          12          12          12          12          12          12          12          12          12          12
 AtmWgt=  12.0000000  12.0000000  12.0000000  12.0000000  12.0000000  12.0000000  12.0000000  12.0000000  12.0000000  12.0000000
 NucSpn=           0           0           0           0           0           0           0           0           0           0
 AtZEff=  -0.0000000  -0.0000000  -0.0000000  -0.0000000  -0.0000000  -0.0000000  -0.0000000  -0.0000000  -0.0000000  -0.0000000
 NQMom=    0.0000000   0.0000000   0.0000000   0.0000000   0.0000000   0.0000000   0.0000000   0.0000000   0.0000000   0.0000000
 NMagM=    0.0000000   0.0000000   0.0000000   0.0000000   0.0000000   0.0000000   0.0000000   0.0000000   0.0000000   0.0000000
 AtZNuc=   6.0000000   6.0000000   6.0000000   6.0000000   6.0000000   6.0000000   6.0000000   6.0000000   6.0000000   6.0000000

  Atom        51          52          53          54          55          56          57          58          59          60
 IAtWgt=          12          12          12          12          12          12          12          12          12          12
 AtmWgt=  12.0000000  12.0000000  12.0000000  12.0000000  12.0000000  12.0000000  12.0000000  12.0000000  12.0000000  12.0000000
 NucSpn=           0           0           0           0           0           0           0           0           0           0
 AtZEff=  -0.0000000  -0.0000000  -0.0000000  -0.0000000  -0.0000000  -0.0000000  -0.0000000  -0.0000000  -0.0000000  -0.0000000
 NQMom=    0.0000000   0.0000000   0.0000000   0.0000000   0.0000000   0.0000000   0.0000000   0.0000000   0.0000000   0.0000000
 NMagM=    0.0000000   0.0000000   0.0000000   0.0000000   0.0000000   0.0000000   0.0000000   0.0000000   0.0000000   0.0000000
 AtZNuc=   6.0000000   6.0000000   6.0000000   6.0000000   6.0000000   6.0000000   6.0000000   6.0000000   6.0000000   6.0000000

  Atom        61          62          63          64          65          66          67          68          69          70
 IAtWgt=          12          12          12          12          12          12          12          12          12          12
 AtmWgt=  12.0000000  12.0000000  12.0000000  12.0000000  12.0000000  12.0000000  12.0000000  12.0000000  12.0000000  12.0000000
 NucSpn=           0           0           0           0           0           0           0           0           0           0
 AtZEff=  -0.0000000  -0.0000000  -0.0000000  -0.0000000  -0.0000000  -0.0000000  -0.0000000  -0.0000000  -0.0000000  -0.0000000
 NQMom=    0.0000000   0.0000000   0.0000000   0.0000000   0.0000000   0.0000000   0.0000000   0.0000000   0.0000000   0.0000000
 NMagM=    0.0000000   0.0000000   0.0000000   0.0000000   0.0000000   0.0000000   0.0000000   0.0000000   0.0000000   0.0000000
 AtZNuc=   6.0000000   6.0000000   6.0000000   6.0000000   6.0000000   6.0000000   6.0000000   6.0000000   6.0000000   6.0000000

  Atom        71          72          73          74          75          76          77          78          79          80
 IAtWgt=          12          12          12          12          12          12          12          12          12          12
 AtmWgt=  12.0000000  12.0000000  12.0000000  12.0000000  12.0000000  12.0000000  12.0000000  12.0000000  12.0000000  12.0000000
 NucSpn=           0           0           0           0           0           0           0           0           0           0
 AtZEff=  -0.0000000  -0.0000000  -0.0000000  -0.0000000  -0.0000000  -0.0000000  -0.0000000  -0.0000000  -0.0000000  -0.0000000
 NQMom=    0.0000000   0.0000000   0.0000000   0.0000000   0.0000000   0.0000000   0.0000000   0.0000000   0.0000000   0.0000000
 NMagM=    0.0000000   0.0000000   0.0000000   0.0000000   0.0000000   0.0000000   0.0000000   0.0000000   0.0000000   0.0000000
 AtZNuc=   6.0000000   6.0000000   6.0000000   6.0000000   6.0000000   6.0000000   6.0000000   6.0000000   6.0000000   6.0000000

  Atom        81          82          83          84          85          86
 IAtWgt=          12          12          12          12          35          35
 AtmWgt=  12.0000000  12.0000000  12.0000000  12.0000000  34.9688527  34.9688527
 NucSpn=           0           0           0           0           3           3
 AtZEff=  -0.0000000  -0.0000000  -0.0000000  -0.0000000  -0.0000000  -0.0000000
 NQMom=    0.0000000   0.0000000   0.0000000   0.0000000  -8.1650000  -8.1650000
 NMagM=    0.0000000   0.0000000   0.0000000   0.0000000   0.8218740   0.8218740
 AtZNuc=   6.0000000   6.0000000   6.0000000   6.0000000  17.0000000  17.0000000
 Leave Link  101 at Wed Jun 29 05:25:32 2022, MaxMem=  1342177280 cpu:               6.5 elap:               0.3
 (Enter /home/mkliu/g16/l103.exe)

 GradGradGradGradGradGradGradGradGradGradGradGradGradGradGradGradGradGrad
 Berny optimization.
 Initialization pass.
                           ----------------------------
                           !    Initial Parameters    !
                           ! (Angstroms and Degrees)  !
 --------------------------                            --------------------------
 ! Name  Definition              Value          Derivative Info.                !
 --------------------------------------------------------------------------------
 ! R1    R(1,5)                  1.4081         estimate D2E/DX2                !
 ! R2    R(1,17)                 1.4275         estimate D2E/DX2                !
 ! R3    R(1,23)                 1.4363         estimate D2E/DX2                !
 ! R4    R(2,6)                  1.4207         estimate D2E/DX2                !
 ! R5    R(2,43)                 1.4362         estimate D2E/DX2                !
 ! R6    R(2,44)                 1.4105         estimate D2E/DX2                !
 ! R7    R(3,7)                  1.428          estimate D2E/DX2                !
 ! R8    R(3,18)                 1.4161         estimate D2E/DX2                !
 ! R9    R(3,26)                 1.4309         estimate D2E/DX2                !
 ! R10   R(4,8)                  1.4122         estimate D2E/DX2                !
 ! R11   R(4,45)                 1.4127         estimate D2E/DX2                !
 ! R12   R(4,46)                 1.4452         estimate D2E/DX2                !
 ! R13   R(5,9)                  1.4495         estimate D2E/DX2                !
 ! R14   R(5,29)                 1.4437         estimate D2E/DX2                !
 ! R15   R(6,10)                 1.4141         estimate D2E/DX2                !
 ! R16   R(6,15)                 1.4366         estimate D2E/DX2                !
 ! R17   R(7,12)                 1.4082         estimate D2E/DX2                !
 ! R18   R(7,30)                 1.429          estimate D2E/DX2                !
 ! R19   R(8,11)                 1.4161         estimate D2E/DX2                !
 ! R20   R(8,16)                 1.4324         estimate D2E/DX2                !
 ! R21   R(9,13)                 1.406          estimate D2E/DX2                !
 ! R22   R(9,35)                 1.4466         estimate D2E/DX2                !
 ! R23   R(10,49)                1.414          estimate D2E/DX2                !
 ! R24   R(10,51)                1.4537         estimate D2E/DX2                !
 ! R25   R(11,50)                1.4104         estimate D2E/DX2                !
 ! R26   R(11,52)                1.4511         estimate D2E/DX2                !
 ! R27   R(12,14)                1.4047         estimate D2E/DX2                !
 ! R28   R(12,36)                1.4454         estimate D2E/DX2                !
 ! R29   R(13,15)                1.4317         estimate D2E/DX2                !
 ! R30   R(13,43)                1.424          estimate D2E/DX2                !
 ! R31   R(14,16)                1.4265         estimate D2E/DX2                !
 ! R32   R(14,46)                1.4152         estimate D2E/DX2                !
 ! R33   R(15,17)                1.3692         estimate D2E/DX2                !
 ! R34   R(16,18)                1.4011         estimate D2E/DX2                !
 ! R35   R(17,19)                1.4428         estimate D2E/DX2                !
 ! R36   R(18,20)                1.4511         estimate D2E/DX2                !
 ! R37   R(19,21)                1.4192         estimate D2E/DX2                !
 ! R38   R(19,51)                1.4117         estimate D2E/DX2                !
 ! R39   R(20,22)                1.4066         estimate D2E/DX2                !
 ! R40   R(20,52)                1.4492         estimate D2E/DX2                !
 ! R41   R(21,23)                1.444          estimate D2E/DX2                !
 ! R42   R(21,57)                1.4129         estimate D2E/DX2                !
 ! R43   R(22,24)                1.4348         estimate D2E/DX2                !
 ! R44   R(22,58)                1.4279         estimate D2E/DX2                !
 ! R45   R(23,25)                1.3697         estimate D2E/DX2                !
 ! R46   R(24,26)                1.369          estimate D2E/DX2                !
 ! R47   R(24,62)                1.4361         estimate D2E/DX2                !
 ! R48   R(25,27)                1.4306         estimate D2E/DX2                !
 ! R49   R(25,61)                1.4363         estimate D2E/DX2                !
 ! R50   R(26,28)                1.4387         estimate D2E/DX2                !
 ! R51   R(27,29)                1.4128         estimate D2E/DX2                !
 ! R52   R(27,65)                1.4197         estimate D2E/DX2                !
 ! R53   R(28,30)                1.424          estimate D2E/DX2                !
 ! R54   R(28,66)                1.4044         estimate D2E/DX2                !
 ! R55   R(29,31)                1.3999         estimate D2E/DX2                !
 ! R56   R(30,32)                1.3775         estimate D2E/DX2                !
 ! R57   R(31,33)                1.4379         estimate D2E/DX2                !
 ! R58   R(31,69)                1.4245         estimate D2E/DX2                !
 ! R59   R(32,34)                1.4282         estimate D2E/DX2                !
 ! R60   R(32,70)                1.4325         estimate D2E/DX2                !
 ! R61   R(33,35)                1.4062         estimate D2E/DX2                !
 ! R62   R(33,73)                1.4248         estimate D2E/DX2                !
 ! R63   R(34,36)                1.4166         estimate D2E/DX2                !
 ! R64   R(34,74)                1.4382         estimate D2E/DX2                !
 ! R65   R(35,37)                1.4468         estimate D2E/DX2                !
 ! R66   R(36,38)                1.4343         estimate D2E/DX2                !
 ! R67   R(37,39)                1.4345         estimate D2E/DX2                !
 ! R68   R(37,77)                1.4149         estimate D2E/DX2                !
 ! R69   R(38,42)                1.4004         estimate D2E/DX2                !
 ! R70   R(38,78)                1.5218         estimate D2E/DX2                !
 ! R71   R(39,43)                1.4062         estimate D2E/DX2                !
 ! R72   R(39,79)                1.4129         estimate D2E/DX2                !
 ! R73   R(40,41)                1.3962         estimate D2E/DX2                !
 ! R74   R(40,44)                1.4202         estimate D2E/DX2                !
 ! R75   R(40,79)                1.4381         estimate D2E/DX2                !
 ! R76   R(41,45)                1.4121         estimate D2E/DX2                !
 ! R77   R(41,80)                1.5138         estimate D2E/DX2                !
 ! R78   R(42,46)                1.3976         estimate D2E/DX2                !
 ! R79   R(42,80)                1.5151         estimate D2E/DX2                !
 ! R80   R(44,47)                1.4064         estimate D2E/DX2                !
 ! R81   R(45,48)                1.4099         estimate D2E/DX2                !
 ! R82   R(47,48)                1.434          estimate D2E/DX2                !
 ! R83   R(47,49)                1.426          estimate D2E/DX2                !
 ! R84   R(48,50)                1.4289         estimate D2E/DX2                !
 ! R85   R(49,56)                1.433          estimate D2E/DX2                !
 ! R86   R(50,56)                1.4316         estimate D2E/DX2                !
 ! R87   R(51,53)                1.4148         estimate D2E/DX2                !
 ! R88   R(52,54)                1.4105         estimate D2E/DX2                !
 ! R89   R(53,55)                1.4399         estimate D2E/DX2                !
 ! R90   R(53,83)                1.4193         estimate D2E/DX2                !
 ! R91   R(54,55)                1.4338         estimate D2E/DX2                !
 ! R92   R(54,84)                1.4279         estimate D2E/DX2                !
 ! R93   R(55,56)                1.3725         estimate D2E/DX2                !
 ! R94   R(57,59)                1.4533         estimate D2E/DX2                !
 ! R95   R(57,83)                1.4118         estimate D2E/DX2                !
 ! R96   R(58,60)                1.4415         estimate D2E/DX2                !
 ! R97   R(58,84)                1.3705         estimate D2E/DX2                !
 ! R98   R(59,60)                1.4081         estimate D2E/DX2                !
 ! R99   R(59,61)                1.4121         estimate D2E/DX2                !
 ! R100  R(60,62)                1.4217         estimate D2E/DX2                !
 ! R101  R(61,63)                1.418          estimate D2E/DX2                !
 ! R102  R(62,64)                1.417          estimate D2E/DX2                !
 ! R103  R(63,64)                1.4058         estimate D2E/DX2                !
 ! R104  R(63,65)                1.4419         estimate D2E/DX2                !
 ! R105  R(64,66)                1.4507         estimate D2E/DX2                !
 ! R106  R(65,67)                1.4026         estimate D2E/DX2                !
 ! R107  R(66,68)                1.4525         estimate D2E/DX2                !
 ! R108  R(67,68)                1.4505         estimate D2E/DX2                !
 ! R109  R(67,69)                1.4154         estimate D2E/DX2                !
 ! R110  R(68,70)                1.4069         estimate D2E/DX2                !
 ! R111  R(69,71)                1.4317         estimate D2E/DX2                !
 ! R112  R(70,72)                1.4377         estimate D2E/DX2                !
 ! R113  R(71,72)                1.3782         estimate D2E/DX2                !
 ! R114  R(71,73)                1.4306         estimate D2E/DX2                !
 ! R115  R(72,74)                1.4412         estimate D2E/DX2                !
 ! R116  R(73,75)                1.3874         estimate D2E/DX2                !
 ! R117  R(74,76)                1.3718         estimate D2E/DX2                !
 ! R118  R(75,76)                1.421          estimate D2E/DX2                !
 ! R119  R(75,77)                1.4252         estimate D2E/DX2                !
 ! R120  R(76,78)                1.5017         estimate D2E/DX2                !
 ! R121  R(77,81)                1.4207         estimate D2E/DX2                !
 ! R122  R(78,81)                1.5059         estimate D2E/DX2                !
 ! R123  R(78,86)                1.8191         estimate D2E/DX2                !
 ! R124  R(79,82)                1.4088         estimate D2E/DX2                !
 ! R125  R(80,82)                1.4977         estimate D2E/DX2                !
 ! R126  R(80,85)                1.8106         estimate D2E/DX2                !
 ! R127  R(81,82)                1.3587         estimate D2E/DX2                !
 ! R128  R(83,84)                1.4428         estimate D2E/DX2                !
 ! A1    A(5,1,17)             122.0339         estimate D2E/DX2                !
 ! A2    A(5,1,23)             122.0468         estimate D2E/DX2                !
 ! A3    A(17,1,23)            105.6496         estimate D2E/DX2                !
 ! A4    A(6,2,43)             108.4096         estimate D2E/DX2                !
 ! A5    A(6,2,44)             121.1899         estimate D2E/DX2                !
 ! A6    A(43,2,44)            120.8136         estimate D2E/DX2                !
 ! A7    A(7,3,18)             122.2699         estimate D2E/DX2                !
 ! A8    A(7,3,26)             106.9936         estimate D2E/DX2                !
 ! A9    A(18,3,26)            120.5239         estimate D2E/DX2                !
 ! A10   A(8,4,45)             121.356          estimate D2E/DX2                !
 ! A11   A(8,4,46)             107.8365         estimate D2E/DX2                !
 ! A12   A(45,4,46)            120.4927         estimate D2E/DX2                !
 ! A13   A(1,5,9)              118.5564         estimate D2E/DX2                !
 ! A14   A(1,5,29)             116.5771         estimate D2E/DX2                !
 ! A15   A(9,5,29)             119.2794         estimate D2E/DX2                !
 ! A16   A(2,6,10)             122.1852         estimate D2E/DX2                !
 ! A17   A(2,6,15)             106.6986         estimate D2E/DX2                !
 ! A18   A(10,6,15)            120.7337         estimate D2E/DX2                !
 ! A19   A(3,7,12)             121.9507         estimate D2E/DX2                !
 ! A20   A(3,7,30)             107.5469         estimate D2E/DX2                !
 ! A21   A(12,7,30)            119.7316         estimate D2E/DX2                !
 ! A22   A(4,8,11)             122.7603         estimate D2E/DX2                !
 ! A23   A(4,8,16)             108.2138         estimate D2E/DX2                !
 ! A24   A(11,8,16)            120.8909         estimate D2E/DX2                !
 ! A25   A(5,9,13)             117.782          estimate D2E/DX2                !
 ! A26   A(5,9,35)             121.0            estimate D2E/DX2                !
 ! A27   A(13,9,35)            117.021          estimate D2E/DX2                !
 ! A28   A(6,10,49)            115.6958         estimate D2E/DX2                !
 ! A29   A(6,10,51)            118.7223         estimate D2E/DX2                !
 ! A30   A(49,10,51)           118.6297         estimate D2E/DX2                !
 ! A31   A(8,11,50)            115.3035         estimate D2E/DX2                !
 ! A32   A(8,11,52)            118.5772         estimate D2E/DX2                !
 ! A33   A(50,11,52)           120.0362         estimate D2E/DX2                !
 ! A34   A(7,12,14)            114.7311         estimate D2E/DX2                !
 ! A35   A(7,12,36)            121.178          estimate D2E/DX2                !
 ! A36   A(14,12,36)           118.5977         estimate D2E/DX2                !
 ! A37   A(9,13,15)            122.3222         estimate D2E/DX2                !
 ! A38   A(9,13,43)            122.1101         estimate D2E/DX2                !
 ! A39   A(15,13,43)           106.5072         estimate D2E/DX2                !
 ! A40   A(12,14,16)           122.8494         estimate D2E/DX2                !
 ! A41   A(12,14,46)           121.004          estimate D2E/DX2                !
 ! A42   A(16,14,46)           108.3846         estimate D2E/DX2                !
 ! A43   A(6,15,13)            109.422          estimate D2E/DX2                !
 ! A44   A(6,15,17)            120.4807         estimate D2E/DX2                !
 ! A45   A(13,15,17)           119.58           estimate D2E/DX2                !
 ! A46   A(8,16,14)            107.7384         estimate D2E/DX2                !
 ! A47   A(8,16,18)            121.8452         estimate D2E/DX2                !
 ! A48   A(14,16,18)           121.9211         estimate D2E/DX2                !
 ! A49   A(1,17,15)            119.4463         estimate D2E/DX2                !
 ! A50   A(1,17,19)            109.9067         estimate D2E/DX2                !
 ! A51   A(15,17,19)           120.1666         estimate D2E/DX2                !
 ! A52   A(3,18,16)            114.8881         estimate D2E/DX2                !
 ! A53   A(3,18,20)            120.5898         estimate D2E/DX2                !
 ! A54   A(16,18,20)           118.7353         estimate D2E/DX2                !
 ! A55   A(17,19,21)           107.1412         estimate D2E/DX2                !
 ! A56   A(17,19,51)           120.499          estimate D2E/DX2                !
 ! A57   A(21,19,51)           122.6275         estimate D2E/DX2                !
 ! A58   A(18,20,22)           116.5136         estimate D2E/DX2                !
 ! A59   A(18,20,52)           119.8454         estimate D2E/DX2                !
 ! A60   A(22,20,52)           118.3555         estimate D2E/DX2                !
 ! A61   A(19,21,23)           107.6288         estimate D2E/DX2                !
 ! A62   A(19,21,57)           122.1706         estimate D2E/DX2                !
 ! A63   A(23,21,57)           120.5424         estimate D2E/DX2                !
 ! A64   A(20,22,24)           121.8641         estimate D2E/DX2                !
 ! A65   A(20,22,58)           122.0373         estimate D2E/DX2                !
 ! A66   A(24,22,58)           105.4169         estimate D2E/DX2                !
 ! A67   A(1,23,21)            109.262          estimate D2E/DX2                !
 ! A68   A(1,23,25)            120.2021         estimate D2E/DX2                !
 ! A69   A(21,23,25)           119.9713         estimate D2E/DX2                !
 ! A70   A(22,24,26)           120.7781         estimate D2E/DX2                !
 ! A71   A(22,24,62)           109.7292         estimate D2E/DX2                !
 ! A72   A(26,24,62)           119.1279         estimate D2E/DX2                !
 ! A73   A(23,25,27)           119.3513         estimate D2E/DX2                !
 ! A74   A(23,25,61)           120.7575         estimate D2E/DX2                !
 ! A75   A(27,25,61)           109.275          estimate D2E/DX2                !
 ! A76   A(3,26,24)            119.1538         estimate D2E/DX2                !
 ! A77   A(3,26,28)            109.5677         estimate D2E/DX2                !
 ! A78   A(24,26,28)           120.6399         estimate D2E/DX2                !
 ! A79   A(25,27,29)           120.7615         estimate D2E/DX2                !
 ! A80   A(25,27,65)           107.0289         estimate D2E/DX2                !
 ! A81   A(29,27,65)           121.5467         estimate D2E/DX2                !
 ! A82   A(26,28,30)           105.3858         estimate D2E/DX2                !
 ! A83   A(26,28,66)           121.8655         estimate D2E/DX2                !
 ! A84   A(30,28,66)           121.7978         estimate D2E/DX2                !
 ! A85   A(5,29,27)            120.3699         estimate D2E/DX2                !
 ! A86   A(5,29,31)            118.6619         estimate D2E/DX2                !
 ! A87   A(27,29,31)           115.217          estimate D2E/DX2                !
 ! A88   A(7,30,28)            109.7432         estimate D2E/DX2                !
 ! A89   A(7,30,32)            119.4944         estimate D2E/DX2                !
 ! A90   A(28,30,32)           120.2179         estimate D2E/DX2                !
 ! A91   A(29,31,33)           121.3921         estimate D2E/DX2                !
 ! A92   A(29,31,69)           121.9937         estimate D2E/DX2                !
 ! A93   A(33,31,69)           108.5936         estimate D2E/DX2                !
 ! A94   A(30,32,34)           120.9901         estimate D2E/DX2                !
 ! A95   A(30,32,70)           118.8071         estimate D2E/DX2                !
 ! A96   A(34,32,70)           110.2373         estimate D2E/DX2                !
 ! A97   A(31,33,35)           121.2341         estimate D2E/DX2                !
 ! A98   A(31,33,73)           107.2596         estimate D2E/DX2                !
 ! A99   A(35,33,73)           122.4586         estimate D2E/DX2                !
 ! A100  A(32,34,36)           120.4731         estimate D2E/DX2                !
 ! A101  A(32,34,74)           106.3625         estimate D2E/DX2                !
 ! A102  A(36,34,74)           121.0137         estimate D2E/DX2                !
 ! A103  A(9,35,33)            117.2767         estimate D2E/DX2                !
 ! A104  A(9,35,37)            120.6142         estimate D2E/DX2                !
 ! A105  A(33,35,37)           117.8131         estimate D2E/DX2                !
 ! A106  A(12,36,34)           116.8273         estimate D2E/DX2                !
 ! A107  A(12,36,38)           119.2924         estimate D2E/DX2                !
 ! A108  A(34,36,38)           119.6538         estimate D2E/DX2                !
 ! A109  A(35,37,39)           119.8374         estimate D2E/DX2                !
 ! A110  A(35,37,77)           118.9153         estimate D2E/DX2                !
 ! A111  A(39,37,77)           116.0128         estimate D2E/DX2                !
 ! A112  A(36,38,42)           120.4137         estimate D2E/DX2                !
 ! A113  A(36,38,78)           119.3114         estimate D2E/DX2                !
 ! A114  A(42,38,78)           119.0007         estimate D2E/DX2                !
 ! A115  A(37,39,43)           118.5873         estimate D2E/DX2                !
 ! A116  A(37,39,79)           119.5808         estimate D2E/DX2                !
 ! A117  A(43,39,79)           116.4564         estimate D2E/DX2                !
 ! A118  A(41,40,44)           122.2634         estimate D2E/DX2                !
 ! A119  A(41,40,79)           108.862          estimate D2E/DX2                !
 ! A120  A(44,40,79)           121.0135         estimate D2E/DX2                !
 ! A121  A(40,41,45)           119.8856         estimate D2E/DX2                !
 ! A122  A(40,41,80)           110.2345         estimate D2E/DX2                !
 ! A123  A(45,41,80)           123.4234         estimate D2E/DX2                !
 ! A124  A(38,42,46)           120.0214         estimate D2E/DX2                !
 ! A125  A(38,42,80)           122.8088         estimate D2E/DX2                !
 ! A126  A(46,42,80)           115.6864         estimate D2E/DX2                !
 ! A127  A(2,43,13)            108.6896         estimate D2E/DX2                !
 ! A128  A(2,43,39)            122.2684         estimate D2E/DX2                !
 ! A129  A(13,43,39)           120.9848         estimate D2E/DX2                !
 ! A130  A(2,44,40)            117.1765         estimate D2E/DX2                !
 ! A131  A(2,44,47)            117.2392         estimate D2E/DX2                !
 ! A132  A(40,44,47)           117.8195         estimate D2E/DX2                !
 ! A133  A(4,45,41)            117.0655         estimate D2E/DX2                !
 ! A134  A(4,45,48)            116.5843         estimate D2E/DX2                !
 ! A135  A(41,45,48)           118.5809         estimate D2E/DX2                !
 ! A136  A(4,46,14)            107.6543         estimate D2E/DX2                !
 ! A137  A(4,46,42)            124.036          estimate D2E/DX2                !
 ! A138  A(14,46,42)           120.613          estimate D2E/DX2                !
 ! A139  A(44,47,48)           119.9828         estimate D2E/DX2                !
 ! A140  A(44,47,49)           121.1311         estimate D2E/DX2                !
 ! A141  A(48,47,49)           108.7267         estimate D2E/DX2                !
 ! A142  A(45,48,47)           120.8537         estimate D2E/DX2                !
 ! A143  A(45,48,50)           121.4432         estimate D2E/DX2                !
 ! A144  A(47,48,50)           108.1939         estimate D2E/DX2                !
 ! A145  A(10,49,47)           122.1447         estimate D2E/DX2                !
 ! A146  A(10,49,56)           120.8443         estimate D2E/DX2                !
 ! A147  A(47,49,56)           106.6072         estimate D2E/DX2                !
 ! A148  A(11,50,48)           121.994          estimate D2E/DX2                !
 ! A149  A(11,50,56)           120.8979         estimate D2E/DX2                !
 ! A150  A(48,50,56)           106.8051         estimate D2E/DX2                !
 ! A151  A(10,51,19)           119.2585         estimate D2E/DX2                !
 ! A152  A(10,51,53)           119.1385         estimate D2E/DX2                !
 ! A153  A(19,51,53)           114.8175         estimate D2E/DX2                !
 ! A154  A(11,52,20)           120.0913         estimate D2E/DX2                !
 ! A155  A(11,52,54)           116.9402         estimate D2E/DX2                !
 ! A156  A(20,52,54)           117.8593         estimate D2E/DX2                !
 ! A157  A(51,53,55)           120.717          estimate D2E/DX2                !
 ! A158  A(51,53,83)           122.1994         estimate D2E/DX2                !
 ! A159  A(55,53,83)           107.4057         estimate D2E/DX2                !
 ! A160  A(52,54,55)           121.9412         estimate D2E/DX2                !
 ! A161  A(52,54,84)           122.0386         estimate D2E/DX2                !
 ! A162  A(55,54,84)           105.5595         estimate D2E/DX2                !
 ! A163  A(53,55,54)           109.5374         estimate D2E/DX2                !
 ! A164  A(53,55,56)           119.8632         estimate D2E/DX2                !
 ! A165  A(54,55,56)           120.1462         estimate D2E/DX2                !
 ! A166  A(49,56,50)           109.4201         estimate D2E/DX2                !
 ! A167  A(49,56,55)           120.6534         estimate D2E/DX2                !
 ! A168  A(50,56,55)           119.4859         estimate D2E/DX2                !
 ! A169  A(21,57,59)           119.1499         estimate D2E/DX2                !
 ! A170  A(21,57,83)           114.9113         estimate D2E/DX2                !
 ! A171  A(59,57,83)           119.0522         estimate D2E/DX2                !
 ! A172  A(22,58,60)           109.6273         estimate D2E/DX2                !
 ! A173  A(22,58,84)           119.3661         estimate D2E/DX2                !
 ! A174  A(60,58,84)           120.4505         estimate D2E/DX2                !
 ! A175  A(57,59,60)           119.2629         estimate D2E/DX2                !
 ! A176  A(57,59,61)           118.9808         estimate D2E/DX2                !
 ! A177  A(60,59,61)           114.765          estimate D2E/DX2                !
 ! A178  A(58,60,59)           120.4543         estimate D2E/DX2                !
 ! A179  A(58,60,62)           107.3913         estimate D2E/DX2                !
 ! A180  A(59,60,62)           122.2379         estimate D2E/DX2                !
 ! A181  A(25,61,59)           120.5603         estimate D2E/DX2                !
 ! A182  A(25,61,63)           106.8004         estimate D2E/DX2                !
 ! A183  A(59,61,63)           122.5213         estimate D2E/DX2                !
 ! A184  A(24,62,60)           107.1999         estimate D2E/DX2                !
 ! A185  A(24,62,64)           120.4826         estimate D2E/DX2                !
 ! A186  A(60,62,64)           122.3724         estimate D2E/DX2                !
 ! A187  A(61,63,64)           122.4313         estimate D2E/DX2                !
 ! A188  A(61,63,65)           108.5419         estimate D2E/DX2                !
 ! A189  A(64,63,65)           120.4632         estimate D2E/DX2                !
 ! A190  A(62,64,63)           114.7238         estimate D2E/DX2                !
 ! A191  A(62,64,66)           120.4919         estimate D2E/DX2                !
 ! A192  A(63,64,66)           119.0021         estimate D2E/DX2                !
 ! A193  A(27,65,63)           108.2558         estimate D2E/DX2                !
 ! A194  A(27,65,67)           122.1502         estimate D2E/DX2                !
 ! A195  A(63,65,67)           121.7524         estimate D2E/DX2                !
 ! A196  A(28,66,64)           116.6862         estimate D2E/DX2                !
 ! A197  A(28,66,68)           117.8229         estimate D2E/DX2                !
 ! A198  A(64,66,68)           120.4133         estimate D2E/DX2                !
 ! A199  A(65,67,68)           119.122          estimate D2E/DX2                !
 ! A200  A(65,67,69)           114.9329         estimate D2E/DX2                !
 ! A201  A(68,67,69)           120.1106         estimate D2E/DX2                !
 ! A202  A(66,68,67)           119.1299         estimate D2E/DX2                !
 ! A203  A(66,68,70)           118.7349         estimate D2E/DX2                !
 ! A204  A(67,68,70)           116.8446         estimate D2E/DX2                !
 ! A205  A(31,69,67)           121.396          estimate D2E/DX2                !
 ! A206  A(31,69,71)           107.301          estimate D2E/DX2                !
 ! A207  A(67,69,71)           121.0814         estimate D2E/DX2                !
 ! A208  A(32,70,68)           121.5628         estimate D2E/DX2                !
 ! A209  A(32,70,72)           105.927          estimate D2E/DX2                !
 ! A210  A(68,70,72)           122.4753         estimate D2E/DX2                !
 ! A211  A(69,71,72)           119.2658         estimate D2E/DX2                !
 ! A212  A(69,71,73)           108.2893         estimate D2E/DX2                !
 ! A213  A(72,71,73)           119.6665         estimate D2E/DX2                !
 ! A214  A(70,72,71)           120.049          estimate D2E/DX2                !
 ! A215  A(70,72,74)           108.676          estimate D2E/DX2                !
 ! A216  A(71,72,74)           119.8988         estimate D2E/DX2                !
 ! A217  A(33,73,71)           108.1667         estimate D2E/DX2                !
 ! A218  A(33,73,75)           119.7668         estimate D2E/DX2                !
 ! A219  A(71,73,75)           119.4587         estimate D2E/DX2                !
 ! A220  A(34,74,72)           108.0226         estimate D2E/DX2                !
 ! A221  A(34,74,76)           120.399          estimate D2E/DX2                !
 ! A222  A(72,74,76)           120.6656         estimate D2E/DX2                !
 ! A223  A(73,75,76)           121.2359         estimate D2E/DX2                !
 ! A224  A(73,75,77)           119.0484         estimate D2E/DX2                !
 ! A225  A(76,75,77)           109.2903         estimate D2E/DX2                !
 ! A226  A(74,76,75)           118.8967         estimate D2E/DX2                !
 ! A227  A(74,76,78)           121.532          estimate D2E/DX2                !
 ! A228  A(75,76,78)           110.3367         estimate D2E/DX2                !
 ! A229  A(37,77,75)           121.9106         estimate D2E/DX2                !
 ! A230  A(37,77,81)           122.6394         estimate D2E/DX2                !
 ! A231  A(75,77,81)           107.2907         estimate D2E/DX2                !
 ! A232  A(38,78,76)           112.9841         estimate D2E/DX2                !
 ! A233  A(38,78,81)           110.4418         estimate D2E/DX2                !
 ! A234  A(38,78,86)           108.4105         estimate D2E/DX2                !
 ! A235  A(76,78,81)           101.0578         estimate D2E/DX2                !
 ! A236  A(76,78,86)           111.8437         estimate D2E/DX2                !
 ! A237  A(81,78,86)           112.0286         estimate D2E/DX2                !
 ! A238  A(39,79,40)           121.3929         estimate D2E/DX2                !
 ! A239  A(39,79,82)           121.863          estimate D2E/DX2                !
 ! A240  A(40,79,82)           107.9713         estimate D2E/DX2                !
 ! A241  A(41,80,42)           112.8511         estimate D2E/DX2                !
 ! A242  A(41,80,82)           101.257          estimate D2E/DX2                !
 ! A243  A(41,80,85)           110.8369         estimate D2E/DX2                !
 ! A244  A(42,80,82)           110.0625         estimate D2E/DX2                !
 ! A245  A(42,80,85)           108.7319         estimate D2E/DX2                !
 ! A246  A(82,80,85)           113.0255         estimate D2E/DX2                !
 ! A247  A(77,81,78)           111.5682         estimate D2E/DX2                !
 ! A248  A(77,81,82)           119.941          estimate D2E/DX2                !
 ! A249  A(78,81,82)           121.9412         estimate D2E/DX2                !
 ! A250  A(79,82,80)           110.9438         estimate D2E/DX2                !
 ! A251  A(79,82,81)           119.2801         estimate D2E/DX2                !
 ! A252  A(80,82,81)           122.4949         estimate D2E/DX2                !
 ! A253  A(53,83,57)           122.5445         estimate D2E/DX2                !
 ! A254  A(53,83,84)           107.2879         estimate D2E/DX2                !
 ! A255  A(57,83,84)           120.4928         estimate D2E/DX2                !
 ! A256  A(54,84,58)           119.6198         estimate D2E/DX2                !
 ! A257  A(54,84,83)           109.6548         estimate D2E/DX2                !
 ! A258  A(58,84,83)           120.2206         estimate D2E/DX2                !
 ! D1    D(17,1,5,9)             3.5342         estimate D2E/DX2                !
 ! D2    D(17,1,5,29)         -149.9551         estimate D2E/DX2                !
 ! D3    D(23,1,5,9)           143.6281         estimate D2E/DX2                !
 ! D4    D(23,1,5,29)           -9.8612         estimate D2E/DX2                !
 ! D5    D(5,1,17,15)           -5.4161         estimate D2E/DX2                !
 ! D6    D(5,1,17,19)          139.4859         estimate D2E/DX2                !
 ! D7    D(23,1,17,15)        -151.0343         estimate D2E/DX2                !
 ! D8    D(23,1,17,19)          -6.1323         estimate D2E/DX2                !
 ! D9    D(5,1,23,21)         -139.2015         estimate D2E/DX2                !
 ! D10   D(5,1,23,25)            5.456          estimate D2E/DX2                !
 ! D11   D(17,1,23,21)           6.4111         estimate D2E/DX2                !
 ! D12   D(17,1,23,25)         151.0687         estimate D2E/DX2                !
 ! D13   D(43,2,6,10)         -142.0496         estimate D2E/DX2                !
 ! D14   D(43,2,6,15)            2.9581         estimate D2E/DX2                !
 ! D15   D(44,2,6,10)            4.3165         estimate D2E/DX2                !
 ! D16   D(44,2,6,15)          149.3242         estimate D2E/DX2                !
 ! D17   D(6,2,43,13)            0.2356         estimate D2E/DX2                !
 ! D18   D(6,2,43,39)          149.1421         estimate D2E/DX2                !
 ! D19   D(44,2,43,13)        -146.2805         estimate D2E/DX2                !
 ! D20   D(44,2,43,39)           2.626          estimate D2E/DX2                !
 ! D21   D(6,2,44,40)         -148.1833         estimate D2E/DX2                !
 ! D22   D(6,2,44,47)            0.5034         estimate D2E/DX2                !
 ! D23   D(43,2,44,40)          -5.9116         estimate D2E/DX2                !
 ! D24   D(43,2,44,47)         142.7751         estimate D2E/DX2                !
 ! D25   D(18,3,7,12)            1.3361         estimate D2E/DX2                !
 ! D26   D(18,3,7,30)          145.4527         estimate D2E/DX2                !
 ! D27   D(26,3,7,12)         -143.8564         estimate D2E/DX2                !
 ! D28   D(26,3,7,30)            0.2602         estimate D2E/DX2                !
 ! D29   D(7,3,18,16)            8.6558         estimate D2E/DX2                !
 ! D30   D(7,3,18,20)         -144.2072         estimate D2E/DX2                !
 ! D31   D(26,3,18,16)         149.3307         estimate D2E/DX2                !
 ! D32   D(26,3,18,20)          -3.5324         estimate D2E/DX2                !
 ! D33   D(7,3,26,24)          150.0162         estimate D2E/DX2                !
 ! D34   D(7,3,26,28)            5.1693         estimate D2E/DX2                !
 ! D35   D(18,3,26,24)           4.0928         estimate D2E/DX2                !
 ! D36   D(18,3,26,28)        -140.7541         estimate D2E/DX2                !
 ! D37   D(45,4,8,11)           -0.4161         estimate D2E/DX2                !
 ! D38   D(45,4,8,16)         -149.115          estimate D2E/DX2                !
 ! D39   D(46,4,8,11)          144.6972         estimate D2E/DX2                !
 ! D40   D(46,4,8,16)           -4.0017         estimate D2E/DX2                !
 ! D41   D(8,4,45,41)          145.3877         estimate D2E/DX2                !
 ! D42   D(8,4,45,48)           -3.5318         estimate D2E/DX2                !
 ! D43   D(46,4,45,41)           4.5747         estimate D2E/DX2                !
 ! D44   D(46,4,45,48)        -144.3448         estimate D2E/DX2                !
 ! D45   D(8,4,46,14)            4.1703         estimate D2E/DX2                !
 ! D46   D(8,4,46,42)         -145.1287         estimate D2E/DX2                !
 ! D47   D(45,4,46,14)         149.6418         estimate D2E/DX2                !
 ! D48   D(45,4,46,42)           0.3428         estimate D2E/DX2                !
 ! D49   D(1,5,9,13)             1.3213         estimate D2E/DX2                !
 ! D50   D(1,5,9,35)          -154.9747         estimate D2E/DX2                !
 ! D51   D(29,5,9,13)          154.0846         estimate D2E/DX2                !
 ! D52   D(29,5,9,35)           -2.2115         estimate D2E/DX2                !
 ! D53   D(1,5,29,27)            7.9294         estimate D2E/DX2                !
 ! D54   D(1,5,29,31)          159.9455         estimate D2E/DX2                !
 ! D55   D(9,5,29,27)         -145.3599         estimate D2E/DX2                !
 ! D56   D(9,5,29,31)            6.6562         estimate D2E/DX2                !
 ! D57   D(2,6,10,49)           -7.6115         estimate D2E/DX2                !
 ! D58   D(2,6,10,51)          142.849          estimate D2E/DX2                !
 ! D59   D(15,6,10,49)        -147.8917         estimate D2E/DX2                !
 ! D60   D(15,6,10,51)           2.5688         estimate D2E/DX2                !
 ! D61   D(2,6,15,13)           -5.107          estimate D2E/DX2                !
 ! D62   D(2,6,15,17)         -149.6835         estimate D2E/DX2                !
 ! D63   D(10,6,15,13)         140.5154         estimate D2E/DX2                !
 ! D64   D(10,6,15,17)          -4.0612         estimate D2E/DX2                !
 ! D65   D(3,7,12,14)           -9.9111         estimate D2E/DX2                !
 ! D66   D(3,7,12,36)          143.5549         estimate D2E/DX2                !
 ! D67   D(30,7,12,14)        -149.8512         estimate D2E/DX2                !
 ! D68   D(30,7,12,36)           3.6148         estimate D2E/DX2                !
 ! D69   D(3,7,30,28)           -5.6621         estimate D2E/DX2                !
 ! D70   D(3,7,30,32)         -150.4826         estimate D2E/DX2                !
 ! D71   D(12,7,30,28)         139.3966         estimate D2E/DX2                !
 ! D72   D(12,7,30,32)          -5.4239         estimate D2E/DX2                !
 ! D73   D(4,8,11,50)            6.4508         estimate D2E/DX2                !
 ! D74   D(4,8,11,52)         -146.1718         estimate D2E/DX2                !
 ! D75   D(16,8,11,50)         151.3455         estimate D2E/DX2                !
 ! D76   D(16,8,11,52)          -1.2771         estimate D2E/DX2                !
 ! D77   D(4,8,16,14)            2.3384         estimate D2E/DX2                !
 ! D78   D(4,8,16,18)          150.7897         estimate D2E/DX2                !
 ! D79   D(11,8,16,14)        -147.0564         estimate D2E/DX2                !
 ! D80   D(11,8,16,18)           1.3949         estimate D2E/DX2                !
 ! D81   D(5,9,13,15)           -4.4345         estimate D2E/DX2                !
 ! D82   D(5,9,13,43)         -146.9967         estimate D2E/DX2                !
 ! D83   D(35,9,13,15)         152.809          estimate D2E/DX2                !
 ! D84   D(35,9,13,43)          10.2468         estimate D2E/DX2                !
 ! D85   D(5,9,35,33)           -7.1502         estimate D2E/DX2                !
 ! D86   D(5,9,35,37)          149.0692         estimate D2E/DX2                !
 ! D87   D(13,9,35,33)        -163.6187         estimate D2E/DX2                !
 ! D88   D(13,9,35,37)          -7.3993         estimate D2E/DX2                !
 ! D89   D(6,10,49,47)           6.5377         estimate D2E/DX2                !
 ! D90   D(6,10,49,56)         146.7492         estimate D2E/DX2                !
 ! D91   D(51,10,49,47)       -143.9515         estimate D2E/DX2                !
 ! D92   D(51,10,49,56)         -3.7399         estimate D2E/DX2                !
 ! D93   D(6,10,51,19)           0.8241         estimate D2E/DX2                !
 ! D94   D(6,10,51,53)        -148.8451         estimate D2E/DX2                !
 ! D95   D(49,10,51,19)        150.4162         estimate D2E/DX2                !
 ! D96   D(49,10,51,53)          0.747          estimate D2E/DX2                !
 ! D97   D(8,11,50,48)          -8.721          estimate D2E/DX2                !
 ! D98   D(8,11,50,56)        -149.1771         estimate D2E/DX2                !
 ! D99   D(52,11,50,48)        143.4736         estimate D2E/DX2                !
 ! D100  D(52,11,50,56)          3.0175         estimate D2E/DX2                !
 ! D101  D(8,11,52,20)           0.358          estimate D2E/DX2                !
 ! D102  D(8,11,52,54)         154.5598         estimate D2E/DX2                !
 ! D103  D(50,11,52,20)       -150.9423         estimate D2E/DX2                !
 ! D104  D(50,11,52,54)          3.2596         estimate D2E/DX2                !
 ! D105  D(7,12,14,16)           8.743          estimate D2E/DX2                !
 ! D106  D(7,12,14,46)         154.4357         estimate D2E/DX2                !
 ! D107  D(36,12,14,16)       -145.4519         estimate D2E/DX2                !
 ! D108  D(36,12,14,46)          0.2408         estimate D2E/DX2                !
 ! D109  D(7,12,36,34)           5.4315         estimate D2E/DX2                !
 ! D110  D(7,12,36,38)        -151.412          estimate D2E/DX2                !
 ! D111  D(14,12,36,34)        157.9066         estimate D2E/DX2                !
 ! D112  D(14,12,36,38)          1.0631         estimate D2E/DX2                !
 ! D113  D(9,13,15,6)         -142.2824         estimate D2E/DX2                !
 ! D114  D(9,13,15,17)           2.662          estimate D2E/DX2                !
 ! D115  D(43,13,15,6)           5.235          estimate D2E/DX2                !
 ! D116  D(43,13,15,17)        150.1794         estimate D2E/DX2                !
 ! D117  D(9,13,43,2)          144.2635         estimate D2E/DX2                !
 ! D118  D(9,13,43,39)          -5.1153         estimate D2E/DX2                !
 ! D119  D(15,13,43,2)          -3.3389         estimate D2E/DX2                !
 ! D120  D(15,13,43,39)       -152.7177         estimate D2E/DX2                !
 ! D121  D(12,14,16,8)         149.6755         estimate D2E/DX2                !
 ! D122  D(12,14,16,18)          1.2532         estimate D2E/DX2                !
 ! D123  D(46,14,16,8)           0.2787         estimate D2E/DX2                !
 ! D124  D(46,14,16,18)       -148.1436         estimate D2E/DX2                !
 ! D125  D(12,14,46,4)        -152.79           estimate D2E/DX2                !
 ! D126  D(12,14,46,42)         -2.2364         estimate D2E/DX2                !
 ! D127  D(16,14,46,4)          -2.7221         estimate D2E/DX2                !
 ! D128  D(16,14,46,42)        147.8315         estimate D2E/DX2                !
 ! D129  D(6,15,17,1)          143.3276         estimate D2E/DX2                !
 ! D130  D(6,15,17,19)           2.0324         estimate D2E/DX2                !
 ! D131  D(13,15,17,1)           2.271          estimate D2E/DX2                !
 ! D132  D(13,15,17,19)       -139.0242         estimate D2E/DX2                !
 ! D133  D(8,16,18,3)         -153.92           estimate D2E/DX2                !
 ! D134  D(8,16,18,20)          -0.5218         estimate D2E/DX2                !
 ! D135  D(14,16,18,3)          -9.874          estimate D2E/DX2                !
 ! D136  D(14,16,18,20)        143.5242         estimate D2E/DX2                !
 ! D137  D(1,17,19,21)           3.5694         estimate D2E/DX2                !
 ! D138  D(1,17,19,51)        -143.2042         estimate D2E/DX2                !
 ! D139  D(15,17,19,21)        148.1799         estimate D2E/DX2                !
 ! D140  D(15,17,19,51)          1.4062         estimate D2E/DX2                !
 ! D141  D(3,18,20,22)          -2.4719         estimate D2E/DX2                !
 ! D142  D(3,18,20,52)         151.4448         estimate D2E/DX2                !
 ! D143  D(16,18,20,22)       -154.3161         estimate D2E/DX2                !
 ! D144  D(16,18,20,52)         -0.3994         estimate D2E/DX2                !
 ! D145  D(17,19,21,23)          0.5022         estimate D2E/DX2                !
 ! D146  D(17,19,21,57)       -145.5777         estimate D2E/DX2                !
 ! D147  D(51,19,21,23)        146.405          estimate D2E/DX2                !
 ! D148  D(51,19,21,57)          0.325          estimate D2E/DX2                !
 ! D149  D(17,19,51,10)         -2.8222         estimate D2E/DX2                !
 ! D150  D(17,19,51,53)        148.1023         estimate D2E/DX2                !
 ! D151  D(21,19,51,10)       -144.3804         estimate D2E/DX2                !
 ! D152  D(21,19,51,53)          6.5441         estimate D2E/DX2                !
 ! D153  D(18,20,22,24)          8.0383         estimate D2E/DX2                !
 ! D154  D(18,20,22,58)        147.3451         estimate D2E/DX2                !
 ! D155  D(52,20,22,24)       -146.2808         estimate D2E/DX2                !
 ! D156  D(52,20,22,58)         -6.974          estimate D2E/DX2                !
 ! D157  D(18,20,52,11)          0.4781         estimate D2E/DX2                !
 ! D158  D(18,20,52,54)       -153.4922         estimate D2E/DX2                !
 ! D159  D(22,20,52,11)        153.9218         estimate D2E/DX2                !
 ! D160  D(22,20,52,54)         -0.0485         estimate D2E/DX2                !
 ! D161  D(19,21,23,1)          -4.3642         estimate D2E/DX2                !
 ! D162  D(19,21,23,25)       -149.1164         estimate D2E/DX2                !
 ! D163  D(57,21,23,1)         142.3748         estimate D2E/DX2                !
 ! D164  D(57,21,23,25)         -2.3774         estimate D2E/DX2                !
 ! D165  D(19,21,57,59)        143.6861         estimate D2E/DX2                !
 ! D166  D(19,21,57,83)         -7.0166         estimate D2E/DX2                !
 ! D167  D(23,21,57,59)          1.8203         estimate D2E/DX2                !
 ! D168  D(23,21,57,83)       -148.8824         estimate D2E/DX2                !
 ! D169  D(20,22,24,26)         -7.7569         estimate D2E/DX2                !
 ! D170  D(20,22,24,62)        136.8787         estimate D2E/DX2                !
 ! D171  D(58,22,24,26)       -152.7734         estimate D2E/DX2                !
 ! D172  D(58,22,24,62)         -8.1378         estimate D2E/DX2                !
 ! D173  D(20,22,58,60)       -137.6744         estimate D2E/DX2                !
 ! D174  D(20,22,58,84)          7.2162         estimate D2E/DX2                !
 ! D175  D(24,22,58,60)          7.2664         estimate D2E/DX2                !
 ! D176  D(24,22,58,84)        152.157          estimate D2E/DX2                !
 ! D177  D(1,23,25,27)           1.2724         estimate D2E/DX2                !
 ! D178  D(1,23,25,61)        -139.5662         estimate D2E/DX2                !
 ! D179  D(21,23,25,27)        142.1945         estimate D2E/DX2                !
 ! D180  D(21,23,25,61)          1.3558         estimate D2E/DX2                !
 ! D181  D(22,24,26,3)           1.3953         estimate D2E/DX2                !
 ! D182  D(22,24,26,28)        142.3051         estimate D2E/DX2                !
 ! D183  D(62,24,26,3)        -140.02           estimate D2E/DX2                !
 ! D184  D(62,24,26,28)          0.8898         estimate D2E/DX2                !
 ! D185  D(22,24,62,60)          5.985          estimate D2E/DX2                !
 ! D186  D(22,24,62,64)       -140.3808         estimate D2E/DX2                !
 ! D187  D(26,24,62,60)        151.2873         estimate D2E/DX2                !
 ! D188  D(26,24,62,64)          4.9215         estimate D2E/DX2                !
 ! D189  D(23,25,27,29)         -3.0445         estimate D2E/DX2                !
 ! D190  D(23,25,27,65)       -148.0371         estimate D2E/DX2                !
 ! D191  D(61,25,27,29)        141.8625         estimate D2E/DX2                !
 ! D192  D(61,25,27,65)         -3.1301         estimate D2E/DX2                !
 ! D193  D(23,25,61,59)          0.1749         estimate D2E/DX2                !
 ! D194  D(23,25,61,63)        146.3197         estimate D2E/DX2                !
 ! D195  D(27,25,61,59)       -144.1543         estimate D2E/DX2                !
 ! D196  D(27,25,61,63)          1.9906         estimate D2E/DX2                !
 ! D197  D(3,26,28,30)          -8.4689         estimate D2E/DX2                !
 ! D198  D(3,26,28,66)         136.0735         estimate D2E/DX2                !
 ! D199  D(24,26,28,30)       -152.7073         estimate D2E/DX2                !
 ! D200  D(24,26,28,66)         -8.1649         estimate D2E/DX2                !
 ! D201  D(25,27,29,5)          -1.7054         estimate D2E/DX2                !
 ! D202  D(25,27,29,31)       -154.6341         estimate D2E/DX2                !
 ! D203  D(65,27,29,5)         138.2298         estimate D2E/DX2                !
 ! D204  D(65,27,29,31)        -14.6989         estimate D2E/DX2                !
 ! D205  D(25,27,65,63)          3.0362         estimate D2E/DX2                !
 ! D206  D(25,27,65,67)        152.559          estimate D2E/DX2                !
 ! D207  D(29,27,65,63)       -141.6219         estimate D2E/DX2                !
 ! D208  D(29,27,65,67)          7.9009         estimate D2E/DX2                !
 ! D209  D(26,28,30,7)           8.632          estimate D2E/DX2                !
 ! D210  D(26,28,30,32)        153.1582         estimate D2E/DX2                !
 ! D211  D(66,28,30,7)        -135.9403         estimate D2E/DX2                !
 ! D212  D(66,28,30,32)          8.5859         estimate D2E/DX2                !
 ! D213  D(26,28,66,64)          9.0033         estimate D2E/DX2                !
 ! D214  D(26,28,66,68)       -145.9445         estimate D2E/DX2                !
 ! D215  D(30,28,66,64)        147.8497         estimate D2E/DX2                !
 ! D216  D(30,28,66,68)         -7.0981         estimate D2E/DX2                !
 ! D217  D(5,29,31,33)          -1.7629         estimate D2E/DX2                !
 ! D218  D(5,29,31,69)        -147.0121         estimate D2E/DX2                !
 ! D219  D(27,29,31,33)        151.6549         estimate D2E/DX2                !
 ! D220  D(27,29,31,69)          6.4057         estimate D2E/DX2                !
 ! D221  D(7,30,32,34)          -1.983          estimate D2E/DX2                !
 ! D222  D(7,30,32,70)         140.2762         estimate D2E/DX2                !
 ! D223  D(28,30,32,34)       -143.1138         estimate D2E/DX2                !
 ! D224  D(28,30,32,70)         -0.8546         estimate D2E/DX2                !
 ! D225  D(29,31,33,35)         -8.0652         estimate D2E/DX2                !
 ! D226  D(29,31,33,73)       -155.8099         estimate D2E/DX2                !
 ! D227  D(69,31,33,35)        141.2676         estimate D2E/DX2                !
 ! D228  D(69,31,33,73)         -6.4771         estimate D2E/DX2                !
 ! D229  D(29,31,69,67)          9.1825         estimate D2E/DX2                !
 ! D230  D(29,31,69,71)        154.6262         estimate D2E/DX2                !
 ! D231  D(33,31,69,67)       -139.9291         estimate D2E/DX2                !
 ! D232  D(33,31,69,71)          5.5146         estimate D2E/DX2                !
 ! D233  D(30,32,34,36)         11.4504         estimate D2E/DX2                !
 ! D234  D(30,32,34,74)        154.1828         estimate D2E/DX2                !
 ! D235  D(70,32,34,36)       -133.6857         estimate D2E/DX2                !
 ! D236  D(70,32,34,74)          9.0467         estimate D2E/DX2                !
 ! D237  D(30,32,70,68)         -8.186          estimate D2E/DX2                !
 ! D238  D(30,32,70,72)       -154.3483         estimate D2E/DX2                !
 ! D239  D(34,32,70,68)        137.8107         estimate D2E/DX2                !
 ! D240  D(34,32,70,72)         -8.3516         estimate D2E/DX2                !
 ! D241  D(31,33,35,9)          12.2354         estimate D2E/DX2                !
 ! D242  D(31,33,35,37)       -144.6632         estimate D2E/DX2                !
 ! D243  D(73,33,35,9)         155.077          estimate D2E/DX2                !
 ! D244  D(73,33,35,37)         -1.8217         estimate D2E/DX2                !
 ! D245  D(31,33,73,71)          4.906          estimate D2E/DX2                !
 ! D246  D(31,33,73,75)        146.5295         estimate D2E/DX2                !
 ! D247  D(35,33,73,71)       -142.3542         estimate D2E/DX2                !
 ! D248  D(35,33,73,75)         -0.7307         estimate D2E/DX2                !
 ! D249  D(32,34,36,12)        -12.81           estimate D2E/DX2                !
 ! D250  D(32,34,36,38)        143.946          estimate D2E/DX2                !
 ! D251  D(74,34,36,12)       -150.1281         estimate D2E/DX2                !
 ! D252  D(74,34,36,38)          6.6279         estimate D2E/DX2                !
 ! D253  D(32,34,74,72)         -6.0997         estimate D2E/DX2                !
 ! D254  D(32,34,74,76)       -150.4609         estimate D2E/DX2                !
 ! D255  D(36,34,74,72)        136.3869         estimate D2E/DX2                !
 ! D256  D(36,34,74,76)         -7.9743         estimate D2E/DX2                !
 ! D257  D(9,35,37,39)          -0.4799         estimate D2E/DX2                !
 ! D258  D(9,35,37,77)        -153.915          estimate D2E/DX2                !
 ! D259  D(33,35,37,39)        155.6159         estimate D2E/DX2                !
 ! D260  D(33,35,37,77)          2.1808         estimate D2E/DX2                !
 ! D261  D(12,36,38,42)         -0.4256         estimate D2E/DX2                !
 ! D262  D(12,36,38,78)        166.5551         estimate D2E/DX2                !
 ! D263  D(34,36,38,42)       -156.6093         estimate D2E/DX2                !
 ! D264  D(34,36,38,78)         10.3714         estimate D2E/DX2                !
 ! D265  D(35,37,39,43)          5.8218         estimate D2E/DX2                !
 ! D266  D(35,37,39,79)       -147.397          estimate D2E/DX2                !
 ! D267  D(77,37,39,43)        159.9991         estimate D2E/DX2                !
 ! D268  D(77,37,39,79)          6.7804         estimate D2E/DX2                !
 ! D269  D(35,37,77,75)         -0.0897         estimate D2E/DX2                !
 ! D270  D(35,37,77,81)        144.4615         estimate D2E/DX2                !
 ! D271  D(39,37,77,75)       -154.5168         estimate D2E/DX2                !
 ! D272  D(39,37,77,81)         -9.9657         estimate D2E/DX2                !
 ! D273  D(36,38,42,46)         -1.5451         estimate D2E/DX2                !
 ! D274  D(36,38,42,80)        163.9536         estimate D2E/DX2                !
 ! D275  D(78,38,42,46)       -168.5658         estimate D2E/DX2                !
 ! D276  D(78,38,42,80)         -3.0671         estimate D2E/DX2                !
 ! D277  D(36,38,78,76)        -24.2973         estimate D2E/DX2                !
 ! D278  D(36,38,78,81)       -136.6577         estimate D2E/DX2                !
 ! D279  D(36,38,78,86)        100.2539         estimate D2E/DX2                !
 ! D280  D(42,38,78,76)        142.8684         estimate D2E/DX2                !
 ! D281  D(42,38,78,81)         30.5081         estimate D2E/DX2                !
 ! D282  D(42,38,78,86)        -92.5803         estimate D2E/DX2                !
 ! D283  D(37,39,43,2)        -148.4189         estimate D2E/DX2                !
 ! D284  D(37,39,43,13)         -3.2131         estimate D2E/DX2                !
 ! D285  D(79,39,43,2)           5.6243         estimate D2E/DX2                !
 ! D286  D(79,39,43,13)        150.8301         estimate D2E/DX2                !
 ! D287  D(37,39,79,40)        143.2584         estimate D2E/DX2                !
 ! D288  D(37,39,79,82)         -0.3394         estimate D2E/DX2                !
 ! D289  D(43,39,79,40)        -10.5141         estimate D2E/DX2                !
 ! D290  D(43,39,79,82)       -154.112          estimate D2E/DX2                !
 ! D291  D(44,40,41,45)         -5.3661         estimate D2E/DX2                !
 ! D292  D(44,40,41,80)       -158.105          estimate D2E/DX2                !
 ! D293  D(79,40,41,45)        143.9013         estimate D2E/DX2                !
 ! D294  D(79,40,41,80)         -8.8375         estimate D2E/DX2                !
 ! D295  D(41,40,44,2)         146.7007         estimate D2E/DX2                !
 ! D296  D(41,40,44,47)         -1.8013         estimate D2E/DX2                !
 ! D297  D(79,40,44,2)           1.051          estimate D2E/DX2                !
 ! D298  D(79,40,44,47)       -147.451          estimate D2E/DX2                !
 ! D299  D(41,40,79,39)       -142.2667         estimate D2E/DX2                !
 ! D300  D(41,40,79,82)          5.7362         estimate D2E/DX2                !
 ! D301  D(44,40,79,39)          7.4545         estimate D2E/DX2                !
 ! D302  D(44,40,79,82)        155.4574         estimate D2E/DX2                !
 ! D303  D(40,41,45,4)        -139.7102         estimate D2E/DX2                !
 ! D304  D(40,41,45,48)          8.5726         estimate D2E/DX2                !
 ! D305  D(80,41,45,4)           9.2966         estimate D2E/DX2                !
 ! D306  D(80,41,45,48)        157.5794         estimate D2E/DX2                !
 ! D307  D(40,41,80,42)        125.6771         estimate D2E/DX2                !
 ! D308  D(40,41,80,82)          8.0678         estimate D2E/DX2                !
 ! D309  D(40,41,80,85)       -112.0963         estimate D2E/DX2                !
 ! D310  D(45,41,80,42)        -25.9096         estimate D2E/DX2                !
 ! D311  D(45,41,80,82)       -143.519          estimate D2E/DX2                !
 ! D312  D(45,41,80,85)         96.3169         estimate D2E/DX2                !
 ! D313  D(38,42,46,4)         148.4573         estimate D2E/DX2                !
 ! D314  D(38,42,46,14)          2.8804         estimate D2E/DX2                !
 ! D315  D(80,42,46,4)         -18.0372         estimate D2E/DX2                !
 ! D316  D(80,42,46,14)       -163.6142         estimate D2E/DX2                !
 ! D317  D(38,42,80,41)       -137.4094         estimate D2E/DX2                !
 ! D318  D(38,42,80,82)        -25.1114         estimate D2E/DX2                !
 ! D319  D(38,42,80,85)         99.1897         estimate D2E/DX2                !
 ! D320  D(46,42,80,41)         28.6697         estimate D2E/DX2                !
 ! D321  D(46,42,80,82)        140.9677         estimate D2E/DX2                !
 ! D322  D(46,42,80,85)        -94.7312         estimate D2E/DX2                !
 ! D323  D(2,44,47,48)        -142.9516         estimate D2E/DX2                !
 ! D324  D(2,44,47,49)          -1.5549         estimate D2E/DX2                !
 ! D325  D(40,44,47,48)          5.5307         estimate D2E/DX2                !
 ! D326  D(40,44,47,49)        146.9274         estimate D2E/DX2                !
 ! D327  D(4,45,48,47)         143.575          estimate D2E/DX2                !
 ! D328  D(4,45,48,50)           1.2425         estimate D2E/DX2                !
 ! D329  D(41,45,48,47)         -4.8577         estimate D2E/DX2                !
 ! D330  D(41,45,48,50)       -147.1902         estimate D2E/DX2                !
 ! D331  D(44,47,48,45)         -2.265          estimate D2E/DX2                !
 ! D332  D(44,47,48,50)        144.4515         estimate D2E/DX2                !
 ! D333  D(49,47,48,45)       -147.9372         estimate D2E/DX2                !
 ! D334  D(49,47,48,50)         -1.2207         estimate D2E/DX2                !
 ! D335  D(44,47,49,10)         -2.1288         estimate D2E/DX2                !
 ! D336  D(44,47,49,56)       -147.144          estimate D2E/DX2                !
 ! D337  D(48,47,49,10)        143.0765         estimate D2E/DX2                !
 ! D338  D(48,47,49,56)         -1.9387         estimate D2E/DX2                !
 ! D339  D(45,48,50,11)          5.1654         estimate D2E/DX2                !
 ! D340  D(45,48,50,56)        150.3673         estimate D2E/DX2                !
 ! D341  D(47,48,50,11)       -141.3162         estimate D2E/DX2                !
 ! D342  D(47,48,50,56)          3.8857         estimate D2E/DX2                !
 ! D343  D(10,49,56,50)       -141.1542         estimate D2E/DX2                !
 ! D344  D(10,49,56,55)          3.4942         estimate D2E/DX2                !
 ! D345  D(47,49,56,50)          4.4129         estimate D2E/DX2                !
 ! D346  D(47,49,56,55)        149.0612         estimate D2E/DX2                !
 ! D347  D(11,50,56,49)        140.499          estimate D2E/DX2                !
 ! D348  D(11,50,56,55)         -4.6247         estimate D2E/DX2                !
[...]
 Alpha virt. eigenvalues --    1.12729   1.13149   1.13561   1.13823   1.14380
 Alpha virt. eigenvalues --    1.14515   1.14742   1.14823   1.15451   1.15610
 Alpha virt. eigenvalues --    1.15904   1.16092   1.16300   1.16690   1.17092
 Alpha virt. eigenvalues --    1.17289   1.17327   1.17700   1.17962   1.18163
 Alpha virt. eigenvalues --    1.18329   1.18482   1.18885   1.18992   1.19417
 Alpha virt. eigenvalues --    1.19619   1.19673   1.20419   1.20626   1.20748
 Alpha virt. eigenvalues --    1.20848   1.21298   1.21544   1.22011   1.22362
 Alpha virt. eigenvalues --    1.22548   1.22758   1.23251   1.23449   1.23903
 Alpha virt. eigenvalues --    1.24368   1.24556   1.24810   1.25618   1.25987
 Alpha virt. eigenvalues --    1.26152   1.26276   1.26546   1.26839   1.27020
 Alpha virt. eigenvalues --    1.27191   1.27595   1.28177   1.28351   1.28457
 Alpha virt. eigenvalues --    1.28637   1.29086   1.29363   1.29731   1.29842
 Alpha virt. eigenvalues --    1.30314   1.30519   1.30755   1.30862   1.31361
 Alpha virt. eigenvalues --    1.31485   1.32070   1.32270   1.32744   1.33309
 Alpha virt. eigenvalues --    1.33714   1.33836   1.34273   1.34729   1.34986
 Alpha virt. eigenvalues --    1.35652   1.35903   1.36545   1.37071   1.37169
 Alpha virt. eigenvalues --    1.37802   1.38300   1.38782   1.38858   1.39266
 Alpha virt. eigenvalues --    1.39933   1.40466   1.40710   1.41194   1.41908
 Alpha virt. eigenvalues --    1.42605   1.43752   1.44388   1.44729   1.45355
 Alpha virt. eigenvalues --    1.45808   1.46613   1.46903   1.47022   1.47694
 Alpha virt. eigenvalues --    1.48357   1.48910   1.49250   1.49699   1.50125
 Alpha virt. eigenvalues --    1.50697   1.51516   1.52101   1.52463   1.53111
 Alpha virt. eigenvalues --    1.53548   1.53628   1.53945   1.54342   1.54717
 Alpha virt. eigenvalues --    1.55847   1.56099   1.56269   1.57017   1.57187
 Alpha virt. eigenvalues --    1.57528   1.57803   1.58137   1.58429   1.59099
 Alpha virt. eigenvalues --    1.59493   1.60126   1.60668   1.61012   1.61661
 Alpha virt. eigenvalues --    1.62611   1.63302   1.63748   1.64381   1.64879
 Alpha virt. eigenvalues --    1.64988   1.65268   1.65395   1.65431   1.65873
 Alpha virt. eigenvalues --    1.65993   1.66527   1.66608   1.66899   1.67509
 Alpha virt. eigenvalues --    1.67739   1.67801   1.68140   1.68294   1.68861
 Alpha virt. eigenvalues --    1.69070   1.69445   1.69606   1.70108   1.70143
 Alpha virt. eigenvalues --    1.70444   1.70733   1.70883   1.71077   1.71261
 Alpha virt. eigenvalues --    1.71511   1.71778   1.72038   1.72147   1.72386
 Alpha virt. eigenvalues --    1.72663   1.73061   1.73145   1.73552   1.73573
 Alpha virt. eigenvalues --    1.73870   1.74149   1.74289   1.74491   1.74675
 Alpha virt. eigenvalues --    1.75068   1.75322   1.75487   1.75775   1.75901
 Alpha virt. eigenvalues --    1.76127   1.76178   1.76454   1.76904   1.76980
 Alpha virt. eigenvalues --    1.77038   1.77505   1.77677   1.77782   1.78272
 Alpha virt. eigenvalues --    1.78402   1.78941   1.79075   1.79287   1.79431
 Alpha virt. eigenvalues --    1.79673   1.80504   1.81471   1.81679   1.82385
 Alpha virt. eigenvalues --    1.82815   1.83013   1.83374   1.83983   1.84593
 Alpha virt. eigenvalues --    1.84758   1.85182   1.85977   1.86202   1.86561
 Alpha virt. eigenvalues --    1.87103   1.87422   1.88621   1.89356   1.89617
 Alpha virt. eigenvalues --    1.90235   1.91006   1.91608   1.91847   1.91990
 Alpha virt. eigenvalues --    1.92357   1.92930   1.93332   1.93600   1.94112
 Alpha virt. eigenvalues --    1.94383   1.95239   1.95258   1.95597   1.95811
 Alpha virt. eigenvalues --    1.96050   1.96183   1.96352   1.96806   1.96856
 Alpha virt. eigenvalues --    1.97218   1.97618   1.97752   1.98259   1.98417
 Alpha virt. eigenvalues --    1.98726   1.98823   1.98961   1.99204   1.99460
 Alpha virt. eigenvalues --    1.99715   1.99912   2.00161   2.00261   2.00537
 Alpha virt. eigenvalues --    2.00690   2.00835   2.01158   2.01406   2.01467
 Alpha virt. eigenvalues --    2.01834   2.02002   2.02178   2.02277   2.02499
 Alpha virt. eigenvalues --    2.02544   2.02615   2.02910   2.03349   2.03630
 Alpha virt. eigenvalues --    2.03969   2.04206   2.04456   2.04651   2.04742
 Alpha virt. eigenvalues --    2.05202   2.05666   2.05732   2.06314   2.06422
 Alpha virt. eigenvalues --    2.07141   2.07829   2.07900   2.08230   2.08865
 Alpha virt. eigenvalues --    2.09599   2.09755   2.10322   2.11159   2.11407
 Alpha virt. eigenvalues --    2.11446   2.12036   2.13159   2.13478   2.13931
 Alpha virt. eigenvalues --    2.14326   2.14783   2.14884   2.15057   2.15516
 Alpha virt. eigenvalues --    2.15783   2.16028   2.17271   2.17403   2.17673
 Alpha virt. eigenvalues --    2.18714   2.19384   2.19610   2.19905   2.19996
 Alpha virt. eigenvalues --    2.20956   2.20973   2.21605   2.22069   2.22549
 Alpha virt. eigenvalues --    2.23007   2.23192   2.23626   2.24091   2.24439
 Alpha virt. eigenvalues --    2.24523   2.25002   2.25483   2.25739   2.25805
 Alpha virt. eigenvalues --    2.26878   2.27180   2.27633   2.28160   2.28225
 Alpha virt. eigenvalues --    2.28683   2.28944   2.29098   2.29612   2.29739
 Alpha virt. eigenvalues --    2.30290   2.30896   2.31063   2.31501   2.31963
 Alpha virt. eigenvalues --    2.32485   2.32878   2.33500   2.33759   2.34310
 Alpha virt. eigenvalues --    2.35328   2.35736   2.36264   2.36737   2.37758
 Alpha virt. eigenvalues --    2.38365   2.38611   2.39095   2.40092   2.40227
 Alpha virt. eigenvalues --    2.40821   2.40908   2.41817   2.42419   2.42697
 Alpha virt. eigenvalues --    2.42858   2.43033   2.43967   2.44107   2.44388
 Alpha virt. eigenvalues --    2.45133   2.45482   2.45882   2.46749   2.47040
 Alpha virt. eigenvalues --    2.47914   2.48465   2.50652   2.50782   2.51346
 Alpha virt. eigenvalues --    2.51665   2.51825   2.52562   2.52900   2.53229
 Alpha virt. eigenvalues --    2.53698   2.54120   2.54401   2.54840   2.55092
 Alpha virt. eigenvalues --    2.55796   2.55892   2.56302   2.56724   2.56872
 Alpha virt. eigenvalues --    2.56885   2.57414   2.57523   2.57669   2.58064
 Alpha virt. eigenvalues --    2.58280   2.58689   2.58854   2.59155   2.59626
 Alpha virt. eigenvalues --    2.59756   2.59894   2.60225   2.60622   2.60808
 Alpha virt. eigenvalues --    2.61245   2.61585   2.61731   2.62140   2.62861
 Alpha virt. eigenvalues --    2.63094   2.63313   2.63604   2.63826   2.64511
 Alpha virt. eigenvalues --    2.64981   2.65392   2.65520   2.65782   2.66048
 Alpha virt. eigenvalues --    2.66370   2.66739   2.67086   2.67426   2.67730
 Alpha virt. eigenvalues --    2.68143   2.68257   2.68370   2.68471   2.68744
 Alpha virt. eigenvalues --    2.69779   2.70316   2.70766   2.70975   2.72254
 Alpha virt. eigenvalues --    2.72851   2.73036   2.73209   2.73547   2.74023
 Alpha virt. eigenvalues --    2.74434   2.75163   2.75583   2.76413   2.76745
 Alpha virt. eigenvalues --    2.77248   2.77999   2.78215   2.78560   2.78784
 Alpha virt. eigenvalues --    2.79374   2.80071   2.80225   2.80498   2.81385
 Alpha virt. eigenvalues --    2.82082   2.82208   2.82531   2.83163   2.83466
 Alpha virt. eigenvalues --    2.84049   2.84119   2.84249   2.84800   2.85328
 Alpha virt. eigenvalues --    2.85699   2.85920   2.86132   2.86662   2.87460
 Alpha virt. eigenvalues --    2.87741   2.88105   2.88963   2.89329   2.89596
 Alpha virt. eigenvalues --    2.90116   2.90440   2.91095   2.91440   2.91729
 Alpha virt. eigenvalues --    2.92035   2.92717   2.92902   2.93293   2.93742
 Alpha virt. eigenvalues --    2.94488   2.94743   2.95285   2.95299   2.95653
 Alpha virt. eigenvalues --    2.96348   2.96772   2.97830   2.98029   2.99007
 Alpha virt. eigenvalues --    2.99606   3.00559   3.01634   3.02904   3.03404
 Alpha virt. eigenvalues --    3.04257   3.05699   3.06762   3.08327   3.09430
 Alpha virt. eigenvalues --    3.10686   3.12685   3.13992   3.14530   3.17871
 Alpha virt. eigenvalues --    3.17985   3.18166   3.19965   3.20677   3.24267
 Alpha virt. eigenvalues --    3.26695   3.27192   3.28607   3.28868   3.31746
 Alpha virt. eigenvalues --    3.32151   3.33863   3.34916   3.36372   3.37845
 Alpha virt. eigenvalues --    3.39253   3.40309   3.42680   3.43149   3.46019
 Alpha virt. eigenvalues --    3.47663   3.48567   3.49975   3.53857   3.54863
 Alpha virt. eigenvalues --    3.56153   3.56822   3.61232   4.01081   4.01668
 Alpha virt. eigenvalues --    4.02186   4.02535   4.03166   4.03934   4.04213
 Alpha virt. eigenvalues --    4.04836   4.04961   4.06204   4.07027   4.07114
 Alpha virt. eigenvalues --    4.07194   4.07483   4.08096   4.08523   4.10354
 Alpha virt. eigenvalues --    4.10774   4.11243   4.12004   4.12277   4.13005
 Alpha virt. eigenvalues --    4.13212   4.13804   4.15550   4.17601   4.18024
 Alpha virt. eigenvalues --    4.19166   4.19872   4.20209   4.20831   4.21266
 Alpha virt. eigenvalues --    4.22190   4.22444   4.22884   4.24195   4.27307
 Alpha virt. eigenvalues --    4.27921   4.28828   4.29019   4.29466   4.30258
 Alpha virt. eigenvalues --    4.30430   4.32384   4.32873   4.34900   4.38182
 Alpha virt. eigenvalues --    4.38331   4.40106   4.42366   4.43523   4.45269
 Alpha virt. eigenvalues --    4.46403   4.47778   4.49436   4.51183   4.51865
 Alpha virt. eigenvalues --    4.52590   4.53876   4.55677   4.57785   4.58860
 Alpha virt. eigenvalues --    4.60026   4.62806   4.65685   4.66518   4.67474
 Alpha virt. eigenvalues --    4.68968   4.69850   4.73337   4.79691   4.81710
 Alpha virt. eigenvalues --    4.84387   4.85206   4.87017   4.89575   4.93438
 Alpha virt. eigenvalues --    4.94526   5.01305   5.02883   5.10439   5.11725
 Alpha virt. eigenvalues --    5.16358   5.17610   5.23655   5.25917
          Condensed to atoms (all electrons):
 Mulliken charges:
               1
     1  C   -0.022320
     2  C   -0.017650
     3  C   -0.018022
     4  C   -0.040854
     5  C    0.053586
     6  C   -0.029115
     7  C   -0.028028
     8  C   -0.027926
     9  C    0.039717
    10  C    0.065475
    11  C    0.057866
    12  C    0.059014
    13  C   -0.025510
    14  C   -0.035772
    15  C   -0.017272
    16  C   -0.038213
    17  C   -0.004494
    18  C    0.054203
    19  C   -0.018151
    20  C    0.045936
    21  C   -0.025391
    22  C   -0.026383
    23  C   -0.002665
    24  C   -0.013200
    25  C   -0.014015
    26  C   -0.016638
    27  C   -0.018849
    28  C   -0.022032
    29  C    0.046189
    30  C   -0.024036
    31  C   -0.031994
    32  C   -0.005081
    33  C   -0.017097
    34  C   -0.046105
    35  C    0.047334
    36  C    0.065781
    37  C    0.026240
    38  C    0.100315
    39  C    0.048056
    40  C    0.017024
    41  C    0.053122
    42  C    0.125602
    43  C   -0.018328
    44  C    0.060961
    45  C    0.089631
    46  C    0.000598
    47  C   -0.023886
    48  C   -0.035410
    49  C   -0.020183
    50  C   -0.023996
    51  C    0.051215
    52  C    0.040311
    53  C   -0.021067
    54  C   -0.025257
    55  C   -0.010159
    56  C   -0.013685
    57  C    0.058308
    58  C   -0.011434
    59  C    0.057221
    60  C   -0.023589
    61  C   -0.026163
    62  C   -0.020796
    63  C   -0.028165
    64  C    0.053036
    65  C   -0.028619
    66  C    0.045609
    67  C    0.055388
    68  C    0.041586
    69  C   -0.020177
    70  C   -0.022171
    71  C   -0.017004
    72  C    0.009989
    73  C   -0.022156
    74  C    0.012530
    75  C    0.030803
    76  C    0.071825
    77  C   -0.001439
    78  C   -0.354216
    79  C    0.007548
    80  C   -0.358858
    81  C    0.098900
    82  C    0.094398
    83  C   -0.018232
    84  C   -0.012919
    85  Cl  -0.001801
    86  Cl  -0.038794
 Sum of Mulliken charges =  -0.00000
 Mulliken charges with hydrogens summed into heavy atoms:
               1
     1  C   -0.022320
     2  C   -0.017650
     3  C   -0.018022
     4  C   -0.040854
     5  C    0.053586
     6  C   -0.029115
     7  C   -0.028028
     8  C   -0.027926
     9  C    0.039717
    10  C    0.065475
    11  C    0.057866
    12  C    0.059014
    13  C   -0.025510
    14  C   -0.035772
    15  C   -0.017272
    16  C   -0.038213
    17  C   -0.004494
    18  C    0.054203
    19  C   -0.018151
    20  C    0.045936
    21  C   -0.025391
    22  C   -0.026383
    23  C   -0.002665
    24  C   -0.013200
    25  C   -0.014015
    26  C   -0.016638
    27  C   -0.018849
    28  C   -0.022032
    29  C    0.046189
    30  C   -0.024036
    31  C   -0.031994
    32  C   -0.005081
    33  C   -0.017097
    34  C   -0.046105
    35  C    0.047334
    36  C    0.065781
    37  C    0.026240
    38  C    0.100315
    39  C    0.048056
    40  C    0.017024
    41  C    0.053122
    42  C    0.125602
    43  C   -0.018328
    44  C    0.060961
    45  C    0.089631
    46  C    0.000598
    47  C   -0.023886
    48  C   -0.035410
    49  C   -0.020183
    50  C   -0.023996
    51  C    0.051215
    52  C    0.040311
    53  C   -0.021067
    54  C   -0.025257
    55  C   -0.010159
    56  C   -0.013685
    57  C    0.058308
    58  C   -0.011434
    59  C    0.057221
    60  C   -0.023589
    61  C   -0.026163
    62  C   -0.020796
    63  C   -0.028165
    64  C    0.053036
    65  C   -0.028619
    66  C    0.045609
    67  C    0.055388
    68  C    0.041586
    69  C   -0.020177
    70  C   -0.022171
    71  C   -0.017004
    72  C    0.009989
    73  C   -0.022156
    74  C    0.012530
    75  C    0.030803
    76  C    0.071825
    77  C   -0.001439
    78  C   -0.354216
    79  C    0.007548
    80  C   -0.358858
    81  C    0.098900
    82  C    0.094398
    83  C   -0.018232
    84  C   -0.012919
    85  Cl  -0.001801
    86  Cl  -0.038794
 Electronic spatial extent (au):  <R**2>=          37617.8571
 Charge=             -0.0000 electrons
 Dipole moment (field-independent basis, Debye):
    X=             -3.7130    Y=              0.1510    Z=             -2.5879  Tot=              4.5284
 Quadrupole moment (field-independent basis, Debye-Ang):
   XX=           -502.0678   YY=           -478.3506   ZZ=           -475.3044
   XY=              0.1036   XZ=             -2.4611   YZ=              2.2683
 Traceless Quadrupole moment (field-independent basis, Debye-Ang):
   XX=            -16.8269   YY=              6.8904   ZZ=              9.9365
   XY=              0.1036   XZ=             -2.4611   YZ=              2.2683
 Octapole moment (field-independent basis, Debye-Ang**2):
  XXX=            -79.3145  YYY=              0.3336  ZZZ=            -22.1073  XYY=             16.7101
  XXY=             -4.9312  XXZ=            -19.0162  XZZ=             27.3829  YZZ=             -5.7159
  YYZ=             -9.7914  XYZ=              3.6227
 Hexadecapole moment (field-independent basis, Debye-Ang**3):
 XXXX=         -23407.2627 YYYY=         -17703.8579 ZZZZ=         -15205.6026 XXXY=            -67.5181
 XXXZ=             20.2839 YYYX=            -48.3483 YYYZ=             15.0125 ZZZX=             15.4461
 ZZZY=             -9.2686 XXYY=          -6792.9210 XXZZ=          -6289.9013 YYZZ=          -5503.9227
 XXYZ=             20.5050 YYXZ=             -7.9051 ZZXY=            -21.4654
 N-N= 1.559447246104D+04 E-N=-4.078227982528D+04  KE= 4.088597041409D+03
 No NMR shielding tensors so no spin-rotation constants.
 Leave Link  601 at Wed Jun 29 06:54:55 2022, MaxMem=  1342177280 cpu:              22.4 elap:               1.1
 (Enter /home/mkliu/g16/l9999.exe)
 1\1\GINC-NODE03\FOpt\RB3LYP\6-31G(d,p)\C84Cl2\MKLIU\29-Jun-2022\0\\#P 
 opt b3lyp/6-31G(d, p) empiricaldispersion=GD3\\force\\0,1\C,8.53208212
 48,18.9702758037,10.7906812051\C,12.4430909079,20.2232759724,8.9299503
 555\C,8.3006822812,26.7860761151,10.5658000454\C,12.3347820498,25.4995
 126808,8.9375547288\C,8.0403801297,19.1356521405,9.4741471367\C,12.088
 6314216,19.7435211555,10.2213875699\C,7.9765951162,26.8011492522,9.162
 4970466\C,11.8803866272,25.9055319444,10.2174768362\C,9.0119833561,19.
 2367615792,8.3790119547\C,12.3357228566,20.5087552912,11.3974765665\C,
 12.1454315033,25.1361227647,11.3981622348\C,8.9681139455,26.5845098489
 ,8.1726971626\C,10.3901335947,19.1130698729,8.7049661809\C,10.30567551
 58,26.5861264494,8.6423238013\C,10.8505097663,19.0039107779,10.0675049
 937\C,10.6375394445,26.6052363783,10.0487750029\C,9.9416145845,18.9562
 455794,11.0886540433\C,9.6385296831,26.5857878419,11.0357629689\C,10.1
 840800687,19.6710068847,12.3324629367\C,9.8762593904,25.8339660554,12.
 2765566386\C,8.9159272322,20.0609792798,12.8512445261\C,8.7296269224,2
 5.3808339404,12.9772275165\C,7.8908879392,19.5728917932,11.9349668024\
 C,7.4071089874,25.4948127508,12.4168108212\C,6.716253155,20.2654719689
 ,11.7799689155\C,7.1936529758,26.1902870803,11.2492209653\C,6.10354144
 09,20.3431086363,10.4812254514\C,6.2245286638,25.7248979792,10.2724433
 697\C,6.7405795569,19.7807728938,9.3382179402\C,6.6685177723,26.229641
 7262,9.0059317134\C,6.3967875561,20.3548707013,8.1032239359\C,6.351430
 1164,25.5613665993,7.8407093481\C,7.3285630453,20.3698878317,6.9883001
 735\C,7.2887162785,25.4709801288,6.7496684976\C,8.6704051689,19.924457
 1721,7.1437653004\C,8.6551321825,25.8500175176,6.950971936\C,9.7040284
 662,20.610670969,6.374240573\C,9.7086715259,25.124560062,6.2771707676\
 C,11.0691623612,20.6098522277,6.8498933137\C,12.8696335751,22.19702517
 85,7.5748425443\C,12.887065655,23.5864543622,7.5617475556\C,11.0186234
 684,25.133953719,6.8040111254\C,11.3884484437,19.8445277795,8.00055111
 96\C,13.1388198221,21.4468589731,8.7648253725\C,13.1051092321,24.32288
 73309,8.7712378636\C,11.319980888,25.8860364885,7.953125043\C,13.49918
 97983,22.1639102307,9.9300622821\C,13.4690470569,23.6083129167,9.93457
 00998\C,13.113410212,21.6913954708,11.2283536457\C,13.0270593008,24.03
 77314339,11.2383656367\C,11.3497020649,20.4717434798,12.487941086\C,11
 .1319870429,25.1040792675,12.4540422191\C,11.1977399986,21.6161899978,
 13.3202765842\C,11.1314887847,23.9751534672,13.325413801\C,11.96022166
 07,22.8293009876,13.0684963652\C,12.8864319049,22.8559138131,12.049063
 652\C,8.7354627149,21.2867337469,13.5482212857\C,8.7371393404,24.15056
 16669,13.7208123332\C,7.4773683058,22.0302074289,13.3685562722\C,7.492
 6777065,23.4395415808,13.4846139271\C,6.4809882306,21.4980601477,12.50
 18980545\C,6.6753529435,24.2747068061,12.6565345142\C,5.6957826186,22.
 3269379164,11.6522445551\C,5.8162178731,23.7345651217,11.6502492074\C,
 5.4403560256,21.6042202889,10.4094331394\C,5.5966389429,24.467974381,1
 0.3965261804\C,5.2341819852,22.2718657077,9.1864320693\C,5.2780443098,
 23.7390741617,9.1590880675\C,5.5856837721,21.5305002698,8.0190556469\C
 ,5.5768328927,24.3484173791,7.9191716414\C,5.914960961,22.1952886479,6
 .7826992803\C,5.9226044097,23.5736702562,6.7414648809\C,6.971968129,21
 .4558278579,6.1375772047\C,6.9681089557,24.2800212838,6.0153283925\C,7
 .9705552403,22.1565728947,5.4555139303\C,7.9424649744,23.573114719,5.3
 370466545\C,9.3299736581,21.7022237414,5.5341681366\C,9.3478698833,24.
 1083270662,5.1932552575\C,11.892326246,21.7390476485,6.594922078\C,12.
 0774578663,24.1195736558,6.3758449639\C,10.1722874304,22.832444432,5.3
 443021044\C,11.4361277996,22.8511363444,5.8591332403\C,9.9264510928,22
 .0103235463,13.8314160693\C,9.9146753033,23.4653313989,13.8905954085\C
 l,13.2208359803,24.8889284143,5.1395416829\Cl,9.6198938913,24.85196583
 41,3.4934791675\\Version=ES64L-G16RevA.03\State=1-A\HF=-4121.3949979\R
 MSD=8.927e-09\RMSF=4.129e-05\Dipole=-0.410967,-1.3913408,1.0341208\Qua
 drupole=4.1224854,4.9489418,-9.0714272,-3.007083,3.0484141,6.6811763\P
 G=C01 [X(C84Cl2)]\\@


 DEPRESSION IS WAITING FOR YOUR SHIP TO COME IN,
 AND FINDING OUT IT'S THE TITANIC.
 Job cpu time:       1 days 11 hours 35 minutes 53.6 seconds.
 Elapsed time:       0 days  1 hours 29 minutes  7.1 seconds.
 File lengths (MBytes):  RWF=   1037 Int=      0 D2E=      0 Chk=    131 Scr=      1
 Normal termination of Gaussian 16 at Wed Jun 29 06:54:56 2022.
