 Entering Gaussian System, Link 0=g16
 Input=2_addons_C84_11_mirror_Cl22_rank_4.gjf
 Output=2_addons_C84_11_mirror_Cl22_rank_4.log
 Initial command:
 /home/mkliu/g16/l1.exe "/data/scratch/Gau-137275.inp" -scrdir="/data/scratch/"
 Entering Link 1 = /home/mkliu/g16/l1.exe PID=    137276.
  
 Copyright (c) 1988,1990,1992,1993,1995,1998,2003,2009,2016,
            Gaussian, Inc.  All Rights Reserved.
  
 This is part of the Gaussian(R) 16 program.  It is based on
 the Gaussian(R) 09 system (copyright 2009, Gaussian, Inc.),
 the Gaussian(R) 03 system (copyright 2003, Gaussian, Inc.),
 the Gaussian(R) 98 system (copyright 1998, Gaussian, Inc.),
 the Gaussian(R) 94 system (copyright 1995, Gaussian, Inc.),
 the Gaussian 92(TM) system (copyright 1992, Gaussian, Inc.),
 the Gaussian 90(TM) system (copyright 1990, Gaussian, Inc.),
 the Gaussian 88(TM) system (copyright 1988, Gaussian, Inc.),
 the Gaussian 86(TM) system (copyright 1986, Carnegie Mellon
 University), and the Gaussian 82(TM) system (copyright 1983,
 Carnegie Mellon University). Gaussian is a federally registered
 trademark of Gaussian, Inc.
  
 This software contains proprietary and confidential information,
 including trade secrets, belonging to Gaussian, Inc.
  
 This software is provided under written license and may be
 used, copied, transmitted, or stored only in accord with that
 written license.
  
 The following legend is applicable only to US Government
 contracts under FAR:
  
                    RESTRICTED RIGHTS LEGEND
  
 Use, reproduction and disclosure by the US Government is
 subject to restrictions as set forth in subparagraphs (a)
 and (c) of the Commercial Computer Software - Restricted
 Rights clause in FAR 52.227-19.
  
 Gaussian, Inc.
 340 Quinnipiac St., Bldg. 40, Wallingford CT 06492
  
  
 ---------------------------------------------------------------
 Warning -- This program may not be used in any manner that
 competes with the business of Gaussian, Inc. or will provide
 assistance to any competitor of Gaussian, Inc.  The licensee
 of this program is prohibited from giving any competitor of
 Gaussian, Inc. access to this program.  By using this program,
 the user acknowledges that Gaussian, Inc. is engaged in the
 business of creating and licensing software in the field of
 computational chemistry and represents and warrants to the
 licensee that it is not a competitor of Gaussian, Inc. and that
 it will not use this program in any manner prohibited above.
 ---------------------------------------------------------------
  

 Cite this work as:
 Gaussian 16, Revision A.03,
 M. J. Frisch, G. W. Trucks, H. B. Schlegel, G. E. Scuseria, 
 M. A. Robb, J. R. Cheeseman, G. Scalmani, V. Barone, 
 G. A. Petersson, H. Nakatsuji, X. Li, M. Caricato, A. V. Marenich, 
 J. Bloino, B. G. Janesko, R. Gomperts, B. Mennucci, H. P. Hratchian, 
 J. V. Ortiz, A. F. Izmaylov, J. L. Sonnenberg, D. Williams-Young, 
 F. Ding, F. Lipparini, F. Egidi, J. Goings, B. Peng, A. Petrone, 
 T. Henderson, D. Ranasinghe, V. G. Zakrzewski, J. Gao, N. Rega, 
 G. Zheng, W. Liang, M. Hada, M. Ehara, K. Toyota, R. Fukuda, 
 J. Hasegawa, M. Ishida, T. Nakajima, Y. Honda, O. Kitao, H. Nakai, 
 T. Vreven, K. Throssell, J. A. Montgomery, Jr., J. E. Peralta, 
 F. Ogliaro, M. J. Bearpark, J. J. Heyd, E. N. Brothers, K. N. Kudin, 
 V. N. Staroverov, T. A. Keith, R. Kobayashi, J. Normand, 
 K. Raghavachari, A. P. Rendell, J. C. Burant, S. S. Iyengar, 
 J. Tomasi, M. Cossi, J. M. Millam, M. Klene, C. Adamo, R. Cammi, 
 J. W. Ochterski, R. L. Martin, K. Morokuma, O. Farkas, 
 J. B. Foresman, and D. J. Fox, Gaussian, Inc., Wallingford CT, 2016.
 
 ******************************************
 Gaussian 16:  ES64L-G16RevA.03 25-Dec-2016
                27-Jun-2022 
 ******************************************
 %mem=10GB
 %chk=2_addons_C84_11_mirror_Cl22_rank_4.chk
 %nprocshared=24
 Will use up to   24 processors via shared memory.
 ------------------------------------------------
 #P opt b3lyp/6-31G(d, p) empiricaldispersion=GD3
 ------------------------------------------------
 1/18=20,19=15,26=3,38=1/1,3;
 2/9=110,12=2,17=6,18=5,40=1/2;
 3/5=1,6=6,7=101,11=2,25=1,30=1,71=1,74=-5,124=31/1,2,3;
 4//1;
 5/5=2,38=5/2;
 6/7=2,8=2,9=2,10=2,28=1/1;
 7//1,2,3,16;
 1/18=20,19=15,26=3/3(2);
 2/9=110/2;
 99//99;
 2/9=110/2;
 3/5=1,6=6,7=101,11=2,25=1,30=1,71=1,74=-5,124=31/1,2,3;
 4/5=5,16=3,69=1/1;
 5/5=2,38=5/2;
 7//1,2,3,16;
 1/18=20,19=15,26=3/3(-5);
 2/9=110/2;
 6/7=2,8=2,9=2,10=2,19=2,28=1/1;
 99/9=1/99;
 Leave Link    1 at Mon Jun 27 03:28:40 2022, MaxMem=  1342177280 cpu:               0.6 elap:               0.1
 (Enter /home/mkliu/g16/l101.exe)
 -----
 force
 -----
 Symbolic Z-matrix:
 Charge =  0 Multiplicity = 1
 C                     8.535     18.99558   10.78099 
 C                     12.62067   20.06027   8.8433 
 C                     8.29534   26.78685   10.55985 
 C                     12.30372   25.50789   8.91458 
 C                     8.05801   19.17792   9.47024 
 C                     12.06602   19.7854   10.22072 
 C                     7.98659   26.80117   9.17002 
 C                     11.83844   25.89691   10.20874 
 C                     9.0153    19.28167   8.38887 
 C                     12.29467   20.52426   11.35058 
 C                     12.0836   25.12991   11.35384 
 C                     8.96828   26.61142   8.17678 
 C                     10.38691   19.18857   8.70597 
 C                     10.29135   26.6094   8.65347 
 C                     10.84133   19.07577   10.05587 
 C                     10.60259   26.60236   10.03649 
 C                     9.92825   18.99706   11.07746 
 C                     9.60961   26.59086   11.03476 
 C                     10.17045   19.70834   12.29558 
 C                     9.84994   25.83927   12.24843 
 C                     8.8998    20.08978   12.82313 
 C                     8.71634   25.3775   12.94471 
 C                     7.89414   19.59786   11.91991 
 C                     7.39469   25.48893   12.39108 
 C                     6.71551   20.28322   11.76322 
 C                     7.18077   26.18415   11.23551 
 C                     6.12545   20.37095   10.46674 
 C                     6.22542   25.71595   10.2667 
 C                     6.76811   19.813    9.33787 
 C                     6.68325   26.21527   9.01634 
 C                     6.4347    20.3944   8.10967 
 C                     6.36727   25.55598   7.85666 
 C                     7.35021   20.38682   7.00529 
 C                     7.3256    25.46652   6.78593 
 C                     8.68381   19.95448   7.1595 
 C                     8.65745   25.88787   6.95634 
 C                     9.71163   20.61821   6.38915 
 C                     9.70327   25.15093   6.2738 
 C                     11.08663   20.60065   6.85124 
 C                     12.86372   22.1719   7.55463 
 C                     12.84372   23.60958   7.5466 
 C                     11.0623   25.16444   6.79775 
 C                     11.39846   19.83571   7.96699 
 C                     13.14193   21.45843   8.73874 
 C                     13.04729   24.32252   8.74091 
 C                     11.3349   25.91394   7.95447 
 C                     13.46396   22.16201   9.87381 
 C                     13.37838   23.58587   9.89768 
 C                     13.31628   21.62946   11.27888 
 C                     12.95234   24.01099   11.18483 
 C                     11.32128   20.50601   12.42361 
 C                     11.08884   25.1045   12.40608 
 C                     11.17161   21.63361   13.26784 
 C                     11.09321   23.97745   13.24551 
 C                     11.9321   22.83488   13.00089 
 C                     12.86438   22.86385   12.00964 
 C                     8.71931   21.30488   13.50819 
 C                     8.72137   24.1544   13.67191 
 C                     7.47868   22.03794   13.3303 
 C                     7.48523   23.44432   13.43379 
 C                     6.49081   21.5145   12.46829 
 C                     6.66635   24.26941   12.62194 
 C                     5.7039    22.33876   11.62051 
 C                     5.81284   23.7404   11.62187 
 C                     5.45896   21.62552   10.39505 
 C                     5.60121   24.46118   10.38198 
 C                     5.25699   22.29563   9.17803 
 C                     5.29373   23.74415   9.15989 
 C                     5.61358   21.55988   8.02268 
 C                     5.59497   24.35489   7.92587 
 C                     5.94012   22.21868   6.79835 
 C                     5.93171   23.59573   6.75296 
 C                     6.99459   21.47671   6.15765 
 C                     6.98271   24.29196   6.04973 
 C                     7.98415   22.13831   5.45932 
 C                     7.98047   23.58552   5.41131 
 C                     9.32775   21.68717   5.55133 
 C                     9.32639   24.04347   5.49161 
 C                     11.942    21.71168   6.58471 
 C                     11.91415   24.05581   6.57137 
 C                     10.15281   22.85984   5.4247 
 C                     11.42005   22.87329   5.93241 
 C                     9.91411   22.02401   13.77566 
 C                     9.89665   23.46365   13.82879 
 Cl                    14.90776   21.02708   11.91528 
 Cl                    13.92555   18.86123   8.42488 
 
 ITRead=  0  0  0  0  0  0  0  0  0  0  0  0  0  0  0  0  0  0  0  0
 ITRead=  0  0  0  0  0  0  0  0  0  0  0  0  0  0  0  0  0  0  0  0
 ITRead=  0  0  0  0  0  0  0  0  0  0  0  0  0  0  0  0  0  0  0  0
 ITRead=  0  0  0  0  0  0  0  0  0  0  0  0  0  0  0  0  0  0  0  0
 ITRead=  0  0  0  0  0  0
 MicOpt= -1 -1 -1 -1 -1 -1 -1 -1 -1 -1 -1 -1 -1 -1 -1 -1 -1 -1 -1 -1
 MicOpt= -1 -1 -1 -1 -1 -1 -1 -1 -1 -1 -1 -1 -1 -1 -1 -1 -1 -1 -1 -1
 MicOpt= -1 -1 -1 -1 -1 -1 -1 -1 -1 -1 -1 -1 -1 -1 -1 -1 -1 -1 -1 -1
 MicOpt= -1 -1 -1 -1 -1 -1 -1 -1 -1 -1 -1 -1 -1 -1 -1 -1 -1 -1 -1 -1
 MicOpt= -1 -1 -1 -1 -1 -1
 NAtoms=     86 NQM=       86 NQMF=       0 NMMI=      0 NMMIF=      0
                NMic=       0 NMicF=      0.
                    Isotopes and Nuclear Properties:
 (Nuclear quadrupole moments (NQMom) in fm**2, nuclear magnetic moments (NMagM)
  in nuclear magnetons)

  Atom         1           2           3           4           5           6           7           8           9          10
 IAtWgt=          12          12          12          12          12          12          12          12          12          12
 AtmWgt=  12.0000000  12.0000000  12.0000000  12.0000000  12.0000000  12.0000000  12.0000000  12.0000000  12.0000000  12.0000000
 NucSpn=           0           0           0           0           0           0           0           0           0           0
 AtZEff=  -0.0000000  -0.0000000  -0.0000000  -0.0000000  -0.0000000  -0.0000000  -0.0000000  -0.0000000  -0.0000000  -0.0000000
 NQMom=    0.0000000   0.0000000   0.0000000   0.0000000   0.0000000   0.0000000   0.0000000   0.0000000   0.0000000   0.0000000
 NMagM=    0.0000000   0.0000000   0.0000000   0.0000000   0.0000000   0.0000000   0.0000000   0.0000000   0.0000000   0.0000000
 AtZNuc=   6.0000000   6.0000000   6.0000000   6.0000000   6.0000000   6.0000000   6.0000000   6.0000000   6.0000000   6.0000000

  Atom        11          12          13          14          15          16          17          18          19          20
 IAtWgt=          12          12          12          12          12          12          12          12          12          12
 AtmWgt=  12.0000000  12.0000000  12.0000000  12.0000000  12.0000000  12.0000000  12.0000000  12.0000000  12.0000000  12.0000000
 NucSpn=           0           0           0           0           0           0           0           0           0           0
 AtZEff=  -0.0000000  -0.0000000  -0.0000000  -0.0000000  -0.0000000  -0.0000000  -0.0000000  -0.0000000  -0.0000000  -0.0000000
 NQMom=    0.0000000   0.0000000   0.0000000   0.0000000   0.0000000   0.0000000   0.0000000   0.0000000   0.0000000   0.0000000
 NMagM=    0.0000000   0.0000000   0.0000000   0.0000000   0.0000000   0.0000000   0.0000000   0.0000000   0.0000000   0.0000000
 AtZNuc=   6.0000000   6.0000000   6.0000000   6.0000000   6.0000000   6.0000000   6.0000000   6.0000000   6.0000000   6.0000000

  Atom        21          22          23          24          25          26          27          28          29          30
 IAtWgt=          12          12          12          12          12          12          12          12          12          12
 AtmWgt=  12.0000000  12.0000000  12.0000000  12.0000000  12.0000000  12.0000000  12.0000000  12.0000000  12.0000000  12.0000000
 NucSpn=           0           0           0           0           0           0           0           0           0           0
 AtZEff=  -0.0000000  -0.0000000  -0.0000000  -0.0000000  -0.0000000  -0.0000000  -0.0000000  -0.0000000  -0.0000000  -0.0000000
 NQMom=    0.0000000   0.0000000   0.0000000   0.0000000   0.0000000   0.0000000   0.0000000   0.0000000   0.0000000   0.0000000
 NMagM=    0.0000000   0.0000000   0.0000000   0.0000000   0.0000000   0.0000000   0.0000000   0.0000000   0.0000000   0.0000000
 AtZNuc=   6.0000000   6.0000000   6.0000000   6.0000000   6.0000000   6.0000000   6.0000000   6.0000000   6.0000000   6.0000000

  Atom        31          32          33          34          35          36          37          38          39          40
 IAtWgt=          12          12          12          12          12          12          12          12          12          12
 AtmWgt=  12.0000000  12.0000000  12.0000000  12.0000000  12.0000000  12.0000000  12.0000000  12.0000000  12.0000000  12.0000000
 NucSpn=           0           0           0           0           0           0           0           0           0           0
 AtZEff=  -0.0000000  -0.0000000  -0.0000000  -0.0000000  -0.0000000  -0.0000000  -0.0000000  -0.0000000  -0.0000000  -0.0000000
 NQMom=    0.0000000   0.0000000   0.0000000   0.0000000   0.0000000   0.0000000   0.0000000   0.0000000   0.0000000   0.0000000
 NMagM=    0.0000000   0.0000000   0.0000000   0.0000000   0.0000000   0.0000000   0.0000000   0.0000000   0.0000000   0.0000000
 AtZNuc=   6.0000000   6.0000000   6.0000000   6.0000000   6.0000000   6.0000000   6.0000000   6.0000000   6.0000000   6.0000000

  Atom        41          42          43          44          45          46          47          48          49          50
 IAtWgt=          12          12          12          12          12          12          12          12          12          12
 AtmWgt=  12.0000000  12.0000000  12.0000000  12.0000000  12.0000000  12.0000000  12.0000000  12.0000000  12.0000000  12.0000000
 NucSpn=           0           0           0           0           0           0           0           0           0           0
 AtZEff=  -0.0000000  -0.0000000  -0.0000000  -0.0000000  -0.0000000  -0.0000000  -0.0000000  -0.0000000  -0.0000000  -0.0000000
 NQMom=    0.0000000   0.0000000   0.0000000   0.0000000   0.0000000   0.0000000   0.0000000   0.0000000   0.0000000   0.0000000
 NMagM=    0.0000000   0.0000000   0.0000000   0.0000000   0.0000000   0.0000000   0.0000000   0.0000000   0.0000000   0.0000000
 AtZNuc=   6.0000000   6.0000000   6.0000000   6.0000000   6.0000000   6.0000000   6.0000000   6.0000000   6.0000000   6.0000000

  Atom        51          52          53          54          55          56          57          58          59          60
 IAtWgt=          12          12          12          12          12          12          12          12          12          12
 AtmWgt=  12.0000000  12.0000000  12.0000000  12.0000000  12.0000000  12.0000000  12.0000000  12.0000000  12.0000000  12.0000000
 NucSpn=           0           0           0           0           0           0           0           0           0           0
 AtZEff=  -0.0000000  -0.0000000  -0.0000000  -0.0000000  -0.0000000  -0.0000000  -0.0000000  -0.0000000  -0.0000000  -0.0000000
 NQMom=    0.0000000   0.0000000   0.0000000   0.0000000   0.0000000   0.0000000   0.0000000   0.0000000   0.0000000   0.0000000
 NMagM=    0.0000000   0.0000000   0.0000000   0.0000000   0.0000000   0.0000000   0.0000000   0.0000000   0.0000000   0.0000000
 AtZNuc=   6.0000000   6.0000000   6.0000000   6.0000000   6.0000000   6.0000000   6.0000000   6.0000000   6.0000000   6.0000000

  Atom        61          62          63          64          65          66          67          68          69          70
 IAtWgt=          12          12          12          12          12          12          12          12          12          12
 AtmWgt=  12.0000000  12.0000000  12.0000000  12.0000000  12.0000000  12.0000000  12.0000000  12.0000000  12.0000000  12.0000000
 NucSpn=           0           0           0           0           0           0           0           0           0           0
 AtZEff=  -0.0000000  -0.0000000  -0.0000000  -0.0000000  -0.0000000  -0.0000000  -0.0000000  -0.0000000  -0.0000000  -0.0000000
 NQMom=    0.0000000   0.0000000   0.0000000   0.0000000   0.0000000   0.0000000   0.0000000   0.0000000   0.0000000   0.0000000
 NMagM=    0.0000000   0.0000000   0.0000000   0.0000000   0.0000000   0.0000000   0.0000000   0.0000000   0.0000000   0.0000000
 AtZNuc=   6.0000000   6.0000000   6.0000000   6.0000000   6.0000000   6.0000000   6.0000000   6.0000000   6.0000000   6.0000000

  Atom        71          72          73          74          75          76          77          78          79          80
 IAtWgt=          12          12          12          12          12          12          12          12          12          12
 AtmWgt=  12.0000000  12.0000000  12.0000000  12.0000000  12.0000000  12.0000000  12.0000000  12.0000000  12.0000000  12.0000000
 NucSpn=           0           0           0           0           0           0           0           0           0           0
 AtZEff=  -0.0000000  -0.0000000  -0.0000000  -0.0000000  -0.0000000  -0.0000000  -0.0000000  -0.0000000  -0.0000000  -0.0000000
 NQMom=    0.0000000   0.0000000   0.0000000   0.0000000   0.0000000   0.0000000   0.0000000   0.0000000   0.0000000   0.0000000
 NMagM=    0.0000000   0.0000000   0.0000000   0.0000000   0.0000000   0.0000000   0.0000000   0.0000000   0.0000000   0.0000000
 AtZNuc=   6.0000000   6.0000000   6.0000000   6.0000000   6.0000000   6.0000000   6.0000000   6.0000000   6.0000000   6.0000000

  Atom        81          82          83          84          85          86
 IAtWgt=          12          12          12          12          35          35
 AtmWgt=  12.0000000  12.0000000  12.0000000  12.0000000  34.9688527  34.9688527
 NucSpn=           0           0           0           0           3           3
 AtZEff=  -0.0000000  -0.0000000  -0.0000000  -0.0000000  -0.0000000  -0.0000000
 NQMom=    0.0000000   0.0000000   0.0000000   0.0000000  -8.1650000  -8.1650000
 NMagM=    0.0000000   0.0000000   0.0000000   0.0000000   0.8218740   0.8218740
 AtZNuc=   6.0000000   6.0000000   6.0000000   6.0000000  17.0000000  17.0000000
 Leave Link  101 at Mon Jun 27 03:28:40 2022, MaxMem=  1342177280 cpu:               6.5 elap:               0.3
 (Enter /home/mkliu/g16/l103.exe)

 GradGradGradGradGradGradGradGradGradGradGradGradGradGradGradGradGradGrad
 Berny optimization.
 Initialization pass.
                           ----------------------------
                           !    Initial Parameters    !
                           ! (Angstroms and Degrees)  !
 --------------------------                            --------------------------
 ! Name  Definition              Value          Derivative Info.                !
 --------------------------------------------------------------------------------
 ! R1    R(1,5)                  1.4067         estimate D2E/DX2                !
 ! R2    R(1,17)                 1.4244         estimate D2E/DX2                !
 ! R3    R(1,23)                 1.439          estimate D2E/DX2                !
 ! R4    R(2,6)                  1.5101         estimate D2E/DX2                !
 ! R5    R(2,43)                 1.5206         estimate D2E/DX2                !
 ! R6    R(2,44)                 1.4958         estimate D2E/DX2                !
 ! R7    R(2,86)                 1.8208         estimate D2E/DX2                !
 ! R8    R(3,7)                  1.4238         estimate D2E/DX2                !
 ! R9    R(3,18)                 1.4111         estimate D2E/DX2                !
 ! R10   R(3,26)                 1.436          estimate D2E/DX2                !
 ! R11   R(4,8)                  1.4292         estimate D2E/DX2                !
 ! R12   R(4,45)                 1.41           estimate D2E/DX2                !
 ! R13   R(4,46)                 1.4231         estimate D2E/DX2                !
 ! R14   R(5,9)                  1.4479         estimate D2E/DX2                !
 ! R15   R(5,29)                 1.4439         estimate D2E/DX2                !
 ! R16   R(6,10)                 1.3692         estimate D2E/DX2                !
 ! R17   R(6,15)                 1.425          estimate D2E/DX2                !
 ! R18   R(7,12)                 1.4093         estimate D2E/DX2                !
 ! R19   R(7,30)                 1.4372         estimate D2E/DX2                !
 ! R20   R(8,11)                 1.3999         estimate D2E/DX2                !
 ! R21   R(8,16)                 1.4334         estimate D2E/DX2                !
 ! R22   R(9,13)                 1.4109         estimate D2E/DX2                !
 ! R23   R(9,35)                 1.4401         estimate D2E/DX2                !
 ! R24   R(10,49)                1.5067         estimate D2E/DX2                !
 ! R25   R(10,51)                1.4489         estimate D2E/DX2                !
 ! R26   R(11,50)                1.4266         estimate D2E/DX2                !
 ! R27   R(11,52)                1.4482         estimate D2E/DX2                !
 ! R28   R(12,14)                1.4063         estimate D2E/DX2                !
 ! R29   R(12,36)                1.4524         estimate D2E/DX2                !
 ! R30   R(13,15)                1.4288         estimate D2E/DX2                !
 ! R31   R(13,43)                1.41           estimate D2E/DX2                !
 ! R32   R(14,16)                1.4176         estimate D2E/DX2                !
 ! R33   R(14,46)                1.4357         estimate D2E/DX2                !
 ! R34   R(15,17)                1.3724         estimate D2E/DX2                !
 ! R35   R(16,18)                1.4081         estimate D2E/DX2                !
 ! R36   R(17,19)                1.4312         estimate D2E/DX2                !
 ! R37   R(18,20)                1.4476         estimate D2E/DX2                !
 ! R38   R(19,21)                1.4277         estimate D2E/DX2                !
 ! R39   R(19,51)                1.4061         estimate D2E/DX2                !
 ! R40   R(20,22)                1.4082         estimate D2E/DX2                !
 ! R41   R(20,52)                1.449          estimate D2E/DX2                !
 ! R42   R(21,23)                1.4385         estimate D2E/DX2                !
 ! R43   R(21,57)                1.4065         estimate D2E/DX2                !
 ! R44   R(22,24)                1.4373         estimate D2E/DX2                !
 ! R45   R(22,58)                1.423          estimate D2E/DX2                !
 ! R46   R(23,25)                1.3724         estimate D2E/DX2                !
 ! R47   R(24,26)                1.3654         estimate D2E/DX2                !
 ! R48   R(24,62)                1.4391         estimate D2E/DX2                !
 ! R49   R(25,27)                1.4271         estimate D2E/DX2                !
 ! R50   R(25,61)                1.4365         estimate D2E/DX2                !
 ! R51   R(26,28)                1.4389         estimate D2E/DX2                !
 ! R52   R(27,29)                1.4137         estimate D2E/DX2                !
 ! R53   R(27,65)                1.4224         estimate D2E/DX2                !
 ! R54   R(28,30)                1.4221         estimate D2E/DX2                !
 ! R55   R(28,66)                1.4062         estimate D2E/DX2                !
 ! R56   R(29,31)                1.3992         estimate D2E/DX2                !
 ! R57   R(30,32)                1.3709         estimate D2E/DX2                !
 ! R58   R(31,33)                1.4345         estimate D2E/DX2                !
 ! R59   R(31,69)                1.4283         estimate D2E/DX2                !
 ! R60   R(32,34)                1.4397         estimate D2E/DX2                !
 ! R61   R(32,70)                1.4296         estimate D2E/DX2                !
 ! R62   R(33,35)                1.4104         estimate D2E/DX2                !
 ! R63   R(33,73)                1.4258         estimate D2E/DX2                !
 ! R64   R(34,36)                1.4073         estimate D2E/DX2                !
 ! R65   R(34,74)                1.428          estimate D2E/DX2                !
 ! R66   R(35,37)                1.4458         estimate D2E/DX2                !
 ! R67   R(36,38)                1.4501         estimate D2E/DX2                !
 ! R68   R(37,39)                1.4507         estimate D2E/DX2                !
 ! R69   R(37,77)                1.4114         estimate D2E/DX2                !
 ! R70   R(38,42)                1.4566         estimate D2E/DX2                !
 ! R71   R(38,78)                1.4072         estimate D2E/DX2                !
 ! R72   R(39,43)                1.3883         estimate D2E/DX2                !
 ! R73   R(39,79)                1.4273         estimate D2E/DX2                !
 ! R74   R(40,41)                1.4378         estimate D2E/DX2                !
 ! R75   R(40,44)                1.4102         estimate D2E/DX2                !
 ! R76   R(40,79)                1.415          estimate D2E/DX2                !
 ! R77   R(41,45)                1.4057         estimate D2E/DX2                !
 ! R78   R(41,80)                1.4193         estimate D2E/DX2                !
 ! R79   R(42,46)                1.405          estimate D2E/DX2                !
 ! R80   R(42,80)                1.4163         estimate D2E/DX2                !
 ! R81   R(44,47)                1.3737         estimate D2E/DX2                !
 ! R82   R(45,48)                1.4108         estimate D2E/DX2                !
 ! R83   R(47,48)                1.4266         estimate D2E/DX2                !
 ! R84   R(47,49)                1.5098         estimate D2E/DX2                !
 ! R85   R(48,50)                1.4209         estimate D2E/DX2                !
 ! R86   R(49,56)                1.504          estimate D2E/DX2                !
 ! R87   R(49,85)                1.8168         estimate D2E/DX2                !
 ! R88   R(50,56)                1.4156         estimate D2E/DX2                !
 ! R89   R(51,53)                1.4165         estimate D2E/DX2                !
 ! R90   R(52,54)                1.4053         estimate D2E/DX2                !
 ! R91   R(53,55)                1.4466         estimate D2E/DX2                !
 ! R92   R(53,83)                1.4112         estimate D2E/DX2                !
 ! R93   R(54,55)                1.4384         estimate D2E/DX2                !
 ! R94   R(54,84)                1.4269         estimate D2E/DX2                !
 ! R95   R(55,56)                1.3611         estimate D2E/DX2                !
 ! R96   R(57,59)                1.452          estimate D2E/DX2                !
 ! R97   R(57,83)                1.4199         estimate D2E/DX2                !
 ! R98   R(58,60)                1.4453         estimate D2E/DX2                !
 ! R99   R(58,84)                1.3722         estimate D2E/DX2                !
 ! R100  R(59,60)                1.4102         estimate D2E/DX2                !
 ! R101  R(59,61)                1.4117         estimate D2E/DX2                !
 ! R102  R(60,62)                1.4179         estimate D2E/DX2                !
 ! R103  R(61,63)                1.4203         estimate D2E/DX2                !
 ! R104  R(62,64)                1.4172         estimate D2E/DX2                !
 ! R105  R(63,64)                1.4059         estimate D2E/DX2                !
 ! R106  R(63,65)                1.4389         estimate D2E/DX2                !
 ! R107  R(64,66)                1.4497         estimate D2E/DX2                !
 ! R108  R(65,67)                1.4039         estimate D2E/DX2                !
 ! R109  R(66,68)                1.4499         estimate D2E/DX2                !
 ! R110  R(67,68)                1.4491         estimate D2E/DX2                !
 ! R111  R(67,69)                1.4154         estimate D2E/DX2                !
 ! R112  R(68,70)                1.4095         estimate D2E/DX2                !
 ! R113  R(69,71)                1.4282         estimate D2E/DX2                !
 ! R114  R(70,72)                1.4372         estimate D2E/DX2                !
 ! R115  R(71,72)                1.3778         estimate D2E/DX2                !
 ! R116  R(71,73)                1.4398         estimate D2E/DX2                !
 ! R117  R(72,74)                1.4436         estimate D2E/DX2                !
 ! R118  R(73,75)                1.3801         estimate D2E/DX2                !
 ! R119  R(74,76)                1.3792         estimate D2E/DX2                !
 ! R120  R(75,76)                1.448          estimate D2E/DX2                !
 ! R121  R(75,77)                1.4203         estimate D2E/DX2                !
 ! R122  R(76,78)                1.424          estimate D2E/DX2                !
 ! R123  R(77,81)                1.4394         estimate D2E/DX2                !
 ! R124  R(78,81)                1.4451         estimate D2E/DX2                !
 ! R125  R(79,82)                1.4308         estimate D2E/DX2                !
 ! R126  R(80,82)                1.432          estimate D2E/DX2                !
 ! R127  R(81,82)                1.3652         estimate D2E/DX2                !
 ! R128  R(83,84)                1.4407         estimate D2E/DX2                !
 ! A1    A(5,1,17)             121.6989         estimate D2E/DX2                !
 ! A2    A(5,1,23)             122.156          estimate D2E/DX2                !
 ! A3    A(17,1,23)            105.6907         estimate D2E/DX2                !
 ! A4    A(6,2,43)             101.7452         estimate D2E/DX2                !
 ! A5    A(6,2,44)             111.2156         estimate D2E/DX2                !
 ! A6    A(6,2,86)             110.6676         estimate D2E/DX2                !
 ! A7    A(43,2,44)            112.201          estimate D2E/DX2                !
 ! A8    A(43,2,86)            110.2635         estimate D2E/DX2                !
 ! A9    A(44,2,86)            110.4704         estimate D2E/DX2                !
 ! A10   A(7,3,18)             122.1329         estimate D2E/DX2                !
 ! A11   A(7,3,26)             107.1706         estimate D2E/DX2                !
 ! A12   A(18,3,26)            120.4148         estimate D2E/DX2                !
 ! A13   A(8,4,45)             120.7989         estimate D2E/DX2                !
 ! A14   A(8,4,46)             108.1561         estimate D2E/DX2                !
 ! A15   A(45,4,46)            121.0491         estimate D2E/DX2                !
 ! A16   A(1,5,9)              118.7506         estimate D2E/DX2                !
 ! A17   A(1,5,29)             116.447          estimate D2E/DX2                !
 ! A18   A(9,5,29)             119.3838         estimate D2E/DX2                !
 ! A19   A(2,6,10)             126.378          estimate D2E/DX2                !
 ! A20   A(2,6,15)             107.5046         estimate D2E/DX2                !
 ! A21   A(10,6,15)            120.5112         estimate D2E/DX2                !
 ! A22   A(3,7,12)             122.3811         estimate D2E/DX2                !
 ! A23   A(3,7,30)             107.2731         estimate D2E/DX2                !
 ! A24   A(12,7,30)            120.0943         estimate D2E/DX2                !
 ! A25   A(4,8,11)             122.3135         estimate D2E/DX2                !
 ! A26   A(4,8,16)             107.8081         estimate D2E/DX2                !
 ! A27   A(11,8,16)            121.2613         estimate D2E/DX2                !
 ! A28   A(5,9,13)             118.0444         estimate D2E/DX2                !
 ! A29   A(5,9,35)             121.2545         estimate D2E/DX2                !
 ! A30   A(13,9,35)            116.5179         estimate D2E/DX2                !
 ! A31   A(6,10,49)            118.0195         estimate D2E/DX2                !
 ! A32   A(6,10,51)            119.4811         estimate D2E/DX2                !
 ! A33   A(49,10,51)           119.9999         estimate D2E/DX2                !
 ! A34   A(8,11,50)            116.07           estimate D2E/DX2                !
 ! A35   A(8,11,52)            118.9241         estimate D2E/DX2                !
 ! A36   A(50,11,52)           119.3792         estimate D2E/DX2                !
 ! A37   A(7,12,14)            114.6219         estimate D2E/DX2                !
 ! A38   A(7,12,36)            120.6762         estimate D2E/DX2                !
 ! A39   A(14,12,36)           119.0411         estimate D2E/DX2                !
 ! A40   A(9,13,15)            121.7867         estimate D2E/DX2                !
 ! A41   A(9,13,43)            123.3237         estimate D2E/DX2                !
 ! A42   A(15,13,43)           107.6512         estimate D2E/DX2                !
 ! A43   A(12,14,16)           122.4964         estimate D2E/DX2                !
 ! A44   A(12,14,46)           121.2978         estimate D2E/DX2                !
 ! A45   A(16,14,46)           108.2401         estimate D2E/DX2                !
 ! A46   A(6,15,13)            110.0794         estimate D2E/DX2                !
 ! A47   A(6,15,17)            120.9463         estimate D2E/DX2                !
 ! A48   A(13,15,17)           119.7483         estimate D2E/DX2                !
 ! A49   A(8,16,14)            107.9968         estimate D2E/DX2                !
 ! A50   A(8,16,18)            121.2517         estimate D2E/DX2                !
 ! A51   A(14,16,18)           122.4705         estimate D2E/DX2                !
 ! A52   A(1,17,15)            119.727          estimate D2E/DX2                !
 ! A53   A(1,17,19)            110.0709         estimate D2E/DX2                !
 ! A54   A(15,17,19)           119.501          estimate D2E/DX2                !
 ! A55   A(3,18,16)            114.6499         estimate D2E/DX2                !
 ! A56   A(3,18,20)            120.5896         estimate D2E/DX2                !
 ! A57   A(16,18,20)           118.7862         estimate D2E/DX2                !
 ! A58   A(17,19,21)           107.2567         estimate D2E/DX2                !
 ! A59   A(17,19,51)           119.8638         estimate D2E/DX2                !
 ! A60   A(21,19,51)           122.9026         estimate D2E/DX2                !
 ! A61   A(18,20,22)           116.8164         estimate D2E/DX2                !
 ! A62   A(18,20,52)           119.7642         estimate D2E/DX2                !
 ! A63   A(22,20,52)           117.9171         estimate D2E/DX2                !
 ! A64   A(19,21,23)           107.3875         estimate D2E/DX2                !
 ! A65   A(19,21,57)           121.6671         estimate D2E/DX2                !
 ! A66   A(23,21,57)           120.7668         estimate D2E/DX2                !
 ! A67   A(20,22,24)           121.6254         estimate D2E/DX2                !
 ! A68   A(20,22,58)           122.1195         estimate D2E/DX2                !
 ! A69   A(24,22,58)           105.4708         estimate D2E/DX2                !
 ! A70   A(1,23,21)            109.1932         estimate D2E/DX2                !
 ! A71   A(1,23,25)            120.0763         estimate D2E/DX2                !
 ! A72   A(21,23,25)           120.0879         estimate D2E/DX2                !
 ! A73   A(22,24,26)           120.6328         estimate D2E/DX2                !
 ! A74   A(22,24,62)           109.7496         estimate D2E/DX2                !
 ! A75   A(26,24,62)           119.2053         estimate D2E/DX2                !
 ! A76   A(23,25,27)           119.3077         estimate D2E/DX2                !
 ! A77   A(23,25,61)           120.4203         estimate D2E/DX2                !
 ! A78   A(27,25,61)           109.1784         estimate D2E/DX2                !
 ! A79   A(3,26,24)            119.3605         estimate D2E/DX2                !
 ! A80   A(3,26,28)            109.5785         estimate D2E/DX2                !
 ! A81   A(24,26,28)           120.5405         estimate D2E/DX2                !
 ! A82   A(25,27,29)           120.8761         estimate D2E/DX2                !
 ! A83   A(25,27,65)           107.0816         estimate D2E/DX2                !
 ! A84   A(29,27,65)           121.3887         estimate D2E/DX2                !
 ! A85   A(26,28,30)           105.3067         estimate D2E/DX2                !
 ! A86   A(26,28,66)           121.9965         estimate D2E/DX2                !
 ! A87   A(30,28,66)           121.8904         estimate D2E/DX2                !
 ! A88   A(5,29,27)            120.4309         estimate D2E/DX2                !
 ! A89   A(5,29,31)            118.4334         estimate D2E/DX2                !
 ! A90   A(27,29,31)           115.3795         estimate D2E/DX2                !
 ! A91   A(7,30,28)            109.9424         estimate D2E/DX2                !
 ! A92   A(7,30,32)            119.7047         estimate D2E/DX2                !
 ! A93   A(28,30,32)           120.0471         estimate D2E/DX2                !
 ! A94   A(29,31,33)           121.4338         estimate D2E/DX2                !
 ! A95   A(29,31,69)           121.9722         estimate D2E/DX2                !
 ! A96   A(33,31,69)           108.9239         estimate D2E/DX2                !
 ! A97   A(30,32,34)           120.3692         estimate D2E/DX2                !
 ! A98   A(30,32,70)           119.1829         estimate D2E/DX2                !
 ! A99   A(34,32,70)           110.0829         estimate D2E/DX2                !
 ! A100  A(31,33,35)           121.3919         estimate D2E/DX2                !
 ! A101  A(31,33,73)           107.1257         estimate D2E/DX2                !
 ! A102  A(35,33,73)           122.3561         estimate D2E/DX2                !
 ! A103  A(32,34,36)           121.419          estimate D2E/DX2                !
 ! A104  A(32,34,74)           105.9432         estimate D2E/DX2                !
 ! A105  A(36,34,74)           122.4094         estimate D2E/DX2                !
 ! A106  A(9,35,33)            117.0141         estimate D2E/DX2                !
 ! A107  A(9,35,37)            120.3768         estimate D2E/DX2                !
 ! A108  A(33,35,37)           118.2422         estimate D2E/DX2                !
 ! A109  A(12,36,34)           116.9648         estimate D2E/DX2                !
 ! A110  A(12,36,38)           119.6261         estimate D2E/DX2                !
 ! A111  A(34,36,38)           118.2554         estimate D2E/DX2                !
 ! A112  A(35,37,39)           119.9027         estimate D2E/DX2                !
 ! A113  A(35,37,77)           118.0753         estimate D2E/DX2                !
 ! A114  A(39,37,77)           117.1327         estimate D2E/DX2                !
 ! A115  A(36,38,42)           119.9262         estimate D2E/DX2                !
 ! A116  A(36,38,78)           117.9323         estimate D2E/DX2                !
 ! A117  A(42,38,78)           117.2007         estimate D2E/DX2                !
 ! A118  A(37,39,43)           118.3972         estimate D2E/DX2                !
 ! A119  A(37,39,79)           119.9432         estimate D2E/DX2                !
 ! A120  A(43,39,79)           116.3839         estimate D2E/DX2                !
 ! A121  A(41,40,44)           120.8859         estimate D2E/DX2                !
 ! A122  A(41,40,79)           108.1996         estimate D2E/DX2                !
 ! A123  A(44,40,79)           122.6526         estimate D2E/DX2                !
 ! A124  A(40,41,45)           120.0226         estimate D2E/DX2                !
 ! A125  A(40,41,80)           109.1064         estimate D2E/DX2                !
 ! A126  A(45,41,80)           121.2775         estimate D2E/DX2                !
 ! A127  A(38,42,46)           118.8235         estimate D2E/DX2                !
 ! A128  A(38,42,80)           119.7632         estimate D2E/DX2                !
 ! A129  A(46,42,80)           115.6233         estimate D2E/DX2                !
 ! A130  A(2,43,13)            110.022          estimate D2E/DX2                !
 ! A131  A(2,43,39)            124.2185         estimate D2E/DX2                !
 ! A132  A(13,43,39)           120.8613         estimate D2E/DX2                !
 ! A133  A(2,44,40)            117.5716         estimate D2E/DX2                !
 ! A134  A(2,44,47)            120.1766         estimate D2E/DX2                !
 ! A135  A(40,44,47)           118.7466         estimate D2E/DX2                !
 ! A136  A(4,45,41)            117.0412         estimate D2E/DX2                !
 ! A137  A(4,45,48)            117.4988         estimate D2E/DX2                !
 ! A138  A(41,45,48)           117.7607         estimate D2E/DX2                !
 ! A139  A(4,46,14)            107.7319         estimate D2E/DX2                !
 ! A140  A(4,46,42)            122.3644         estimate D2E/DX2                !
 ! A141  A(14,46,42)           121.2122         estimate D2E/DX2                !
 ! A142  A(44,47,48)           120.7259         estimate D2E/DX2                !
 ! A143  A(44,47,49)           124.4265         estimate D2E/DX2                !
 ! A144  A(48,47,49)           109.3054         estimate D2E/DX2                !
 ! A145  A(45,48,47)           121.433          estimate D2E/DX2                !
 ! A146  A(45,48,50)           121.0748         estimate D2E/DX2                !
 ! A147  A(47,48,50)           109.375          estimate D2E/DX2                !
 ! A148  A(10,49,47)           111.6738         estimate D2E/DX2                !
 ! A149  A(10,49,56)           112.0348         estimate D2E/DX2                !
 ! A150  A(10,49,85)           109.5162         estimate D2E/DX2                !
 ! A151  A(47,49,56)           101.0732         estimate D2E/DX2                !
 ! A152  A(47,49,85)           110.9314         estimate D2E/DX2                !
 ! A153  A(56,49,85)           111.416          estimate D2E/DX2                !
 ! A154  A(11,50,48)           121.6385         estimate D2E/DX2                !
 ! A155  A(11,50,56)           121.9177         estimate D2E/DX2                !
 ! A156  A(48,50,56)           107.6972         estimate D2E/DX2                !
 ! A157  A(10,51,19)           119.3129         estimate D2E/DX2                !
 ! A158  A(10,51,53)           120.1546         estimate D2E/DX2                !
 ! A159  A(19,51,53)           114.7949         estimate D2E/DX2                !
 ! A160  A(11,52,20)           119.9558         estimate D2E/DX2                !
 ! A161  A(11,52,54)           116.4828         estimate D2E/DX2                !
 ! A162  A(20,52,54)           118.3153         estimate D2E/DX2                !
 ! A163  A(51,53,55)           119.7028         estimate D2E/DX2                !
 ! A164  A(51,53,83)           121.9253         estimate D2E/DX2                !
 ! A165  A(55,53,83)           107.7654         estimate D2E/DX2                !
 ! A166  A(52,54,55)           122.4982         estimate D2E/DX2                !
 ! A167  A(52,54,84)           122.0297         estimate D2E/DX2                !
 ! A168  A(55,54,84)           105.8167         estimate D2E/DX2                !
 ! A169  A(53,55,54)           108.7619         estimate D2E/DX2                !
 ! A170  A(53,55,56)           120.807          estimate D2E/DX2                !
 ! A171  A(54,55,56)           120.4254         estimate D2E/DX2                !
 ! A172  A(49,56,50)           111.3039         estimate D2E/DX2                !
 ! A173  A(49,56,55)           122.8338         estimate D2E/DX2                !
 ! A174  A(50,56,55)           118.9559         estimate D2E/DX2                !
 ! A175  A(21,57,59)           119.0867         estimate D2E/DX2                !
 ! A176  A(21,57,83)           114.9161         estimate D2E/DX2                !
 ! A177  A(59,57,83)           119.1013         estimate D2E/DX2                !
 ! A178  A(22,58,60)           109.5769         estimate D2E/DX2                !
 ! A179  A(22,58,84)           119.6125         estimate D2E/DX2                !
 ! A180  A(60,58,84)           120.2676         estimate D2E/DX2                !
 ! A181  A(57,59,60)           119.3766         estimate D2E/DX2                !
 ! A182  A(57,59,61)           119.047          estimate D2E/DX2                !
 ! A183  A(60,59,61)           114.6982         estimate D2E/DX2                !
 ! A184  A(58,60,59)           120.3996         estimate D2E/DX2                !
 ! A185  A(58,60,62)           107.601          estimate D2E/DX2                !
 ! A186  A(59,60,62)           122.3867         estimate D2E/DX2                !
 ! A187  A(25,61,59)           120.5334         estimate D2E/DX2                !
 ! A188  A(25,61,63)           106.9248         estimate D2E/DX2                !
 ! A189  A(59,61,63)           122.4782         estimate D2E/DX2                !
 ! A190  A(24,62,60)           107.0183         estimate D2E/DX2                !
 ! A191  A(24,62,64)           120.5255         estimate D2E/DX2                !
 ! A192  A(60,62,64)           122.3202         estimate D2E/DX2                !
 ! A193  A(61,63,64)           122.3492         estimate D2E/DX2                !
 ! A194  A(61,63,65)           108.3604         estimate D2E/DX2                !
 ! A195  A(64,63,65)           120.5441         estimate D2E/DX2                !
 ! A196  A(62,64,63)           114.8031         estimate D2E/DX2                !
 ! A197  A(62,64,66)           120.3889         estimate D2E/DX2                !
 ! A198  A(63,64,66)           118.918          estimate D2E/DX2                !
 ! A199  A(27,65,63)           108.3306         estimate D2E/DX2                !
 ! A200  A(27,65,67)           122.1463         estimate D2E/DX2                !
 ! A201  A(63,65,67)           121.7477         estimate D2E/DX2                !
 ! A202  A(28,66,64)           116.6772         estimate D2E/DX2                !
 ! A203  A(28,66,68)           117.7961         estimate D2E/DX2                !
 ! A204  A(64,66,68)           120.3961         estimate D2E/DX2                !
 ! A205  A(65,67,68)           118.9682         estimate D2E/DX2                !
 ! A206  A(65,67,69)           115.0401         estimate D2E/DX2                !
 ! A207  A(68,67,69)           120.1995         estimate D2E/DX2                !
 ! A208  A(66,68,67)           119.286          estimate D2E/DX2                !
 ! A209  A(66,68,70)           118.5783         estimate D2E/DX2                !
 ! A210  A(67,68,70)           116.7128         estimate D2E/DX2                !
 ! A211  A(31,69,67)           121.2842         estimate D2E/DX2                !
 ! A212  A(31,69,71)           107.2875         estimate D2E/DX2                !
 ! A213  A(67,69,71)           121.1707         estimate D2E/DX2                !
 ! A214  A(32,70,68)           121.459          estimate D2E/DX2                !
 ! A215  A(32,70,72)           106.1231         estimate D2E/DX2                !
 ! A216  A(68,70,72)           122.3938         estimate D2E/DX2                !
 ! A217  A(69,71,72)           119.2012         estimate D2E/DX2                !
 ! A218  A(69,71,73)           108.1329         estimate D2E/DX2                !
 ! A219  A(72,71,73)           120.3229         estimate D2E/DX2                !
 ! A220  A(70,72,71)           120.1646         estimate D2E/DX2                !
 ! A221  A(70,72,74)           108.2644         estimate D2E/DX2                !
 ! A222  A(71,72,74)           119.5793         estimate D2E/DX2                !
 ! A223  A(33,73,71)           108.1833         estimate D2E/DX2                !
 ! A224  A(33,73,75)           119.2385         estimate D2E/DX2                !
 ! A225  A(71,73,75)           120.2162         estimate D2E/DX2                !
 ! A226  A(34,74,72)           108.6859         estimate D2E/DX2                !
 ! A227  A(34,74,76)           119.0935         estimate D2E/DX2                !
 ! A228  A(72,74,76)           120.3426         estimate D2E/DX2                !
 ! A229  A(73,75,76)           119.6095         estimate D2E/DX2                !
 ! A230  A(73,75,77)           119.5544         estimate D2E/DX2                !
 ! A231  A(76,75,77)           108.7848         estimate D2E/DX2                !
 ! A232  A(74,76,75)           119.8955         estimate D2E/DX2                !
 ! A233  A(74,76,78)           119.5351         estimate D2E/DX2                !
 ! A234  A(75,76,78)           108.4909         estimate D2E/DX2                !
 ! A235  A(37,77,75)           122.4343         estimate D2E/DX2                !
 ! A236  A(37,77,81)           120.8878         estimate D2E/DX2                !
 ! A237  A(75,77,81)           106.1265         estimate D2E/DX2                !
 ! A238  A(38,78,76)           122.5187         estimate D2E/DX2                !
 ! A239  A(38,78,81)           121.1412         estimate D2E/DX2                !
 ! A240  A(76,78,81)           105.9322         estimate D2E/DX2                !
 ! A241  A(39,79,40)           121.0362         estimate D2E/DX2                !
 ! A242  A(39,79,82)           119.8993         estimate D2E/DX2                !
 ! A243  A(40,79,82)           106.6228         estimate D2E/DX2                !
 ! A244  A(41,80,42)           122.0198         estimate D2E/DX2                !
 ! A245  A(41,80,82)           105.8403         estimate D2E/DX2                !
 ! A246  A(42,80,82)           120.6742         estimate D2E/DX2                !
 ! A247  A(77,81,78)           109.5974         estimate D2E/DX2                !
 ! A248  A(77,81,82)           120.4883         estimate D2E/DX2                !
 ! A249  A(78,81,82)           120.3663         estimate D2E/DX2                !
 ! A250  A(79,82,80)           109.9443         estimate D2E/DX2                !
 ! A251  A(79,82,81)           120.0096         estimate D2E/DX2                !
 ! A252  A(80,82,81)           119.6261         estimate D2E/DX2                !
 ! A253  A(53,83,57)           122.8122         estimate D2E/DX2                !
 ! A254  A(53,83,84)           107.4872         estimate D2E/DX2                !
 ! A255  A(57,83,84)           120.1868         estimate D2E/DX2                !
 ! A256  A(54,84,58)           119.3558         estimate D2E/DX2                !
 ! A257  A(54,84,83)           109.5472         estimate D2E/DX2                !
 ! A258  A(58,84,83)           120.6081         estimate D2E/DX2                !
 ! D1    D(17,1,5,9)             4.0885         estimate D2E/DX2                !
 ! D2    D(17,1,5,29)         -149.8042         estimate D2E/DX2                !
 ! D3    D(23,1,5,9)           143.8808         estimate D2E/DX2                !
 ! D4    D(23,1,5,29)          -10.0118         estimate D2E/DX2                !
 ! D5    D(5,1,17,15)           -5.0478         estimate D2E/DX2                !
 ! D6    D(5,1,17,19)          139.2798         estimate D2E/DX2                !
 ! D7    D(23,1,17,15)        -150.4587         estimate D2E/DX2                !
 ! D8    D(23,1,17,19)          -6.1311         estimate D2E/DX2                !
 ! D9    D(5,1,23,21)         -138.9361         estimate D2E/DX2                !
 ! D10   D(5,1,23,25)            5.6536         estimate D2E/DX2                !
 ! D11   D(17,1,23,21)           6.2777         estimate D2E/DX2                !
 ! D12   D(17,1,23,25)         150.8674         estimate D2E/DX2                !
 ! D13   D(43,2,6,10)         -136.1793         estimate D2E/DX2                !
 ! D14   D(43,2,6,15)           17.144          estimate D2E/DX2                !
 ! D15   D(44,2,6,10)          -16.529          estimate D2E/DX2                !
 ! D16   D(44,2,6,15)          136.7942         estimate D2E/DX2                !
 ! D17   D(86,2,6,10)          106.6588         estimate D2E/DX2                !
 ! D18   D(86,2,6,15)         -100.0179         estimate D2E/DX2                !
 ! D19   D(6,2,43,13)          -13.4197         estimate D2E/DX2                !
 ! D20   D(6,2,43,39)          141.8204         estimate D2E/DX2                !
 ! D21   D(44,2,43,13)        -132.371          estimate D2E/DX2                !
 ! D22   D(44,2,43,39)          22.8691         estimate D2E/DX2                !
 ! D23   D(86,2,43,13)         104.0342         estimate D2E/DX2                !
 ! D24   D(86,2,43,39)        -100.7256         estimate D2E/DX2                !
 ! D25   D(6,2,44,40)         -138.4098         estimate D2E/DX2                !
 ! D26   D(6,2,44,47)           20.2166         estimate D2E/DX2                !
 ! D27   D(43,2,44,40)         -25.1895         estimate D2E/DX2                !
 ! D28   D(43,2,44,47)         133.4369         estimate D2E/DX2                !
 ! D29   D(86,2,44,40)          98.2894         estimate D2E/DX2                !
 ! D30   D(86,2,44,47)        -103.0842         estimate D2E/DX2                !
 ! D31   D(18,3,7,12)            0.4717         estimate D2E/DX2                !
 ! D32   D(18,3,7,30)          145.4548         estimate D2E/DX2                !
 ! D33   D(26,3,7,12)         -144.5931         estimate D2E/DX2                !
 ! D34   D(26,3,7,30)            0.39           estimate D2E/DX2                !
 ! D35   D(7,3,18,16)            8.5748         estimate D2E/DX2                !
 ! D36   D(7,3,18,20)         -143.8928         estimate D2E/DX2                !
 ! D37   D(26,3,18,16)         149.1967         estimate D2E/DX2                !
 ! D38   D(26,3,18,20)          -3.2709         estimate D2E/DX2                !
 ! D39   D(7,3,26,24)          149.9065         estimate D2E/DX2                !
 ! D40   D(7,3,26,28)            4.9319         estimate D2E/DX2                !
 ! D41   D(18,3,26,24)           4.1223         estimate D2E/DX2                !
 ! D42   D(18,3,26,28)        -140.8522         estimate D2E/DX2                !
 ! D43   D(45,4,8,11)           -0.4551         estimate D2E/DX2                !
 ! D44   D(45,4,8,16)         -148.4615         estimate D2E/DX2                !
 ! D45   D(46,4,8,11)          145.3771         estimate D2E/DX2                !
 ! D46   D(46,4,8,16)           -2.6293         estimate D2E/DX2                !
 ! D47   D(8,4,45,41)          145.0945         estimate D2E/DX2                !
 ! D48   D(8,4,45,48)           -3.6936         estimate D2E/DX2                !
 ! D49   D(46,4,45,41)           3.6229         estimate D2E/DX2                !
 ! D50   D(46,4,45,48)        -145.1652         estimate D2E/DX2                !
 ! D51   D(8,4,46,14)            2.4531         estimate D2E/DX2                !
 ! D52   D(8,4,46,42)         -145.4074         estimate D2E/DX2                !
 ! D53   D(45,4,46,14)         148.1833         estimate D2E/DX2                !
 ! D54   D(45,4,46,42)           0.3228         estimate D2E/DX2                !
 ! D55   D(1,5,9,13)             0.254          estimate D2E/DX2                !
 ! D56   D(1,5,9,35)          -155.9614         estimate D2E/DX2                !
 ! D57   D(29,5,9,13)          153.3708         estimate D2E/DX2                !
 ! D58   D(29,5,9,35)           -2.8446         estimate D2E/DX2                !
 ! D59   D(1,5,29,27)            8.0965         estimate D2E/DX2                !
 ! D60   D(1,5,29,31)          160.1445         estimate D2E/DX2                !
 ! D61   D(9,5,29,27)         -145.6229         estimate D2E/DX2                !
 ! D62   D(9,5,29,31)            6.4251         estimate D2E/DX2                !
 ! D63   D(2,6,10,49)           -7.5627         estimate D2E/DX2                !
 ! D64   D(2,6,10,51)          154.5145         estimate D2E/DX2                !
 ! D65   D(15,6,10,49)        -157.762          estimate D2E/DX2                !
 ! D66   D(15,6,10,51)           4.3151         estimate D2E/DX2                !
 ! D67   D(2,6,15,13)          -15.636          estimate D2E/DX2                !
 ! D68   D(2,6,15,17)         -162.2685         estimate D2E/DX2                !
 ! D69   D(10,6,15,13)         139.5571         estimate D2E/DX2                !
 ! D70   D(10,6,15,17)          -7.0753         estimate D2E/DX2                !
 ! D71   D(3,7,12,14)           -9.1138         estimate D2E/DX2                !
 ! D72   D(3,7,12,36)          144.1046         estimate D2E/DX2                !
 ! D73   D(30,7,12,14)        -149.8192         estimate D2E/DX2                !
 ! D74   D(30,7,12,36)           3.3992         estimate D2E/DX2                !
 ! D75   D(3,7,30,28)           -5.6555         estimate D2E/DX2                !
 ! D76   D(3,7,30,32)         -150.7636         estimate D2E/DX2                !
 ! D77   D(12,7,30,28)         140.2824         estimate D2E/DX2                !
 ! D78   D(12,7,30,32)          -4.8257         estimate D2E/DX2                !
 ! D79   D(4,8,11,50)            6.731          estimate D2E/DX2                !
 ! D80   D(4,8,11,52)         -146.6924         estimate D2E/DX2                !
 ! D81   D(16,8,11,50)         150.5656         estimate D2E/DX2                !
 ! D82   D(16,8,11,52)          -2.8578         estimate D2E/DX2                !
 ! D83   D(4,8,16,14)            1.7917         estimate D2E/DX2                !
 ! D84   D(4,8,16,18)          150.8216         estimate D2E/DX2                !
 ! D85   D(11,8,16,14)        -146.6189         estimate D2E/DX2                !
 ! D86   D(11,8,16,18)           2.411          estimate D2E/DX2                !
 ! D87   D(5,9,13,15)           -3.7087         estimate D2E/DX2                !
 ! D88   D(5,9,13,43)         -150.2577         estimate D2E/DX2                !
 ! D89   D(35,9,13,15)         153.6286         estimate D2E/DX2                !
 ! D90   D(35,9,13,43)           7.0796         estimate D2E/DX2                !
 ! D91   D(5,9,35,33)           -6.1773         estimate D2E/DX2                !
 ! D92   D(5,9,35,37)          149.9596         estimate D2E/DX2                !
 ! D93   D(13,9,35,33)        -162.7369         estimate D2E/DX2                !
 ! D94   D(13,9,35,37)          -6.6            estimate D2E/DX2                !
 ! D95   D(6,10,49,47)          26.4124         estimate D2E/DX2                !
 ! D96   D(6,10,49,56)         138.9822         estimate D2E/DX2                !
 ! D97   D(6,10,49,85)         -96.867          estimate D2E/DX2                !
 ! D98   D(51,10,49,47)       -135.5686         estimate D2E/DX2                !
 ! D99   D(51,10,49,56)        -22.9988         estimate D2E/DX2                !
 ! D100  D(51,10,49,85)        101.152          estimate D2E/DX2                !
 ! D101  D(6,10,51,19)           1.2262         estimate D2E/DX2                !
 ! D102  D(6,10,51,53)        -150.7087         estimate D2E/DX2                !
 ! D103  D(49,10,51,19)        162.9443         estimate D2E/DX2                !
 ! D104  D(49,10,51,53)         11.0095         estimate D2E/DX2                !
 ! D105  D(8,11,50,48)          -9.1207         estimate D2E/DX2                !
 ! D106  D(8,11,50,56)        -152.6753         estimate D2E/DX2                !
 ! D107  D(52,11,50,48)        144.1754         estimate D2E/DX2                !
 ! D108  D(52,11,50,56)          0.6208         estimate D2E/DX2                !
 ! D109  D(8,11,52,20)           1.5073         estimate D2E/DX2                !
 ! D110  D(8,11,52,54)         155.5036         estimate D2E/DX2                !
 ! D111  D(50,11,52,20)       -151.029          estimate D2E/DX2                !
 ! D112  D(50,11,52,54)          2.9673         estimate D2E/DX2                !
 ! D113  D(7,12,14,16)           8.7639         estimate D2E/DX2                !
 ! D114  D(7,12,14,46)         154.0055         estimate D2E/DX2                !
 ! D115  D(36,12,14,16)       -144.9235         estimate D2E/DX2                !
 ! D116  D(36,12,14,46)          0.3181         estimate D2E/DX2                !
 ! D117  D(7,12,36,34)           3.7621         estimate D2E/DX2                !
 ! D118  D(7,12,36,38)        -150.4409         estimate D2E/DX2                !
 ! D119  D(14,12,36,34)        155.8233         estimate D2E/DX2                !
 ! D120  D(14,12,36,38)          1.6202         estimate D2E/DX2                !
 ! D121  D(9,13,15,6)         -144.237          estimate D2E/DX2                !
 ! D122  D(9,13,15,17)           2.8534         estimate D2E/DX2                !
 ! D123  D(43,13,15,6)           6.8587         estimate D2E/DX2                !
 ! D124  D(43,13,15,17)        153.9491         estimate D2E/DX2                !
 ! D125  D(9,13,43,2)          155.2754         estimate D2E/DX2                !
 ! D126  D(9,13,43,39)          -0.9311         estimate D2E/DX2                !
 ! D127  D(15,13,43,2)           4.7277         estimate D2E/DX2                !
 ! D128  D(15,13,43,39)       -151.4788         estimate D2E/DX2                !
 ! D129  D(12,14,16,8)         148.8613         estimate D2E/DX2                !
 ! D130  D(12,14,16,18)          0.2901         estimate D2E/DX2                !
 ! D131  D(46,14,16,8)          -0.2798         estimate D2E/DX2                !
 ! D132  D(46,14,16,18)       -148.851          estimate D2E/DX2                !
 ! D133  D(12,14,46,4)        -150.9274         estimate D2E/DX2                !
 ! D134  D(12,14,46,42)         -2.6221         estimate D2E/DX2                !
 ! D135  D(16,14,46,4)          -1.3445         estimate D2E/DX2                !
 ! D136  D(16,14,46,42)        146.9609         estimate D2E/DX2                !
 ! D137  D(6,15,17,1)          145.0167         estimate D2E/DX2                !
 ! D138  D(6,15,17,19)           4.0174         estimate D2E/DX2                !
 ! D139  D(13,15,17,1)           1.5285         estimate D2E/DX2                !
 ! D140  D(13,15,17,19)       -139.4709         estimate D2E/DX2                !
 ! D141  D(8,16,18,3)         -153.5105         estimate D2E/DX2                !
 ! D142  D(8,16,18,20)          -0.5129         estimate D2E/DX2                !
 ! D143  D(14,16,18,3)          -8.9682         estimate D2E/DX2                !
 ! D144  D(14,16,18,20)        144.0294         estimate D2E/DX2                !
 ! D145  D(1,17,19,21)           3.696          estimate D2E/DX2                !
 ! D146  D(1,17,19,51)        -142.8449         estimate D2E/DX2                !
 ! D147  D(15,17,19,21)        148.1156         estimate D2E/DX2                !
 ! D148  D(15,17,19,51)          1.5748         estimate D2E/DX2                !
 ! D149  D(3,18,20,22)          -2.752          estimate D2E/DX2                !
 ! D150  D(3,18,20,52)         150.5542         estimate D2E/DX2                !
 ! D151  D(16,18,20,22)       -154.1081         estimate D2E/DX2                !
 ! D152  D(16,18,20,52)         -0.8018         estimate D2E/DX2                !
 ! D153  D(17,19,21,23)          0.3077         estimate D2E/DX2                !
 ! D154  D(17,19,21,57)       -145.0747         estimate D2E/DX2                !
 ! D155  D(51,19,21,23)        145.5939         estimate D2E/DX2                !
 ! D156  D(51,19,21,57)          0.2115         estimate D2E/DX2                !
 ! D157  D(17,19,51,10)         -4.1904         estimate D2E/DX2                !
 ! D158  D(17,19,51,53)        149.1867         estimate D2E/DX2                !
 ! D159  D(21,19,51,10)       -145.3527         estimate D2E/DX2                !
 ! D160  D(21,19,51,53)          8.0244         estimate D2E/DX2                !
 ! D161  D(18,20,22,24)          8.0585         estimate D2E/DX2                !
 ! D162  D(18,20,22,58)        147.2131         estimate D2E/DX2                !
 ! D163  D(52,20,22,24)       -145.7536         estimate D2E/DX2                !
 ! D164  D(52,20,22,58)         -6.5991         estimate D2E/DX2                !
 ! D165  D(18,20,52,11)          0.3127         estimate D2E/DX2                !
 ! D166  D(18,20,52,54)       -153.2154         estimate D2E/DX2                !
 ! D167  D(22,20,52,11)        153.3307         estimate D2E/DX2                !
 ! D168  D(22,20,52,54)         -0.1974         estimate D2E/DX2                !
 ! D169  D(19,21,23,1)          -4.1446         estimate D2E/DX2                !
 ! D170  D(19,21,23,25)       -148.7295         estimate D2E/DX2                !
 ! D171  D(57,21,23,1)         141.6118         estimate D2E/DX2                !
 ! D172  D(57,21,23,25)         -2.9732         estimate D2E/DX2                !
 ! D173  D(19,21,57,59)        143.1098         estimate D2E/DX2                !
 ! D174  D(19,21,57,83)         -7.5902         estimate D2E/DX2                !
 ! D175  D(23,21,57,59)          2.2293         estimate D2E/DX2                !
 ! D176  D(23,21,57,83)       -148.4708         estimate D2E/DX2                !
 ! D177  D(20,22,24,26)         -7.4623         estimate D2E/DX2                !
 ! D178  D(20,22,24,62)        137.1371         estimate D2E/DX2                !
 ! D179  D(58,22,24,26)       -152.3808         estimate D2E/DX2                !
 ! D180  D(58,22,24,62)         -7.7814         estimate D2E/DX2                !
 ! D181  D(20,22,58,60)       -137.6745         estimate D2E/DX2                !
 ! D182  D(20,22,58,84)          7.1573         estimate D2E/DX2                !
 ! D183  D(24,22,58,60)          7.0273         estimate D2E/DX2                !
 ! D184  D(24,22,58,84)        151.8591         estimate D2E/DX2                !
 ! D185  D(1,23,25,27)           1.0456         estimate D2E/DX2                !
 ! D186  D(1,23,25,61)        -138.9935         estimate D2E/DX2                !
 ! D187  D(21,23,25,27)        141.8154         estimate D2E/DX2                !
 ! D188  D(21,23,25,61)          1.7764         estimate D2E/DX2                !
 ! D189  D(22,24,26,3)           1.1144         estimate D2E/DX2                !
 ! D190  D(22,24,26,28)        142.222          estimate D2E/DX2                !
 ! D191  D(62,24,26,3)        -140.2314         estimate D2E/DX2                !
 ! D192  D(62,24,26,28)          0.8762         estimate D2E/DX2                !
 ! D193  D(22,24,62,60)          5.6132         estimate D2E/DX2                !
 ! D194  D(22,24,62,64)       -140.442          estimate D2E/DX2                !
 ! D195  D(26,24,62,60)        150.7902         estimate D2E/DX2                !
 ! D196  D(26,24,62,64)          4.735          estimate D2E/DX2                !
 ! D197  D(23,25,27,29)         -2.7937         estimate D2E/DX2                !
 ! D198  D(23,25,27,65)       -147.7368         estimate D2E/DX2                !
 ! D199  D(61,25,27,29)        141.3049         estimate D2E/DX2                !
 ! D200  D(61,25,27,65)         -3.6382         estimate D2E/DX2                !
 ! D201  D(23,25,61,59)          0.0867         estimate D2E/DX2                !
 ! D202  D(23,25,61,63)        146.3023         estimate D2E/DX2                !
 ! D203  D(27,25,61,59)       -143.5455         estimate D2E/DX2                !
 ! D204  D(27,25,61,63)          2.6701         estimate D2E/DX2                !
 ! D205  D(3,26,28,30)          -8.2212         estimate D2E/DX2                !
 ! D206  D(3,26,28,66)         136.5488         estimate D2E/DX2                !
 ! D207  D(24,26,28,30)       -152.715          estimate D2E/DX2                !
 ! D208  D(24,26,28,66)         -7.945          estimate D2E/DX2                !
 ! D209  D(25,27,29,5)          -1.9279         estimate D2E/DX2                !
 ! D210  D(25,27,29,31)       -154.7845         estimate D2E/DX2                !
 ! D211  D(65,27,29,5)         138.0429         estimate D2E/DX2                !
 ! D212  D(65,27,29,31)        -14.8137         estimate D2E/DX2                !
 ! D213  D(25,27,65,63)          3.1897         estimate D2E/DX2                !
 ! D214  D(25,27,65,67)        152.831          estimate D2E/DX2                !
 ! D215  D(29,27,65,63)       -141.5353         estimate D2E/DX2                !
 ! D216  D(29,27,65,67)          8.106          estimate D2E/DX2                !
 ! D217  D(26,28,30,7)           8.4826         estimate D2E/DX2                !
 ! D218  D(26,28,30,32)        153.4532         estimate D2E/DX2                !
 ! D219  D(66,28,30,7)        -136.3341         estimate D2E/DX2                !
 ! D220  D(66,28,30,32)          8.6365         estimate D2E/DX2                !
 ! D221  D(26,28,66,64)          8.7984         estimate D2E/DX2                !
 ! D222  D(26,28,66,68)       -146.0224         estimate D2E/DX2                !
 ! D223  D(30,28,66,64)        147.8553         estimate D2E/DX2                !
 ! D224  D(30,28,66,68)         -6.9655         estimate D2E/DX2                !
 ! D225  D(5,29,31,33)          -0.9907         estimate D2E/DX2                !
 ! D226  D(5,29,31,69)        -147.0463         estimate D2E/DX2                !
 ! D227  D(27,29,31,33)        152.4366         estimate D2E/DX2                !
 ! D228  D(27,29,31,69)          6.381          estimate D2E/DX2                !
 ! D229  D(7,30,32,34)          -0.9947         estimate D2E/DX2                !
 ! D230  D(7,30,32,70)         140.5516         estimate D2E/DX2                !
 ! D231  D(28,30,32,34)       -142.5901         estimate D2E/DX2                !
 ! D232  D(28,30,32,70)         -1.0439         estimate D2E/DX2                !
 ! D233  D(29,31,33,35)         -8.5083         estimate D2E/DX2                !
 ! D234  D(29,31,33,73)       -156.08           estimate D2E/DX2                !
 ! D235  D(69,31,33,35)        141.4421         estimate D2E/DX2                !
 ! D236  D(69,31,33,73)         -6.1295         estimate D2E/DX2                !
 ! D237  D(29,31,69,67)          9.2853         estimate D2E/DX2                !
 ! D238  D(29,31,69,71)        154.7135         estimate D2E/DX2                !
 ! D239  D(33,31,69,67)       -140.472          estimate D2E/DX2                !
 ! D240  D(33,31,69,71)          4.9562         estimate D2E/DX2                !
 ! D241  D(30,32,34,36)          8.5388         estimate D2E/DX2                !
 ! D242  D(30,32,34,74)        154.4002         estimate D2E/DX2                !
 ! D243  D(70,32,34,36)       -136.1444         estimate D2E/DX2                !
 ! D244  D(70,32,34,74)          9.7169         estimate D2E/DX2                !
 ! D245  D(30,32,70,68)         -8.0194         estimate D2E/DX2                !
 ! D246  D(30,32,70,72)       -154.1823         estimate D2E/DX2                !
 ! D247  D(34,32,70,68)        137.1405         estimate D2E/DX2                !
 ! D248  D(34,32,70,72)         -9.0223         estimate D2E/DX2                !
 ! D249  D(31,33,35,9)          11.7983         estimate D2E/DX2                !
 ! D250  D(31,33,35,37)       -144.8621         estimate D2E/DX2                !
 ! D251  D(73,33,35,9)         154.45           estimate D2E/DX2                !
 ! D252  D(73,33,35,37)         -2.2105         estimate D2E/DX2                !
 ! D253  D(31,33,73,71)          4.9086         estimate D2E/DX2                !
 ! D254  D(31,33,73,75)        147.1801         estimate D2E/DX2                !
 ! D255  D(35,33,73,71)       -142.2793         estimate D2E/DX2                !
 ! D256  D(35,33,73,75)         -0.0077         estimate D2E/DX2                !
 ! D257  D(32,34,36,12)         -9.6771         estimate D2E/DX2                !
 ! D258  D(32,34,36,38)        144.8894         estimate D2E/DX2                !
 ! D259  D(74,34,36,12)       -149.9473         estimate D2E/DX2                !
 ! D260  D(74,34,36,38)          4.6191         estimate D2E/DX2                !
 ! D261  D(32,34,74,72)         -6.5298         estimate D2E/DX2                !
 ! D262  D(32,34,74,76)       -149.5144         estimate D2E/DX2                !
 ! D263  D(36,34,74,72)        138.91           estimate D2E/DX2                !
 ! D264  D(36,34,74,76)         -4.0746         estimate D2E/DX2                !
 ! D265  D(9,35,37,39)           0.3743         estimate D2E/DX2                !
 ! D266  D(9,35,37,77)        -154.1812         estimate D2E/DX2                !
 ! D267  D(33,35,37,39)        156.2249         estimate D2E/DX2                !
 ! D268  D(33,35,37,77)          1.6694         estimate D2E/DX2                !
 ! D269  D(12,36,38,42)         -1.3575         estimate D2E/DX2                !
 ! D270  D(12,36,38,78)        153.0885         estimate D2E/DX2                !
 ! D271  D(34,36,38,42)       -155.2319         estimate D2E/DX2                !
 ! D272  D(34,36,38,78)         -0.7859         estimate D2E/DX2                !
 ! D273  D(35,37,39,43)          5.8566         estimate D2E/DX2                !
 ! D274  D(35,37,39,79)       -147.5758         estimate D2E/DX2                !
 ! D275  D(77,37,39,43)        160.6453         estimate D2E/DX2                !
 ! D276  D(77,37,39,79)          7.2129         estimate D2E/DX2                !
 ! D277  D(35,37,77,75)          1.0113         estimate D2E/DX2                !
 ! D278  D(35,37,77,81)        140.7952         estimate D2E/DX2                !
 ! D279  D(39,37,77,75)       -154.2491         estimate D2E/DX2                !
 ! D280  D(39,37,77,81)        -14.4652         estimate D2E/DX2                !
 ! D281  D(36,38,42,46)         -0.8607         estimate D2E/DX2                !
 ! D282  D(36,38,42,80)        151.1821         estimate D2E/DX2                !
 ! D283  D(78,38,42,46)       -155.4885         estimate D2E/DX2                !
 ! D284  D(78,38,42,80)         -3.4457         estimate D2E/DX2                !
 ! D285  D(36,38,78,76)         -3.5903         estimate D2E/DX2                !
 ! D286  D(36,38,78,81)       -143.5469         estimate D2E/DX2                !
 ! D287  D(42,38,78,76)        151.5542         estimate D2E/DX2                !
 ! D288  D(42,38,78,81)         11.5976         estimate D2E/DX2                !
 ! D289  D(37,39,43,2)        -158.373          estimate D2E/DX2                !
 ! D290  D(37,39,43,13)         -5.6575         estimate D2E/DX2                !
 ! D291  D(79,39,43,2)          -4.0067         estimate D2E/DX2                !
 ! D292  D(79,39,43,13)        148.7088         estimate D2E/DX2                !
 ! D293  D(37,39,79,40)        140.6921         estimate D2E/DX2                !
 ! D294  D(37,39,79,82)          3.7118         estimate D2E/DX2                !
 ! D295  D(43,39,79,40)        -13.2562         estimate D2E/DX2                !
 ! D296  D(43,39,79,82)       -150.2365         estimate D2E/DX2                !
 ! D297  D(44,40,41,45)         -2.706          estimate D2E/DX2                !
 ! D298  D(44,40,41,80)       -149.2985         estimate D2E/DX2                !
 ! D299  D(79,40,41,45)        146.4387         estimate D2E/DX2                !
 ! D300  D(79,40,41,80)         -0.1538         estimate D2E/DX2                !
 ! D301  D(41,40,44,2)         155.5574         estimate D2E/DX2                !
 ! D302  D(41,40,44,47)         -3.3827         estimate D2E/DX2                !
 ! D303  D(79,40,44,2)          10.9144         estimate D2E/DX2                !
 ! D304  D(79,40,44,47)       -148.0257         estimate D2E/DX2                !
 ! D305  D(41,40,79,39)       -138.5415         estimate D2E/DX2                !
 ! D306  D(41,40,79,82)          3.3437         estimate D2E/DX2                !
 ! D307  D(44,40,79,39)          9.9409         estimate D2E/DX2                !
 ! D308  D(44,40,79,82)        151.8261         estimate D2E/DX2                !
 ! D309  D(40,41,45,4)        -143.4801         estimate D2E/DX2                !
 ! D310  D(40,41,45,48)          5.2249         estimate D2E/DX2                !
 ! D311  D(80,41,45,4)          -0.9778         estimate D2E/DX2                !
 ! D312  D(80,41,45,48)        147.7271         estimate D2E/DX2                !
 ! D313  D(40,41,80,42)        140.3197         estimate D2E/DX2                !
 ! D314  D(40,41,80,82)         -3.0859         estimate D2E/DX2                !
 ! D315  D(45,41,80,42)         -5.7777         estimate D2E/DX2                !
 ! D316  D(45,41,80,82)       -149.1833         estimate D2E/DX2                !
 ! D317  D(38,42,46,4)         146.5051         estimate D2E/DX2                !
 ! D318  D(38,42,46,14)          2.8372         estimate D2E/DX2                !
 ! D319  D(80,42,46,4)          -6.6642         estimate D2E/DX2                !
 ! D320  D(80,42,46,14)       -150.3321         estimate D2E/DX2                !
 ! D321  D(38,42,80,41)       -143.5649         estimate D2E/DX2                !
 ! D322  D(38,42,80,82)         -5.386          estimate D2E/DX2                !
 ! D323  D(46,42,80,41)          9.3362         estimate D2E/DX2                !
 ! D324  D(46,42,80,82)        147.515          estimate D2E/DX2                !
 ! D325  D(2,44,47,48)        -151.6487         estimate D2E/DX2                !
 ! D326  D(2,44,47,49)          -0.7654         estimate D2E/DX2                !
 ! D327  D(40,44,47,48)          6.73           estimate D2E/DX2                !
 ! D328  D(40,44,47,49)        157.6133         estimate D2E/DX2                !
 ! D329  D(4,45,48,47)         146.6128         estimate D2E/DX2                !
 ! D330  D(4,45,48,50)           1.299          estimate D2E/DX2                !
 ! D331  D(41,45,48,47)         -1.9484         estimate D2E/DX2                !
 ! D332  D(41,45,48,50)       -147.2621         estimate D2E/DX2                !
 ! D333  D(44,47,48,45)         -4.1786         estimate D2E/DX2                !
 ! D334  D(44,47,48,50)        144.7118         estimate D2E/DX2                !
 ! D335  D(49,47,48,45)       -159.0104         estimate D2E/DX2                !
 ! D336  D(49,47,48,50)        -10.1199         estimate D2E/DX2                !
 ! D337  D(44,47,49,10)        -23.2854         estimate D2E/DX2                !
 ! D338  D(44,47,49,56)       -142.57           estimate D2E/DX2                !
 ! D339  D(44,47,49,85)         99.1873         estimate D2E/DX2                !
 ! D340  D(48,47,49,10)        130.4061         estimate D2E/DX2                !
 ! D341  D(48,47,49,56)         11.1215         estimate D2E/DX2                !
 ! D342  D(48,47,49,85)       -107.1212         estimate D2E/DX2                !
 ! D343  D(45,48,50,11)          5.3219         estimate D2E/DX2                !
 ! D344  D(45,48,50,56)        153.3645         estimate D2E/DX2                !
 ! D345  D(47,48,50,11)       -143.6994         estimate D2E/DX2                !
 ! D346  D(47,48,50,56)          4.3432         estimate D2E/DX2                !
 ! D347  D(10,49,56,50)       -127.6842         estimate D2E/DX2                !
 ! D348  D(10,49,56,55)         22.7841         estimate D2E/DX2                !
[...]
 Alpha virt. eigenvalues --    1.13532   1.13554   1.13660   1.13969   1.14010
 Alpha virt. eigenvalues --    1.14164   1.14704   1.14804   1.15110   1.15632
 Alpha virt. eigenvalues --    1.15655   1.16159   1.16425   1.16610   1.16901
 Alpha virt. eigenvalues --    1.16984   1.17323   1.17665   1.17850   1.18057
 Alpha virt. eigenvalues --    1.18331   1.18403   1.18655   1.18941   1.19554
 Alpha virt. eigenvalues --    1.19628   1.19716   1.19902   1.20307   1.20855
 Alpha virt. eigenvalues --    1.21138   1.21269   1.21658   1.21949   1.22331
 Alpha virt. eigenvalues --    1.22698   1.23316   1.23639   1.23738   1.24052
 Alpha virt. eigenvalues --    1.24344   1.24795   1.25253   1.25591   1.25854
 Alpha virt. eigenvalues --    1.25961   1.26087   1.26385   1.26536   1.26937
 Alpha virt. eigenvalues --    1.27093   1.27272   1.27788   1.28128   1.28374
 Alpha virt. eigenvalues --    1.28829   1.29069   1.29389   1.29519   1.29764
 Alpha virt. eigenvalues --    1.30214   1.30330   1.30678   1.31161   1.31510
 Alpha virt. eigenvalues --    1.31857   1.32157   1.32515   1.32601   1.32704
 Alpha virt. eigenvalues --    1.33782   1.34139   1.34478   1.34913   1.35076
 Alpha virt. eigenvalues --    1.35264   1.36046   1.36191   1.36710   1.37076
 Alpha virt. eigenvalues --    1.38027   1.38342   1.38657   1.39032   1.39499
 Alpha virt. eigenvalues --    1.39941   1.40470   1.40659   1.41761   1.42526
 Alpha virt. eigenvalues --    1.42966   1.43688   1.44119   1.44631   1.45238
 Alpha virt. eigenvalues --    1.45410   1.45930   1.46978   1.47278   1.47712
 Alpha virt. eigenvalues --    1.48452   1.48881   1.48947   1.49214   1.50041
 Alpha virt. eigenvalues --    1.50767   1.51352   1.51682   1.52076   1.52798
 Alpha virt. eigenvalues --    1.53521   1.53855   1.53972   1.54733   1.54904
 Alpha virt. eigenvalues --    1.55598   1.55786   1.56455   1.56685   1.56866
 Alpha virt. eigenvalues --    1.57551   1.58234   1.58496   1.58667   1.59365
 Alpha virt. eigenvalues --    1.60125   1.60293   1.60764   1.61804   1.62167
 Alpha virt. eigenvalues --    1.62464   1.63163   1.63500   1.64334   1.64646
 Alpha virt. eigenvalues --    1.65007   1.65306   1.65336   1.65548   1.65790
 Alpha virt. eigenvalues --    1.65939   1.66233   1.66535   1.67120   1.67278
 Alpha virt. eigenvalues --    1.67490   1.67748   1.68187   1.68557   1.68805
 Alpha virt. eigenvalues --    1.68829   1.69628   1.69672   1.69833   1.70109
 Alpha virt. eigenvalues --    1.70197   1.70511   1.70923   1.71231   1.71298
 Alpha virt. eigenvalues --    1.71429   1.71569   1.71853   1.72086   1.72323
 Alpha virt. eigenvalues --    1.72778   1.72968   1.73238   1.73386   1.73767
 Alpha virt. eigenvalues --    1.73840   1.74012   1.74291   1.74377   1.74745
 Alpha virt. eigenvalues --    1.75003   1.75166   1.75369   1.75585   1.75941
 Alpha virt. eigenvalues --    1.75996   1.76351   1.76472   1.76811   1.76905
 Alpha virt. eigenvalues --    1.77150   1.77470   1.77573   1.77782   1.78112
 Alpha virt. eigenvalues --    1.78220   1.78916   1.79027   1.79387   1.79501
 Alpha virt. eigenvalues --    1.80010   1.80362   1.80631   1.81331   1.82016
 Alpha virt. eigenvalues --    1.82564   1.83174   1.83488   1.84084   1.84379
 Alpha virt. eigenvalues --    1.84834   1.85624   1.85947   1.86073   1.86393
 Alpha virt. eigenvalues --    1.87074   1.87516   1.87958   1.89802   1.90152
 Alpha virt. eigenvalues --    1.90406   1.91152   1.91422   1.91834   1.92152
 Alpha virt. eigenvalues --    1.92534   1.92595   1.92995   1.93574   1.94132
 Alpha virt. eigenvalues --    1.94221   1.94386   1.94729   1.95332   1.95736
 Alpha virt. eigenvalues --    1.95945   1.96439   1.96522   1.96851   1.97297
 Alpha virt. eigenvalues --    1.97537   1.97731   1.97882   1.98155   1.98330
 Alpha virt. eigenvalues --    1.98521   1.98665   1.99029   1.99239   1.99505
 Alpha virt. eigenvalues --    1.99939   2.00126   2.00149   2.00416   2.00496
 Alpha virt. eigenvalues --    2.00573   2.00895   2.01193   2.01220   2.01428
 Alpha virt. eigenvalues --    2.01550   2.01839   2.02138   2.02424   2.02540
 Alpha virt. eigenvalues --    2.02580   2.03042   2.03290   2.03413   2.03592
 Alpha virt. eigenvalues --    2.03725   2.04058   2.04420   2.04610   2.04663
 Alpha virt. eigenvalues --    2.04968   2.05336   2.05556   2.05948   2.06335
 Alpha virt. eigenvalues --    2.07147   2.07627   2.08005   2.08104   2.08481
 Alpha virt. eigenvalues --    2.10180   2.10621   2.10674   2.11361   2.11627
 Alpha virt. eigenvalues --    2.11889   2.11920   2.12240   2.13243   2.13820
 Alpha virt. eigenvalues --    2.13919   2.14390   2.14875   2.15177   2.15514
 Alpha virt. eigenvalues --    2.16703   2.16901   2.17020   2.17771   2.18106
 Alpha virt. eigenvalues --    2.18475   2.19388   2.19570   2.20176   2.20683
 Alpha virt. eigenvalues --    2.20966   2.21310   2.21858   2.22476   2.22617
 Alpha virt. eigenvalues --    2.22942   2.23270   2.23443   2.24223   2.24426
 Alpha virt. eigenvalues --    2.24769   2.24983   2.25275   2.25647   2.25851
 Alpha virt. eigenvalues --    2.26437   2.26694   2.27088   2.28004   2.28293
 Alpha virt. eigenvalues --    2.28491   2.28769   2.29191   2.29615   2.29869
 Alpha virt. eigenvalues --    2.30020   2.30414   2.31016   2.31534   2.31990
 Alpha virt. eigenvalues --    2.32175   2.32382   2.32632   2.33536   2.34137
 Alpha virt. eigenvalues --    2.34569   2.35498   2.36597   2.37386   2.37650
 Alpha virt. eigenvalues --    2.38471   2.38993   2.39510   2.39833   2.40302
 Alpha virt. eigenvalues --    2.40467   2.41043   2.41739   2.42020   2.43062
 Alpha virt. eigenvalues --    2.43382   2.43696   2.43801   2.44463   2.45304
 Alpha virt. eigenvalues --    2.45604   2.45778   2.46100   2.46362   2.46636
 Alpha virt. eigenvalues --    2.48295   2.48677   2.50146   2.50500   2.51067
 Alpha virt. eigenvalues --    2.51422   2.51903   2.52432   2.52874   2.53383
 Alpha virt. eigenvalues --    2.53949   2.54280   2.54665   2.54990   2.55250
 Alpha virt. eigenvalues --    2.55409   2.55835   2.56305   2.56551   2.56887
 Alpha virt. eigenvalues --    2.57125   2.57337   2.57677   2.58026   2.58216
 Alpha virt. eigenvalues --    2.58610   2.58681   2.58997   2.59307   2.59492
 Alpha virt. eigenvalues --    2.59628   2.60240   2.60382   2.60705   2.60904
 Alpha virt. eigenvalues --    2.61313   2.61644   2.61852   2.62336   2.62491
 Alpha virt. eigenvalues --    2.62742   2.63484   2.63545   2.63766   2.64057
 Alpha virt. eigenvalues --    2.64580   2.64811   2.65216   2.65447   2.65947
 Alpha virt. eigenvalues --    2.66380   2.66784   2.67063   2.67251   2.67715
 Alpha virt. eigenvalues --    2.68055   2.68164   2.68758   2.68814   2.69239
 Alpha virt. eigenvalues --    2.69582   2.70191   2.70636   2.71035   2.71158
 Alpha virt. eigenvalues --    2.71964   2.72410   2.72910   2.73086   2.73626
 Alpha virt. eigenvalues --    2.74377   2.75141   2.75524   2.75816   2.76294
 Alpha virt. eigenvalues --    2.77752   2.78248   2.78274   2.78830   2.78854
 Alpha virt. eigenvalues --    2.79337   2.79938   2.80326   2.81082   2.81664
 Alpha virt. eigenvalues --    2.81744   2.82191   2.82567   2.83116   2.83499
 Alpha virt. eigenvalues --    2.83715   2.84040   2.84287   2.84799   2.85149
 Alpha virt. eigenvalues --    2.85278   2.85498   2.86595   2.86790   2.87406
 Alpha virt. eigenvalues --    2.88061   2.88240   2.88818   2.89561   2.89760
 Alpha virt. eigenvalues --    2.90113   2.90174   2.90975   2.91187   2.91655
 Alpha virt. eigenvalues --    2.92123   2.92545   2.92821   2.93174   2.93376
 Alpha virt. eigenvalues --    2.93987   2.94364   2.94800   2.95173   2.96472
 Alpha virt. eigenvalues --    2.96619   2.97221   2.97696   2.98117   2.99429
 Alpha virt. eigenvalues --    3.00112   3.01382   3.01815   3.02592   3.03461
 Alpha virt. eigenvalues --    3.04529   3.05171   3.05948   3.07673   3.08583
 Alpha virt. eigenvalues --    3.11456   3.12255   3.14309   3.14876   3.16708
 Alpha virt. eigenvalues --    3.17859   3.19135   3.20722   3.21512   3.23913
 Alpha virt. eigenvalues --    3.25003   3.27792   3.28850   3.29560   3.30929
 Alpha virt. eigenvalues --    3.32371   3.34082   3.35589   3.36557   3.37534
 Alpha virt. eigenvalues --    3.40531   3.41990   3.43182   3.44288   3.45689
 Alpha virt. eigenvalues --    3.46310   3.47227   3.50794   3.52082   3.55332
 Alpha virt. eigenvalues --    3.56058   3.56687   3.61425   4.01343   4.01635
 Alpha virt. eigenvalues --    4.01812   4.02295   4.02905   4.03940   4.04678
 Alpha virt. eigenvalues --    4.04836   4.05381   4.06447   4.06561   4.07005
 Alpha virt. eigenvalues --    4.07110   4.07340   4.08448   4.08644   4.09707
 Alpha virt. eigenvalues --    4.10519   4.11232   4.11822   4.12380   4.13084
 Alpha virt. eigenvalues --    4.13409   4.14721   4.15942   4.16918   4.17815
 Alpha virt. eigenvalues --    4.19610   4.19819   4.20287   4.20921   4.21528
 Alpha virt. eigenvalues --    4.21817   4.22261   4.22679   4.24765   4.26992
 Alpha virt. eigenvalues --    4.27884   4.28543   4.28990   4.29639   4.30293
 Alpha virt. eigenvalues --    4.31340   4.31878   4.32744   4.34754   4.38174
 Alpha virt. eigenvalues --    4.38645   4.39661   4.41219   4.43606   4.45549
 Alpha virt. eigenvalues --    4.46813   4.47434   4.49216   4.50862   4.51489
 Alpha virt. eigenvalues --    4.52931   4.53289   4.56072   4.57186   4.58374
 Alpha virt. eigenvalues --    4.59833   4.62898   4.64704   4.66727   4.67754
 Alpha virt. eigenvalues --    4.68825   4.70868   4.72869   4.79753   4.81786
 Alpha virt. eigenvalues --    4.84271   4.84403   4.86654   4.88781   4.93010
 Alpha virt. eigenvalues --    4.95967   5.00495   5.03830   5.06725   5.13822
 Alpha virt. eigenvalues --    5.16796   5.18705   5.23176   5.25012
          Condensed to atoms (all electrons):
 Mulliken charges:
               1
     1  C   -0.022744
     2  C   -0.362417
     3  C   -0.024765
     4  C   -0.029893
     5  C    0.053945
     6  C    0.079912
     7  C   -0.022790
     8  C   -0.030004
     9  C    0.028187
    10  C    0.123593
    11  C    0.049294
    12  C    0.054000
    13  C    0.020150
    14  C   -0.030962
    15  C    0.018652
    16  C   -0.032179
    17  C   -0.018887
    18  C    0.054851
    19  C   -0.024836
    20  C    0.042421
    21  C   -0.022852
    22  C   -0.023303
    23  C   -0.000226
    24  C   -0.014003
    25  C   -0.019925
    26  C   -0.012894
    27  C   -0.021615
    28  C   -0.019510
    29  C    0.048984
    30  C   -0.015737
    31  C   -0.030823
    32  C   -0.011820
    33  C   -0.022348
    34  C   -0.021804
    35  C    0.039896
    36  C    0.046087
    37  C    0.039970
    38  C    0.041085
    39  C    0.065626
    40  C    0.006306
    41  C   -0.028738
    42  C    0.065090
    43  C    0.046232
    44  C    0.149780
    45  C    0.064812
    46  C   -0.035038
    47  C    0.072556
    48  C    0.004477
    49  C   -0.361239
    50  C    0.010741
    51  C    0.084984
    52  C    0.045487
    53  C   -0.037953
    54  C   -0.022584
    55  C    0.000709
    56  C    0.076968
    57  C    0.055496
    58  C   -0.011630
    59  C    0.058488
    60  C   -0.021113
    61  C   -0.024743
    62  C   -0.019204
    63  C   -0.029036
    64  C    0.050468
    65  C   -0.028139
    66  C    0.045169
    67  C    0.052429
    68  C    0.044047
    69  C   -0.023876
    70  C   -0.024647
    71  C   -0.010619
    72  C    0.006021
    73  C   -0.013650
    74  C   -0.008885
    75  C    0.001725
    76  C   -0.000769
    77  C   -0.024715
    78  C   -0.020519
    79  C   -0.040537
    80  C   -0.026675
    81  C    0.006234
    82  C   -0.021579
    83  C   -0.015760
    84  C   -0.014345
    85  Cl  -0.021824
    86  Cl  -0.030723
 Sum of Mulliken charges =  -0.00000
 Mulliken charges with hydrogens summed into heavy atoms:
               1
     1  C   -0.022744
     2  C   -0.362417
     3  C   -0.024765
     4  C   -0.029893
     5  C    0.053945
     6  C    0.079912
     7  C   -0.022790
     8  C   -0.030004
     9  C    0.028187
    10  C    0.123593
    11  C    0.049294
    12  C    0.054000
    13  C    0.020150
    14  C   -0.030962
    15  C    0.018652
    16  C   -0.032179
    17  C   -0.018887
    18  C    0.054851
    19  C   -0.024836
    20  C    0.042421
    21  C   -0.022852
    22  C   -0.023303
    23  C   -0.000226
    24  C   -0.014003
    25  C   -0.019925
    26  C   -0.012894
    27  C   -0.021615
    28  C   -0.019510
    29  C    0.048984
    30  C   -0.015737
    31  C   -0.030823
    32  C   -0.011820
    33  C   -0.022348
    34  C   -0.021804
    35  C    0.039896
    36  C    0.046087
    37  C    0.039970
    38  C    0.041085
    39  C    0.065626
    40  C    0.006306
    41  C   -0.028738
    42  C    0.065090
    43  C    0.046232
    44  C    0.149780
    45  C    0.064812
    46  C   -0.035038
    47  C    0.072556
    48  C    0.004477
    49  C   -0.361239
    50  C    0.010741
    51  C    0.084984
    52  C    0.045487
    53  C   -0.037953
    54  C   -0.022584
    55  C    0.000709
    56  C    0.076968
    57  C    0.055496
    58  C   -0.011630
    59  C    0.058488
    60  C   -0.021113
    61  C   -0.024743
    62  C   -0.019204
    63  C   -0.029036
    64  C    0.050468
    65  C   -0.028139
    66  C    0.045169
    67  C    0.052429
    68  C    0.044047
    69  C   -0.023876
    70  C   -0.024647
    71  C   -0.010619
    72  C    0.006021
    73  C   -0.013650
    74  C   -0.008885
    75  C    0.001725
    76  C   -0.000769
    77  C   -0.024715
    78  C   -0.020519
    79  C   -0.040537
    80  C   -0.026675
    81  C    0.006234
    82  C   -0.021579
    83  C   -0.015760
    84  C   -0.014345
    85  Cl  -0.021824
    86  Cl  -0.030723
 Electronic spatial extent (au):  <R**2>=          37634.2155
 Charge=             -0.0000 electrons
 Dipole moment (field-independent basis, Debye):
    X=             -3.9026    Y=              0.1610    Z=              0.5436  Tot=              3.9435
 Quadrupole moment (field-independent basis, Debye-Ang):
   XX=           -501.6790   YY=           -477.2997   ZZ=           -477.3682
   XY=              5.9630   XZ=              0.2995   YZ=              1.2713
 Traceless Quadrupole moment (field-independent basis, Debye-Ang):
   XX=            -16.2300   YY=              8.1492   ZZ=              8.0808
   XY=              5.9630   XZ=              0.2995   YZ=              1.2713
 Octapole moment (field-independent basis, Debye-Ang**2):
  XXX=            -79.0322  YYY=            -11.5589  ZZZ=             14.0772  XYY=              2.2581
  XXY=             10.7706  XXZ=             -1.2778  XZZ=             30.5069  YZZ=             -2.2773
  YYZ=              0.3962  XYZ=              7.3592
 Hexadecapole moment (field-independent basis, Debye-Ang**3):
 XXXX=         -23215.1897 YYYY=         -17571.0935 ZZZZ=         -15509.7681 XXXY=             40.0654
 XXXZ=              5.4985 YYYX=             29.3825 YYYZ=            -18.2682 ZZZX=             18.9339
 ZZZY=            -38.2235 XXYY=          -6765.4468 XXZZ=          -6347.4730 YYZZ=          -5518.5974
 XXYZ=             43.7050 YYXZ=              1.6891 ZZXY=              6.0549
 N-N= 1.558790184806D+04 E-N=-4.076907536350D+04  KE= 4.088604905114D+03
 No NMR shielding tensors so no spin-rotation constants.
 Leave Link  601 at Mon Jun 27 04:34:49 2022, MaxMem=  1342177280 cpu:              22.1 elap:               1.1
 (Enter /home/mkliu/g16/l9999.exe)
 1\1\GINC-NODE05\FOpt\RB3LYP\6-31G(d,p)\C84Cl2\MKLIU\27-Jun-2022\0\\#P 
 opt b3lyp/6-31G(d, p) empiricaldispersion=GD3\\force\\0,1\C,8.52551673
 51,18.9672971393,10.789951165\C,12.635399899,20.0460134549,8.842185817
 2\C,8.2839990758,26.8207459443,10.5693313816\C,12.3293681547,25.535808
 7042,8.9052296724\C,8.0430368058,19.15010735,9.4714871778\C,12.0723209
 078,19.7581310902,10.2274908496\C,7.9721205682,26.8321167877,9.1721992
 327\C,11.8591984057,25.928224009,10.2070355456\C,9.0120474619,19.24895
 78984,8.3785278286\C,12.3063911267,20.5005299061,11.3606659785\C,12.10
 32213254,25.1513648519,11.3529005614\C,8.9664778556,26.6458619974,8.17
 79091498\C,10.3889271873,19.1602021449,8.7017641107\C,10.3008616719,26
 .6479135491,8.6469689901\C,10.8400506148,19.0447715825,10.0600665716\C
 ,10.6151918626,26.6418613896,10.0371301129\C,9.9238499122,18.963368211
 6,11.0848785321\C,9.6108879219,26.6240183769,11.0370069158\C,10.168142
 7328,19.6787160559,12.3156992624\C,9.8498875365,25.8645246709,12.26531
 1275\C,8.8931687748,20.0697282299,12.8447756661\C,8.7095660142,25.3993
 20412,12.9709152324\C,7.8753755452,19.5803826433,11.9335284969\C,7.380
 4097025,25.5097580843,12.4098481106\C,6.6936695737,20.2627502608,11.77
 78880637\C,7.1672361317,26.2051041812,11.2527432385\C,6.0936731185,20.
 3491562995,10.4755780988\C,6.2071557012,25.7337841619,10.273864462\C,6
 .7404434854,19.7925829986,9.3327316897\C,6.6613839811,26.2335031324,9.
 014681656\C,6.4054915645,20.3691866416,8.0961954737\C,6.3425329308,25.
 5736705749,7.8533338895\C,7.3336518555,20.3684776417,6.982068451\C,7.3
 096530413,25.4822960454,6.7715877835\C,8.6750413721,19.9296294626,7.13
 86830905\C,8.649107542,25.9127771995,6.9432894588\C,9.7162897722,20.60
 37745132,6.3669488029\C,9.7076827327,25.1700373207,6.2545875187\C,11.1
 051280634,20.5815246202,6.8366701957\C,12.8994917779,22.1654490651,7.5
 264234251\C,12.874103108,23.6197540576,7.5240386923\C,11.0842520612,25
 .1859780799,6.7856048227\C,11.4051975647,19.813773243,7.9538142891\C,1
 3.166700452,21.449343911,8.727712625\C,13.0693357837,24.3375410605,8.7
 288438484\C,11.3548063348,25.948934773,7.9404055981\C,13.4840265873,22
 .1560643146,9.8648130116\C,13.4028736674,23.5946469918,9.8925033248\C,
 13.328707224,21.6203157753,11.2809907022\C,12.9742191673,24.0170769126
 ,11.1828220134\C,11.3231789818,20.4837167546,12.4470407146\C,11.101115
 2699,25.1226333901,12.4217330575\C,11.1812763964,21.6263290801,13.2894
 002162\C,11.1049129797,23.9873242624,13.2660869718\C,11.9508808577,22.
 8360012917,13.01417564\C,12.8768600449,22.8670407927,12.0181768385\C,8
 .7200700147,21.2958241107,13.5292561515\C,8.724422324,24.1696207284,13
 .6985376111\C,7.4629721044,22.0371951531,13.3500799193\C,7.4743811701,
 23.4517394569,13.4603799338\C,6.4656559281,21.5020636835,12.4893616279
 \C,6.6484819507,24.2800735526,12.6489167801\C,5.6710192512,22.32999866
 78,11.640623077\C,5.789427507,23.7381706639,11.6436133588\C,5.42376470
 09,21.6084707484,10.402748418\C,5.576488038,24.4708004489,10.391731069
 \C,5.2263078151,22.2796058281,9.1766945903\C,5.2657046672,23.744783523
 6,9.15764158\C,5.5836894604,21.5439982521,8.007618422\C,5.5717635765,2
 4.3624855583,7.9160397291\C,5.9240011198,22.2133651812,6.783014234\C,5
 .9181755036,23.5933823177,6.7399793684\C,6.985855194,21.4646049302,6.1
 337847679\C,6.977247428,24.3012121963,6.0305427404\C,7.9856724758,22.1
 31299431,5.4404110432\C,7.9807457885,23.5940374828,5.3925511048\C,9.33
 09810275,21.6798814648,5.5221452079\C,9.3309740518,24.0538845383,5.468
 1663403\C,11.973642694,21.707331412,6.5626538667\C,11.9439239308,24.06
 74928276,6.5440527912\C,10.1702466119,22.8619504575,5.4116252268\C,11.
 4422414849,22.8767378024,5.9058101665\C,9.9219772767,22.0223956174,13.
 8031635452\C,9.9028718753,23.4776934,13.8538589651\Cl,14.9670450588,21
 .0327668324,11.9462432168\Cl,13.9684829357,18.8057349316,8.409075431\\
 Version=ES64L-G16RevA.03\State=1-A\HF=-4121.4067382\RMSD=4.725e-09\RMS
 F=8.445e-05\Dipole=-1.4447384,0.5144883,-0.2349422\Quadrupole=-8.82691
 57,1.6216858,7.2052299,7.9106692,-0.0198414,-0.9960182\PG=C01 [X(C84Cl
 2)]\\@


 Cherishing children is the mark of a civilized society.
 -- Joan Ganz Cooney
 Job cpu time:       1 days  2 hours 19 minutes 29.2 seconds.
 Elapsed time:       0 days  1 hours  5 minutes 54.7 seconds.
 File lengths (MBytes):  RWF=   1037 Int=      0 D2E=      0 Chk=    131 Scr=      1
 Normal termination of Gaussian 16 at Mon Jun 27 04:34:51 2022.
