 Entering Gaussian System, Link 0=g16
 Input=2_addons_C84_11_mirror_Cl22_rank_5.gjf
 Output=2_addons_C84_11_mirror_Cl22_rank_5.log
 Initial command:
 /home/mkliu/g16/l1.exe "/data/scratch/Gau-192609.inp" -scrdir="/data/scratch/"
 Entering Link 1 = /home/mkliu/g16/l1.exe PID=    192610.
  
 Copyright (c) 1988,1990,1992,1993,1995,1998,2003,2009,2016,
            Gaussian, Inc.  All Rights Reserved.
  
 This is part of the Gaussian(R) 16 program.  It is based on
 the Gaussian(R) 09 system (copyright 2009, Gaussian, Inc.),
 the Gaussian(R) 03 system (copyright 2003, Gaussian, Inc.),
 the Gaussian(R) 98 system (copyright 1998, Gaussian, Inc.),
 the Gaussian(R) 94 system (copyright 1995, Gaussian, Inc.),
 the Gaussian 92(TM) system (copyright 1992, Gaussian, Inc.),
 the Gaussian 90(TM) system (copyright 1990, Gaussian, Inc.),
 the Gaussian 88(TM) system (copyright 1988, Gaussian, Inc.),
 the Gaussian 86(TM) system (copyright 1986, Carnegie Mellon
 University), and the Gaussian 82(TM) system (copyright 1983,
 Carnegie Mellon University). Gaussian is a federally registered
 trademark of Gaussian, Inc.
  
 This software contains proprietary and confidential information,
 including trade secrets, belonging to Gaussian, Inc.
  
 This software is provided under written license and may be
 used, copied, transmitted, or stored only in accord with that
 written license.
  
 The following legend is applicable only to US Government
 contracts under FAR:
  
                    RESTRICTED RIGHTS LEGEND
  
 Use, reproduction and disclosure by the US Government is
 subject to restrictions as set forth in subparagraphs (a)
 and (c) of the Commercial Computer Software - Restricted
 Rights clause in FAR 52.227-19.
  
 Gaussian, Inc.
 340 Quinnipiac St., Bldg. 40, Wallingford CT 06492
  
  
 ---------------------------------------------------------------
 Warning -- This program may not be used in any manner that
 competes with the business of Gaussian, Inc. or will provide
 assistance to any competitor of Gaussian, Inc.  The licensee
 of this program is prohibited from giving any competitor of
 Gaussian, Inc. access to this program.  By using this program,
 the user acknowledges that Gaussian, Inc. is engaged in the
 business of creating and licensing software in the field of
 computational chemistry and represents and warrants to the
 licensee that it is not a competitor of Gaussian, Inc. and that
 it will not use this program in any manner prohibited above.
 ---------------------------------------------------------------
  

 Cite this work as:
 Gaussian 16, Revision A.03,
 M. J. Frisch, G. W. Trucks, H. B. Schlegel, G. E. Scuseria, 
 M. A. Robb, J. R. Cheeseman, G. Scalmani, V. Barone, 
 G. A. Petersson, H. Nakatsuji, X. Li, M. Caricato, A. V. Marenich, 
 J. Bloino, B. G. Janesko, R. Gomperts, B. Mennucci, H. P. Hratchian, 
 J. V. Ortiz, A. F. Izmaylov, J. L. Sonnenberg, D. Williams-Young, 
 F. Ding, F. Lipparini, F. Egidi, J. Goings, B. Peng, A. Petrone, 
 T. Henderson, D. Ranasinghe, V. G. Zakrzewski, J. Gao, N. Rega, 
 G. Zheng, W. Liang, M. Hada, M. Ehara, K. Toyota, R. Fukuda, 
 J. Hasegawa, M. Ishida, T. Nakajima, Y. Honda, O. Kitao, H. Nakai, 
 T. Vreven, K. Throssell, J. A. Montgomery, Jr., J. E. Peralta, 
 F. Ogliaro, M. J. Bearpark, J. J. Heyd, E. N. Brothers, K. N. Kudin, 
 V. N. Staroverov, T. A. Keith, R. Kobayashi, J. Normand, 
 K. Raghavachari, A. P. Rendell, J. C. Burant, S. S. Iyengar, 
 J. Tomasi, M. Cossi, J. M. Millam, M. Klene, C. Adamo, R. Cammi, 
 J. W. Ochterski, R. L. Martin, K. Morokuma, O. Farkas, 
 J. B. Foresman, and D. J. Fox, Gaussian, Inc., Wallingford CT, 2016.
 
 ******************************************
 Gaussian 16:  ES64L-G16RevA.03 25-Dec-2016
                27-Jun-2022 
 ******************************************
 %mem=10GB
 %chk=2_addons_C84_11_mirror_Cl22_rank_5.chk
 %nprocshared=24
 Will use up to   24 processors via shared memory.
 ------------------------------------------------
 #P opt b3lyp/6-31G(d, p) empiricaldispersion=GD3
 ------------------------------------------------
 1/18=20,19=15,26=3,38=1/1,3;
 2/9=110,12=2,17=6,18=5,40=1/2;
 3/5=1,6=6,7=101,11=2,25=1,30=1,71=1,74=-5,124=31/1,2,3;
 4//1;
 5/5=2,38=5/2;
 6/7=2,8=2,9=2,10=2,28=1/1;
 7//1,2,3,16;
 1/18=20,19=15,26=3/3(2);
 2/9=110/2;
 99//99;
 2/9=110/2;
 3/5=1,6=6,7=101,11=2,25=1,30=1,71=1,74=-5,124=31/1,2,3;
 4/5=5,16=3,69=1/1;
 5/5=2,38=5/2;
 7//1,2,3,16;
 1/18=20,19=15,26=3/3(-5);
 2/9=110/2;
 6/7=2,8=2,9=2,10=2,19=2,28=1/1;
 99/9=1/99;
 Leave Link    1 at Mon Jun 27 05:04:14 2022, MaxMem=  1342177280 cpu:               1.1 elap:               0.1
 (Enter /home/mkliu/g16/l101.exe)
 -----
 force
 -----
 Symbolic Z-matrix:
 Charge =  0 Multiplicity = 1
 C                     8.54642   19.02193   10.78379 
 C                     12.42851   20.22707   8.87751 
 C                     8.29994   26.79252   10.54864 
 C                     12.31559   25.51207   8.90973 
 C                     8.06881   19.18161   9.46433 
 C                     12.05649   19.7715   10.18299 
 C                     7.99278   26.80599   9.16102 
 C                     11.8485   25.90577   10.19865 
 C                     9.0237    19.26656   8.3782 
 C                     12.2934   20.52391   11.34673 
 C                     12.09766   25.14148   11.34796 
 C                     8.97585   26.61588   8.16742 
 C                     10.38301   19.14262   8.69012 
 C                     10.29821   26.61575   8.64498 
 C                     10.84211   19.04299   10.03654 
 C                     10.60842   26.60774   10.02645 
 C                     9.93797   19.01118   11.07342 
 C                     9.61493   26.59451   11.02287 
 C                     10.20435   19.70008   12.29295 
 C                     9.85329   25.8344   12.23252 
 C                     8.88867   19.90948   13.01217 
 C                     8.71788   25.37958   12.92856 
 C                     7.89847   19.58414   11.92117 
 C                     7.39192   25.49873   12.38315 
 C                     6.74323   20.28332   11.75756 
 C                     7.18033   26.1931   11.22535 
 C                     6.15292   20.37723   10.46001 
 C                     6.22734   25.72321   10.25982 
 C                     6.78404   19.81347   9.32913 
 C                     6.68737   26.2195   9.00761 
 C                     6.44585   20.39179   8.10132 
 C                     6.37598   25.55654   7.85143 
 C                     7.36551   20.38449   6.99278 
 C                     7.33392   25.46754   6.77909 
 C                     8.69106   19.94926   7.14238 
 C                     8.66619   25.89121   6.94881 
 C                     9.72144   20.6129   6.36395 
 C                     9.71329   25.15431   6.26931 
 C                     11.09421   20.59883   6.82526 
 C                     12.88393   22.16252   7.53227 
 C                     12.86209   23.61364   7.53687 
 C                     11.06915   25.16875   6.79777 
 C                     11.40528   19.83797   7.95988 
 C                     13.13111   21.438    8.71239 
 C                     13.06733   24.32762   8.73931 
 C                     11.34405   25.91718   7.94818 
 C                     13.45493   22.15687   9.89641 
 C                     13.40381   23.60694   9.90224 
 C                     13.08839   21.69017   11.1663 
 C                     12.96721   24.03275   11.17736 
 C                     11.32576   20.47701   12.42081 
 C                     11.08897   25.0964   12.38707 
 C                     11.29804   21.55133   13.47771 
 C                     11.08799   23.95597   13.21816 
 C                     11.9368   22.83088   12.99962 
 C                     12.83979   22.85686   11.9881 
 C                     8.74006   21.32615   13.50421 
 C                     8.71842   24.15331   13.64972 
 C                     7.50077   22.04779   13.31236 
 C                     7.49289   23.45001   13.42178 
 C                     6.49855   21.52037   12.46731 
 C                     6.66408   24.28226   12.613 
 C                     5.72376   22.33738   11.62044 
 C                     5.82069   23.74827   11.6168 
 C                     5.47921   21.62428   10.39077 
 C                     5.60802   24.46464   10.37716 
 C                     5.27262   22.29247   9.17613 
 C                     5.30504   23.74369   9.15477 
 C                     5.63223   21.55738   8.01933 
 C                     5.6043    24.35253   7.92287 
 C                     5.95663   22.21795   6.79352 
 C                     5.9448    23.5942   6.74914 
 C                     7.00827   21.47707   6.14873 
 C                     6.99347   24.29324   6.04717 
 C                     7.99542   22.14148   5.4486 
 C                     7.993     23.58629   5.4065 
 C                     9.33884   21.68753   5.53616 
 C                     9.33709   24.04624   5.48639 
 C                     11.94166   21.70911   6.57918 
 C                     11.92621   24.05349   6.57798 
 C                     10.16559   22.86388   5.41313 
 C                     11.42576   22.87576   5.92691 
 C                     9.88949   22.01852   13.77298 
 C                     9.8894    23.44549   13.79242 
 Cl                    8.72367   18.76045   14.41012 
 Cl                    12.10785   20.946    14.98677 
 
 ITRead=  0  0  0  0  0  0  0  0  0  0  0  0  0  0  0  0  0  0  0  0
 ITRead=  0  0  0  0  0  0  0  0  0  0  0  0  0  0  0  0  0  0  0  0
 ITRead=  0  0  0  0  0  0  0  0  0  0  0  0  0  0  0  0  0  0  0  0
 ITRead=  0  0  0  0  0  0  0  0  0  0  0  0  0  0  0  0  0  0  0  0
 ITRead=  0  0  0  0  0  0
 MicOpt= -1 -1 -1 -1 -1 -1 -1 -1 -1 -1 -1 -1 -1 -1 -1 -1 -1 -1 -1 -1
 MicOpt= -1 -1 -1 -1 -1 -1 -1 -1 -1 -1 -1 -1 -1 -1 -1 -1 -1 -1 -1 -1
 MicOpt= -1 -1 -1 -1 -1 -1 -1 -1 -1 -1 -1 -1 -1 -1 -1 -1 -1 -1 -1 -1
 MicOpt= -1 -1 -1 -1 -1 -1 -1 -1 -1 -1 -1 -1 -1 -1 -1 -1 -1 -1 -1 -1
 MicOpt= -1 -1 -1 -1 -1 -1
 NAtoms=     86 NQM=       86 NQMF=       0 NMMI=      0 NMMIF=      0
                NMic=       0 NMicF=      0.
                    Isotopes and Nuclear Properties:
 (Nuclear quadrupole moments (NQMom) in fm**2, nuclear magnetic moments (NMagM)
  in nuclear magnetons)

  Atom         1           2           3           4           5           6           7           8           9          10
 IAtWgt=          12          12          12          12          12          12          12          12          12          12
 AtmWgt=  12.0000000  12.0000000  12.0000000  12.0000000  12.0000000  12.0000000  12.0000000  12.0000000  12.0000000  12.0000000
 NucSpn=           0           0           0           0           0           0           0           0           0           0
 AtZEff=  -0.0000000  -0.0000000  -0.0000000  -0.0000000  -0.0000000  -0.0000000  -0.0000000  -0.0000000  -0.0000000  -0.0000000
 NQMom=    0.0000000   0.0000000   0.0000000   0.0000000   0.0000000   0.0000000   0.0000000   0.0000000   0.0000000   0.0000000
 NMagM=    0.0000000   0.0000000   0.0000000   0.0000000   0.0000000   0.0000000   0.0000000   0.0000000   0.0000000   0.0000000
 AtZNuc=   6.0000000   6.0000000   6.0000000   6.0000000   6.0000000   6.0000000   6.0000000   6.0000000   6.0000000   6.0000000

  Atom        11          12          13          14          15          16          17          18          19          20
 IAtWgt=          12          12          12          12          12          12          12          12          12          12
 AtmWgt=  12.0000000  12.0000000  12.0000000  12.0000000  12.0000000  12.0000000  12.0000000  12.0000000  12.0000000  12.0000000
 NucSpn=           0           0           0           0           0           0           0           0           0           0
 AtZEff=  -0.0000000  -0.0000000  -0.0000000  -0.0000000  -0.0000000  -0.0000000  -0.0000000  -0.0000000  -0.0000000  -0.0000000
 NQMom=    0.0000000   0.0000000   0.0000000   0.0000000   0.0000000   0.0000000   0.0000000   0.0000000   0.0000000   0.0000000
 NMagM=    0.0000000   0.0000000   0.0000000   0.0000000   0.0000000   0.0000000   0.0000000   0.0000000   0.0000000   0.0000000
 AtZNuc=   6.0000000   6.0000000   6.0000000   6.0000000   6.0000000   6.0000000   6.0000000   6.0000000   6.0000000   6.0000000

  Atom        21          22          23          24          25          26          27          28          29          30
 IAtWgt=          12          12          12          12          12          12          12          12          12          12
 AtmWgt=  12.0000000  12.0000000  12.0000000  12.0000000  12.0000000  12.0000000  12.0000000  12.0000000  12.0000000  12.0000000
 NucSpn=           0           0           0           0           0           0           0           0           0           0
 AtZEff=  -0.0000000  -0.0000000  -0.0000000  -0.0000000  -0.0000000  -0.0000000  -0.0000000  -0.0000000  -0.0000000  -0.0000000
 NQMom=    0.0000000   0.0000000   0.0000000   0.0000000   0.0000000   0.0000000   0.0000000   0.0000000   0.0000000   0.0000000
 NMagM=    0.0000000   0.0000000   0.0000000   0.0000000   0.0000000   0.0000000   0.0000000   0.0000000   0.0000000   0.0000000
 AtZNuc=   6.0000000   6.0000000   6.0000000   6.0000000   6.0000000   6.0000000   6.0000000   6.0000000   6.0000000   6.0000000

  Atom        31          32          33          34          35          36          37          38          39          40
 IAtWgt=          12          12          12          12          12          12          12          12          12          12
 AtmWgt=  12.0000000  12.0000000  12.0000000  12.0000000  12.0000000  12.0000000  12.0000000  12.0000000  12.0000000  12.0000000
 NucSpn=           0           0           0           0           0           0           0           0           0           0
 AtZEff=  -0.0000000  -0.0000000  -0.0000000  -0.0000000  -0.0000000  -0.0000000  -0.0000000  -0.0000000  -0.0000000  -0.0000000
 NQMom=    0.0000000   0.0000000   0.0000000   0.0000000   0.0000000   0.0000000   0.0000000   0.0000000   0.0000000   0.0000000
 NMagM=    0.0000000   0.0000000   0.0000000   0.0000000   0.0000000   0.0000000   0.0000000   0.0000000   0.0000000   0.0000000
 AtZNuc=   6.0000000   6.0000000   6.0000000   6.0000000   6.0000000   6.0000000   6.0000000   6.0000000   6.0000000   6.0000000

  Atom        41          42          43          44          45          46          47          48          49          50
 IAtWgt=          12          12          12          12          12          12          12          12          12          12
 AtmWgt=  12.0000000  12.0000000  12.0000000  12.0000000  12.0000000  12.0000000  12.0000000  12.0000000  12.0000000  12.0000000
 NucSpn=           0           0           0           0           0           0           0           0           0           0
 AtZEff=  -0.0000000  -0.0000000  -0.0000000  -0.0000000  -0.0000000  -0.0000000  -0.0000000  -0.0000000  -0.0000000  -0.0000000
 NQMom=    0.0000000   0.0000000   0.0000000   0.0000000   0.0000000   0.0000000   0.0000000   0.0000000   0.0000000   0.0000000
 NMagM=    0.0000000   0.0000000   0.0000000   0.0000000   0.0000000   0.0000000   0.0000000   0.0000000   0.0000000   0.0000000
 AtZNuc=   6.0000000   6.0000000   6.0000000   6.0000000   6.0000000   6.0000000   6.0000000   6.0000000   6.0000000   6.0000000

  Atom        51          52          53          54          55          56          57          58          59          60
 IAtWgt=          12          12          12          12          12          12          12          12          12          12
 AtmWgt=  12.0000000  12.0000000  12.0000000  12.0000000  12.0000000  12.0000000  12.0000000  12.0000000  12.0000000  12.0000000
 NucSpn=           0           0           0           0           0           0           0           0           0           0
 AtZEff=  -0.0000000  -0.0000000  -0.0000000  -0.0000000  -0.0000000  -0.0000000  -0.0000000  -0.0000000  -0.0000000  -0.0000000
 NQMom=    0.0000000   0.0000000   0.0000000   0.0000000   0.0000000   0.0000000   0.0000000   0.0000000   0.0000000   0.0000000
 NMagM=    0.0000000   0.0000000   0.0000000   0.0000000   0.0000000   0.0000000   0.0000000   0.0000000   0.0000000   0.0000000
 AtZNuc=   6.0000000   6.0000000   6.0000000   6.0000000   6.0000000   6.0000000   6.0000000   6.0000000   6.0000000   6.0000000

  Atom        61          62          63          64          65          66          67          68          69          70
 IAtWgt=          12          12          12          12          12          12          12          12          12          12
 AtmWgt=  12.0000000  12.0000000  12.0000000  12.0000000  12.0000000  12.0000000  12.0000000  12.0000000  12.0000000  12.0000000
 NucSpn=           0           0           0           0           0           0           0           0           0           0
 AtZEff=  -0.0000000  -0.0000000  -0.0000000  -0.0000000  -0.0000000  -0.0000000  -0.0000000  -0.0000000  -0.0000000  -0.0000000
 NQMom=    0.0000000   0.0000000   0.0000000   0.0000000   0.0000000   0.0000000   0.0000000   0.0000000   0.0000000   0.0000000
 NMagM=    0.0000000   0.0000000   0.0000000   0.0000000   0.0000000   0.0000000   0.0000000   0.0000000   0.0000000   0.0000000
 AtZNuc=   6.0000000   6.0000000   6.0000000   6.0000000   6.0000000   6.0000000   6.0000000   6.0000000   6.0000000   6.0000000

  Atom        71          72          73          74          75          76          77          78          79          80
 IAtWgt=          12          12          12          12          12          12          12          12          12          12
 AtmWgt=  12.0000000  12.0000000  12.0000000  12.0000000  12.0000000  12.0000000  12.0000000  12.0000000  12.0000000  12.0000000
 NucSpn=           0           0           0           0           0           0           0           0           0           0
 AtZEff=  -0.0000000  -0.0000000  -0.0000000  -0.0000000  -0.0000000  -0.0000000  -0.0000000  -0.0000000  -0.0000000  -0.0000000
 NQMom=    0.0000000   0.0000000   0.0000000   0.0000000   0.0000000   0.0000000   0.0000000   0.0000000   0.0000000   0.0000000
 NMagM=    0.0000000   0.0000000   0.0000000   0.0000000   0.0000000   0.0000000   0.0000000   0.0000000   0.0000000   0.0000000
 AtZNuc=   6.0000000   6.0000000   6.0000000   6.0000000   6.0000000   6.0000000   6.0000000   6.0000000   6.0000000   6.0000000

  Atom        81          82          83          84          85          86
 IAtWgt=          12          12          12          12          35          35
 AtmWgt=  12.0000000  12.0000000  12.0000000  12.0000000  34.9688527  34.9688527
 NucSpn=           0           0           0           0           3           3
 AtZEff=  -0.0000000  -0.0000000  -0.0000000  -0.0000000  -0.0000000  -0.0000000
 NQMom=    0.0000000   0.0000000   0.0000000   0.0000000  -8.1650000  -8.1650000
 NMagM=    0.0000000   0.0000000   0.0000000   0.0000000   0.8218740   0.8218740
 AtZNuc=   6.0000000   6.0000000   6.0000000   6.0000000  17.0000000  17.0000000
 Leave Link  101 at Mon Jun 27 05:04:15 2022, MaxMem=  1342177280 cpu:               6.5 elap:               0.3
 (Enter /home/mkliu/g16/l103.exe)

 GradGradGradGradGradGradGradGradGradGradGradGradGradGradGradGradGradGrad
 Berny optimization.
 Initialization pass.
                           ----------------------------
                           !    Initial Parameters    !
                           ! (Angstroms and Degrees)  !
 --------------------------                            --------------------------
 ! Name  Definition              Value          Derivative Info.                !
 --------------------------------------------------------------------------------
 ! R1    R(1,5)                  1.4123         estimate D2E/DX2                !
 ! R2    R(1,17)                 1.4214         estimate D2E/DX2                !
 ! R3    R(1,23)                 1.4246         estimate D2E/DX2                !
 ! R4    R(2,6)                  1.4319         estimate D2E/DX2                !
 ! R5    R(2,43)                 1.4284         estimate D2E/DX2                !
 ! R6    R(2,44)                 1.4097         estimate D2E/DX2                !
 ! R7    R(3,7)                  1.4213         estimate D2E/DX2                !
 ! R8    R(3,18)                 1.4118         estimate D2E/DX2                !
 ! R9    R(3,26)                 1.439          estimate D2E/DX2                !
 ! R10   R(4,8)                  1.4264         estimate D2E/DX2                !
 ! R11   R(4,45)                 1.4132         estimate D2E/DX2                !
 ! R12   R(4,46)                 1.4257         estimate D2E/DX2                !
 ! R13   R(5,9)                  1.4487         estimate D2E/DX2                !
 ! R14   R(5,29)                 1.4381         estimate D2E/DX2                !
 ! R15   R(6,10)                 1.4059         estimate D2E/DX2                !
 ! R16   R(6,15)                 1.4237         estimate D2E/DX2                !
 ! R17   R(7,12)                 1.4106         estimate D2E/DX2                !
 ! R18   R(7,30)                 1.4393         estimate D2E/DX2                !
 ! R19   R(8,11)                 1.4025         estimate D2E/DX2                !
 ! R20   R(8,16)                 1.4353         estimate D2E/DX2                !
 ! R21   R(9,13)                 1.4001         estimate D2E/DX2                !
 ! R22   R(9,35)                 1.4505         estimate D2E/DX2                !
 ! R23   R(10,49)                1.4229         estimate D2E/DX2                !
 ! R24   R(10,51)                1.4464         estimate D2E/DX2                !
 ! R25   R(11,50)                1.4193         estimate D2E/DX2                !
 ! R26   R(11,52)                1.4489         estimate D2E/DX2                !
 ! R27   R(12,14)                1.406          estimate D2E/DX2                !
 ! R28   R(12,36)                1.4512         estimate D2E/DX2                !
 ! R29   R(13,15)                1.426          estimate D2E/DX2                !
 ! R30   R(13,43)                1.4359         estimate D2E/DX2                !
 ! R31   R(14,16)                1.4159         estimate D2E/DX2                !
 ! R32   R(14,46)                1.4378         estimate D2E/DX2                !
 ! R33   R(15,17)                1.3761         estimate D2E/DX2                !
 ! R34   R(16,18)                1.4071         estimate D2E/DX2                !
 ! R35   R(17,19)                1.4258         estimate D2E/DX2                !
 ! R36   R(18,20)                1.4484         estimate D2E/DX2                !
 ! R37   R(19,21)                1.514          estimate D2E/DX2                !
 ! R38   R(19,51)                1.3702         estimate D2E/DX2                !
 ! R39   R(20,22)                1.4073         estimate D2E/DX2                !
 ! R40   R(20,52)                1.4476         estimate D2E/DX2                !
 ! R41   R(21,23)                1.5088         estimate D2E/DX2                !
 ! R42   R(21,57)                1.507          estimate D2E/DX2                !
 ! R43   R(21,85)                1.8171         estimate D2E/DX2                !
 ! R44   R(22,24)                1.4387         estimate D2E/DX2                !
 ! R45   R(22,58)                1.4226         estimate D2E/DX2                !
 ! R46   R(23,25)                1.3602         estimate D2E/DX2                !
 ! R47   R(24,26)                1.3665         estimate D2E/DX2                !
 ! R48   R(24,62)                1.4361         estimate D2E/DX2                !
 ! R49   R(25,27)                1.4286         estimate D2E/DX2                !
 ! R50   R(25,61)                1.447          estimate D2E/DX2                !
 ! R51   R(26,28)                1.4357         estimate D2E/DX2                !
 ! R52   R(27,29)                1.4125         estimate D2E/DX2                !
 ! R53   R(27,65)                1.4191         estimate D2E/DX2                !
 ! R54   R(28,30)                1.4234         estimate D2E/DX2                !
 ! R55   R(28,66)                1.4076         estimate D2E/DX2                !
 ! R56   R(29,31)                1.3987         estimate D2E/DX2                !
 ! R57   R(30,32)                1.3687         estimate D2E/DX2                !
 ! R58   R(31,33)                1.4404         estimate D2E/DX2                !
 ! R59   R(31,69)                1.4238         estimate D2E/DX2                !
 ! R60   R(32,34)                1.4407         estimate D2E/DX2                !
 ! R61   R(32,70)                1.4319         estimate D2E/DX2                !
 ! R62   R(33,35)                1.4032         estimate D2E/DX2                !
 ! R63   R(33,73)                1.4261         estimate D2E/DX2                !
 ! R64   R(34,36)                1.4083         estimate D2E/DX2                !
 ! R65   R(34,74)                1.425          estimate D2E/DX2                !
 ! R66   R(35,37)                1.4519         estimate D2E/DX2                !
 ! R67   R(36,38)                1.4495         estimate D2E/DX2                !
 ! R68   R(37,39)                1.4483         estimate D2E/DX2                !
 ! R69   R(37,77)                1.4094         estimate D2E/DX2                !
 ! R70   R(38,42)                1.4553         estimate D2E/DX2                !
 ! R71   R(38,78)                1.4079         estimate D2E/DX2                !
 ! R72   R(39,43)                1.4011         estimate D2E/DX2                !
 ! R73   R(39,79)                1.4183         estimate D2E/DX2                !
 ! R74   R(40,41)                1.4513         estimate D2E/DX2                !
 ! R75   R(40,44)                1.4067         estimate D2E/DX2                !
 ! R76   R(40,79)                1.4149         estimate D2E/DX2                !
 ! R77   R(41,45)                1.4134         estimate D2E/DX2                !
 ! R78   R(41,80)                1.4102         estimate D2E/DX2                !
 ! R79   R(42,46)                1.3997         estimate D2E/DX2                !
 ! R80   R(42,80)                1.4236         estimate D2E/DX2                !
 ! R81   R(44,47)                1.4225         estimate D2E/DX2                !
 ! R82   R(45,48)                1.4089         estimate D2E/DX2                !
 ! R83   R(47,48)                1.451          estimate D2E/DX2                !
 ! R84   R(47,49)                1.4017         estimate D2E/DX2                !
 ! R85   R(48,50)                1.4135         estimate D2E/DX2                !
 ! R86   R(49,56)                1.4486         estimate D2E/DX2                !
 ! R87   R(50,56)                1.434          estimate D2E/DX2                !
 ! R88   R(51,53)                1.5073         estimate D2E/DX2                !
 ! R89   R(52,54)                1.4111         estimate D2E/DX2                !
 ! R90   R(53,55)                1.5079         estimate D2E/DX2                !
 ! R91   R(53,83)                1.5131         estimate D2E/DX2                !
 ! R92   R(53,86)                1.8164         estimate D2E/DX2                !
 ! R93   R(54,55)                1.4262         estimate D2E/DX2                !
 ! R94   R(54,84)                1.4237         estimate D2E/DX2                !
 ! R95   R(55,56)                1.3562         estimate D2E/DX2                !
 ! R96   R(57,59)                1.4469         estimate D2E/DX2                !
 ! R97   R(57,83)                1.3685         estimate D2E/DX2                !
 ! R98   R(58,60)                1.4313         estimate D2E/DX2                !
 ! R99   R(58,84)                1.3757         estimate D2E/DX2                !
 ! R100  R(59,60)                1.4065         estimate D2E/DX2                !
 ! R101  R(59,61)                1.4131         estimate D2E/DX2                !
 ! R102  R(60,62)                1.4261         estimate D2E/DX2                !
 ! R103  R(61,63)                1.4089         estimate D2E/DX2                !
 ! R104  R(62,64)                1.4103         estimate D2E/DX2                !
 ! R105  R(63,64)                1.4142         estimate D2E/DX2                !
 ! R106  R(63,65)                1.4424         estimate D2E/DX2                !
 ! R107  R(64,66)                1.4475         estimate D2E/DX2                !
 ! R108  R(65,67)                1.4016         estimate D2E/DX2                !
 ! R109  R(66,68)                1.4511         estimate D2E/DX2                !
 ! R110  R(67,68)                1.4517         estimate D2E/DX2                !
 ! R111  R(67,69)                1.417          estimate D2E/DX2                !
 ! R112  R(68,70)                1.4064         estimate D2E/DX2                !
 ! R113  R(69,71)                1.4298         estimate D2E/DX2                !
 ! R114  R(70,72)                1.4383         estimate D2E/DX2                !
 ! R115  R(71,72)                1.377          estimate D2E/DX2                !
 ! R116  R(71,73)                1.439          estimate D2E/DX2                !
 ! R117  R(72,74)                1.4426         estimate D2E/DX2                !
 ! R118  R(73,75)                1.3806         estimate D2E/DX2                !
 ! R119  R(74,76)                1.3818         estimate D2E/DX2                !
 ! R120  R(75,76)                1.4454         estimate D2E/DX2                !
 ! R121  R(75,77)                1.4207         estimate D2E/DX2                !
 ! R122  R(76,78)                1.4229         estimate D2E/DX2                !
 ! R123  R(77,81)                1.4431         estimate D2E/DX2                !
 ! R124  R(78,81)                1.4456         estimate D2E/DX2                !
 ! R125  R(79,82)                1.4327         estimate D2E/DX2                !
 ! R126  R(80,82)                1.4358         estimate D2E/DX2                !
 ! R127  R(81,82)                1.3609         estimate D2E/DX2                !
 ! R128  R(83,84)                1.4271         estimate D2E/DX2                !
 ! A1    A(5,1,17)             121.4864         estimate D2E/DX2                !
 ! A2    A(5,1,23)             123.1935         estimate D2E/DX2                !
 ! A3    A(17,1,23)            106.5928         estimate D2E/DX2                !
 ! A4    A(6,2,43)             108.2354         estimate D2E/DX2                !
 ! A5    A(6,2,44)             120.6363         estimate D2E/DX2                !
 ! A6    A(43,2,44)            121.0483         estimate D2E/DX2                !
 ! A7    A(7,3,18)             122.0434         estimate D2E/DX2                !
 ! A8    A(7,3,26)             107.1531         estimate D2E/DX2                !
 ! A9    A(18,3,26)            120.5496         estimate D2E/DX2                !
 ! A10   A(8,4,45)             120.9649         estimate D2E/DX2                !
 ! A11   A(8,4,46)             107.9316         estimate D2E/DX2                !
 ! A12   A(45,4,46)            121.287          estimate D2E/DX2                !
 ! A13   A(1,5,9)              118.9583         estimate D2E/DX2                !
 ! A14   A(1,5,29)             116.0801         estimate D2E/DX2                !
 ! A15   A(9,5,29)             119.5123         estimate D2E/DX2                !
 ! A16   A(2,6,10)             122.7276         estimate D2E/DX2                !
 ! A17   A(2,6,15)             106.8958         estimate D2E/DX2                !
 ! A18   A(10,6,15)            120.1814         estimate D2E/DX2                !
 ! A19   A(3,7,12)             122.3987         estimate D2E/DX2                !
 ! A20   A(3,7,30)             107.2306         estimate D2E/DX2                !
 ! A21   A(12,7,30)            120.1384         estimate D2E/DX2                !
 ! A22   A(4,8,11)             122.1345         estimate D2E/DX2                !
 ! A23   A(4,8,16)             108.0286         estimate D2E/DX2                !
 ! A24   A(11,8,16)            121.2179         estimate D2E/DX2                !
 ! A25   A(5,9,13)             117.8855         estimate D2E/DX2                !
 ! A26   A(5,9,35)             121.0111         estimate D2E/DX2                !
 ! A27   A(13,9,35)            117.0074         estimate D2E/DX2                !
 ! A28   A(6,10,49)            115.3298         estimate D2E/DX2                !
 ! A29   A(6,10,51)            118.9855         estimate D2E/DX2                !
 ! A30   A(49,10,51)           119.6368         estimate D2E/DX2                !
 ! A31   A(8,11,50)            115.8498         estimate D2E/DX2                !
 ! A32   A(8,11,52)            118.749          estimate D2E/DX2                !
 ! A33   A(50,11,52)           119.237          estimate D2E/DX2                !
 ! A34   A(7,12,14)            114.5969         estimate D2E/DX2                !
 ! A35   A(7,12,36)            120.6679         estimate D2E/DX2                !
 ! A36   A(14,12,36)           119.0699         estimate D2E/DX2                !
 ! A37   A(9,13,15)            121.9436         estimate D2E/DX2                !
 ! A38   A(9,13,43)            122.3455         estimate D2E/DX2                !
 ! A39   A(15,13,43)           106.5465         estimate D2E/DX2                !
 ! A40   A(12,14,16)           122.5123         estimate D2E/DX2                !
 ! A41   A(12,14,46)           121.303          estimate D2E/DX2                !
 ! A42   A(16,14,46)           108.1031         estimate D2E/DX2                !
 ! A43   A(6,15,13)            109.6328         estimate D2E/DX2                !
 ! A44   A(6,15,17)            119.6539         estimate D2E/DX2                !
 ! A45   A(13,15,17)           120.1007         estimate D2E/DX2                !
 ! A46   A(8,16,14)            108.0058         estimate D2E/DX2                !
 ! A47   A(8,16,18)            121.3612         estimate D2E/DX2                !
 ! A48   A(14,16,18)           122.4298         estimate D2E/DX2                !
 ! A49   A(1,17,15)            119.3095         estimate D2E/DX2                !
 ! A50   A(1,17,19)            110.7046         estimate D2E/DX2                !
 ! A51   A(15,17,19)           120.7025         estimate D2E/DX2                !
 ! A52   A(3,18,16)            114.7356         estimate D2E/DX2                !
 ! A53   A(3,18,20)            120.4917         estimate D2E/DX2                !
 ! A54   A(16,18,20)           118.6941         estimate D2E/DX2                !
 ! A55   A(17,19,21)           108.1075         estimate D2E/DX2                !
 ! A56   A(17,19,51)           120.4439         estimate D2E/DX2                !
 ! A57   A(21,19,51)           126.0479         estimate D2E/DX2                !
 ! A58   A(18,20,22)           116.7369         estimate D2E/DX2                !
 ! A59   A(18,20,52)           119.8154         estimate D2E/DX2                !
 ! A60   A(22,20,52)           118.1083         estimate D2E/DX2                !
 ! A61   A(19,21,23)           101.3606         estimate D2E/DX2                !
 ! A62   A(19,21,57)           111.766          estimate D2E/DX2                !
 ! A63   A(19,21,85)           110.9121         estimate D2E/DX2                !
 ! A64   A(23,21,57)           111.9654         estimate D2E/DX2                !
 ! A65   A(23,21,85)           111.1214         estimate D2E/DX2                !
 ! A66   A(57,21,85)           109.5299         estimate D2E/DX2                !
 ! A67   A(20,22,24)           121.9591         estimate D2E/DX2                !
 ! A68   A(20,22,58)           121.9372         estimate D2E/DX2                !
 ! A69   A(24,22,58)           105.3026         estimate D2E/DX2                !
 ! A70   A(1,23,21)            111.3394         estimate D2E/DX2                !
 ! A71   A(1,23,25)            119.5445         estimate D2E/DX2                !
 ! A72   A(21,23,25)           122.2426         estimate D2E/DX2                !
 ! A73   A(22,24,26)           120.3965         estimate D2E/DX2                !
 ! A74   A(22,24,62)           109.6507         estimate D2E/DX2                !
 ! A75   A(26,24,62)           119.1793         estimate D2E/DX2                !
 ! A76   A(23,25,27)           119.6021         estimate D2E/DX2                !
 ! A77   A(23,25,61)           121.6037         estimate D2E/DX2                !
 ! A78   A(27,25,61)           108.6281         estimate D2E/DX2                !
 ! A79   A(3,26,24)            119.3157         estimate D2E/DX2                !
 ! A80   A(3,26,28)            109.6649         estimate D2E/DX2                !
 ! A81   A(24,26,28)           120.4151         estimate D2E/DX2                !
 ! A82   A(25,27,29)           121.0867         estimate D2E/DX2                !
 ! A83   A(25,27,65)           107.3528         estimate D2E/DX2                !
 ! A84   A(29,27,65)           121.5879         estimate D2E/DX2                !
 ! A85   A(26,28,30)           105.2479         estimate D2E/DX2                !
 ! A86   A(26,28,66)           121.9131         estimate D2E/DX2                !
 ! A87   A(30,28,66)           121.8233         estimate D2E/DX2                !
 ! A88   A(5,29,27)            119.952          estimate D2E/DX2                !
 ! A89   A(5,29,31)            118.6985         estimate D2E/DX2                !
 ! A90   A(27,29,31)           115.4528         estimate D2E/DX2                !
 ! A91   A(7,30,28)            109.9646         estimate D2E/DX2                !
 ! A92   A(7,30,32)            119.5886         estimate D2E/DX2                !
 ! A93   A(28,30,32)           120.0492         estimate D2E/DX2                !
 ! A94   A(29,31,33)           121.2729         estimate D2E/DX2                !
 ! A95   A(29,31,69)           121.8157         estimate D2E/DX2                !
 ! A96   A(33,31,69)           108.9465         estimate D2E/DX2                !
 ! A97   A(30,32,34)           120.4924         estimate D2E/DX2                !
 ! A98   A(30,32,70)           119.1949         estimate D2E/DX2                !
 ! A99   A(34,32,70)           110.093          estimate D2E/DX2                !
 ! A100  A(31,33,35)           121.5128         estimate D2E/DX2                !
 ! A101  A(31,33,73)           106.9586         estimate D2E/DX2                !
 ! A102  A(35,33,73)           122.5056         estimate D2E/DX2                !
 ! A103  A(32,34,36)           121.3831         estimate D2E/DX2                !
 ! A104  A(32,34,74)           105.9241         estimate D2E/DX2                !
 ! A105  A(36,34,74)           122.4008         estimate D2E/DX2                !
 ! A106  A(9,35,33)            116.966          estimate D2E/DX2                !
 ! A107  A(9,35,37)            120.6081         estimate D2E/DX2                !
 ! A108  A(33,35,37)           118.1303         estimate D2E/DX2                !
 ! A109  A(12,36,34)           116.955          estimate D2E/DX2                !
 ! A110  A(12,36,38)           119.5608         estimate D2E/DX2                !
 ! A111  A(34,36,38)           118.2908         estimate D2E/DX2                !
 ! A112  A(35,37,39)           119.8326         estimate D2E/DX2                !
 ! A113  A(35,37,77)           118.0825         estimate D2E/DX2                !
 ! A114  A(39,37,77)           116.8589         estimate D2E/DX2                !
 ! A115  A(36,38,42)           119.8509         estimate D2E/DX2                !
 ! A116  A(36,38,78)           117.888          estimate D2E/DX2                !
 ! A117  A(42,38,78)           117.3026         estimate D2E/DX2                !
 ! A118  A(37,39,43)           118.2723         estimate D2E/DX2                !
 ! A119  A(37,39,79)           120.2322         estimate D2E/DX2                !
 ! A120  A(43,39,79)           115.6567         estimate D2E/DX2                !
 ! A121  A(41,40,44)           120.9964         estimate D2E/DX2                !
 ! A122  A(41,40,79)           108.2119         estimate D2E/DX2                !
 ! A123  A(44,40,79)           121.1388         estimate D2E/DX2                !
 ! A124  A(40,41,45)           120.3706         estimate D2E/DX2                !
 ! A125  A(40,41,80)           108.6439         estimate D2E/DX2                !
 ! A126  A(45,41,80)           121.1494         estimate D2E/DX2                !
 ! A127  A(38,42,46)           119.1273         estimate D2E/DX2                !
 ! A128  A(38,42,80)           119.8058         estimate D2E/DX2                !
 ! A129  A(46,42,80)           115.3117         estimate D2E/DX2                !
 ! A130  A(2,43,13)            108.3727         estimate D2E/DX2                !
 ! A131  A(2,43,39)            122.0959         estimate D2E/DX2                !
 ! A132  A(13,43,39)           121.1144         estimate D2E/DX2                !
 ! A133  A(2,44,40)            116.9442         estimate D2E/DX2                !
 ! A134  A(2,44,47)            116.7472         estimate D2E/DX2                !
 ! A135  A(40,44,47)           118.5554         estimate D2E/DX2                !
 ! A136  A(4,45,41)            116.662          estimate D2E/DX2                !
 ! A137  A(4,45,48)            117.1442         estimate D2E/DX2                !
 ! A138  A(41,45,48)           118.5874         estimate D2E/DX2                !
 ! A139  A(4,46,14)            107.8711         estimate D2E/DX2                !
 ! A140  A(4,46,42)            122.4274         estimate D2E/DX2                !
 ! A141  A(14,46,42)           121.0138         estimate D2E/DX2                !
 ! A142  A(44,47,48)           120.0236         estimate D2E/DX2                !
 ! A143  A(44,47,49)           121.755          estimate D2E/DX2                !
 ! A144  A(48,47,49)           108.6564         estimate D2E/DX2                !
 ! A145  A(45,48,47)           121.0844         estimate D2E/DX2                !
 ! A146  A(45,48,50)           121.1154         estimate D2E/DX2                !
 ! A147  A(47,48,50)           108.3954         estimate D2E/DX2                !
 ! A148  A(10,49,47)           122.2674         estimate D2E/DX2                !
 ! A149  A(10,49,56)           119.4926         estimate D2E/DX2                !
 ! A150  A(47,49,56)           106.8992         estimate D2E/DX2                !
 ! A151  A(11,50,48)           122.2085         estimate D2E/DX2                !
 ! A152  A(11,50,56)           121.21           estimate D2E/DX2                !
 ! A153  A(48,50,56)           106.8849         estimate D2E/DX2                !
 ! A154  A(10,51,19)           119.775          estimate D2E/DX2                !
 ! A155  A(10,51,53)           120.6553         estimate D2E/DX2                !
 ! A156  A(19,51,53)           117.0333         estimate D2E/DX2                !
 ! A157  A(11,52,20)           120.1228         estimate D2E/DX2                !
 ! A158  A(11,52,54)           116.6163         estimate D2E/DX2                !
 ! A159  A(20,52,54)           118.3144         estimate D2E/DX2                !
 ! A160  A(51,53,55)           112.0053         estimate D2E/DX2                !
 ! A161  A(51,53,83)           111.9639         estimate D2E/DX2                !
 ! A162  A(51,53,86)           109.6824         estimate D2E/DX2                !
 ! A163  A(55,53,83)           101.198          estimate D2E/DX2                !
 ! A164  A(55,53,86)           110.9364         estimate D2E/DX2                !
 ! A165  A(83,53,86)           110.842          estimate D2E/DX2                !
 ! A166  A(52,54,55)           123.1529         estimate D2E/DX2                !
 ! A167  A(52,54,84)           121.8644         estimate D2E/DX2                !
 ! A168  A(55,54,84)           106.2602         estimate D2E/DX2                !
 ! A169  A(53,55,54)           111.6357         estimate D2E/DX2                !
 ! A170  A(53,55,56)           122.3289         estimate D2E/DX2                !
 ! A171  A(54,55,56)           119.6996         estimate D2E/DX2                !
 ! A172  A(49,56,50)           108.9328         estimate D2E/DX2                !
 ! A173  A(49,56,55)           121.4653         estimate D2E/DX2                !
 ! A174  A(50,56,55)           119.7729         estimate D2E/DX2                !
 ! A175  A(21,57,59)           120.6663         estimate D2E/DX2                !
 ! A176  A(21,57,83)           117.1865         estimate D2E/DX2                !
 ! A177  A(59,57,83)           119.546          estimate D2E/DX2                !
 ! A178  A(22,58,60)           110.0296         estimate D2E/DX2                !
 ! A179  A(22,58,84)           119.7634         estimate D2E/DX2                !
 ! A180  A(60,58,84)           119.5071         estimate D2E/DX2                !
 ! A181  A(57,59,60)           119.4541         estimate D2E/DX2                !
 ! A182  A(57,59,61)           120.042          estimate D2E/DX2                !
 ! A183  A(60,59,61)           114.4981         estimate D2E/DX2                !
 ! A184  A(58,60,59)           119.8334         estimate D2E/DX2                !
 ! A185  A(58,60,62)           107.5297         estimate D2E/DX2                !
 ! A186  A(59,60,62)           122.7485         estimate D2E/DX2                !
 ! A187  A(25,61,59)           119.5041         estimate D2E/DX2                !
 ! A188  A(25,61,63)           107.0921         estimate D2E/DX2                !
 ! A189  A(59,61,63)           122.2127         estimate D2E/DX2                !
 ! A190  A(24,62,60)           106.891          estimate D2E/DX2                !
 ! A191  A(24,62,64)           120.7157         estimate D2E/DX2                !
 ! A192  A(60,62,64)           121.8169         estimate D2E/DX2                !
 ! A193  A(61,63,64)           122.846          estimate D2E/DX2                !
 ! A194  A(61,63,65)           108.6017         estimate D2E/DX2                !
 ! A195  A(64,63,65)           120.1761         estimate D2E/DX2                !
 ! A196  A(62,64,63)           114.6408         estimate D2E/DX2                !
 ! A197  A(62,64,66)           120.3601         estimate D2E/DX2                !
 ! A198  A(63,64,66)           119.0707         estimate D2E/DX2                !
 ! A199  A(27,65,63)           108.202          estimate D2E/DX2                !
 ! A200  A(27,65,67)           122.0863         estimate D2E/DX2                !
 ! A201  A(63,65,67)           121.8779         estimate D2E/DX2                !
 ! A202  A(28,66,64)           116.6967         estimate D2E/DX2                !
 ! A203  A(28,66,68)           117.7661         estimate D2E/DX2                !
 ! A204  A(64,66,68)           120.4122         estimate D2E/DX2                !
 ! A205  A(65,67,68)           119.0792         estimate D2E/DX2                !
 ! A206  A(65,67,69)           115.0088         estimate D2E/DX2                !
 ! A207  A(68,67,69)           120.0598         estimate D2E/DX2                !
 ! A208  A(66,68,67)           119.2689         estimate D2E/DX2                !
 ! A209  A(66,68,70)           118.5785         estimate D2E/DX2                !
 ! A210  A(67,68,70)           116.7698         estimate D2E/DX2                !
 ! A211  A(31,69,67)           121.513          estimate D2E/DX2                !
 ! A212  A(31,69,71)           107.3334         estimate D2E/DX2                !
 ! A213  A(67,69,71)           121.1869         estimate D2E/DX2                !
 ! A214  A(32,70,68)           121.4941         estimate D2E/DX2                !
 ! A215  A(32,70,72)           105.9651         estimate D2E/DX2                !
 ! A216  A(68,70,72)           122.4763         estimate D2E/DX2                !
 ! A217  A(69,71,72)           119.1725         estimate D2E/DX2                !
 ! A218  A(69,71,73)           108.1871         estimate D2E/DX2                !
 ! A219  A(72,71,73)           120.4258         estimate D2E/DX2                !
 ! A220  A(70,72,71)           120.1782         estimate D2E/DX2                !
 ! A221  A(70,72,74)           108.2819         estimate D2E/DX2                !
 ! A222  A(71,72,74)           119.5865         estimate D2E/DX2                !
 ! A223  A(33,73,71)           108.1992         estimate D2E/DX2                !
 ! A224  A(33,73,75)           119.3226         estimate D2E/DX2                !
 ! A225  A(71,73,75)           120.1331         estimate D2E/DX2                !
 ! A226  A(34,74,72)           108.8484         estimate D2E/DX2                !
 ! A227  A(34,74,76)           119.1403         estimate D2E/DX2                !
 ! A228  A(72,74,76)           120.2335         estimate D2E/DX2                !
 ! A229  A(73,75,76)           119.6441         estimate D2E/DX2                !
 ! A230  A(73,75,77)           119.411          estimate D2E/DX2                !
 ! A231  A(76,75,77)           108.8299         estimate D2E/DX2                !
 ! A232  A(74,76,75)           119.9417         estimate D2E/DX2                !
 ! A233  A(74,76,78)           119.4654         estimate D2E/DX2                !
 ! A234  A(75,76,78)           108.6573         estimate D2E/DX2                !
 ! A235  A(37,77,75)           122.4464         estimate D2E/DX2                !
 ! A236  A(37,77,81)           121.0701         estimate D2E/DX2                !
 ! A237  A(75,77,81)           106.0225         estimate D2E/DX2                !
 ! A238  A(38,78,76)           122.5505         estimate D2E/DX2                !
 ! A239  A(38,78,81)           121.2478         estimate D2E/DX2                !
 ! A240  A(76,78,81)           105.9112         estimate D2E/DX2                !
 ! A241  A(39,79,40)           122.136          estimate D2E/DX2                !
 ! A242  A(39,79,82)           120.086          estimate D2E/DX2                !
 ! A243  A(40,79,82)           106.5915         estimate D2E/DX2                !
 ! A244  A(41,80,42)           122.6076         estimate D2E/DX2                !
 ! A245  A(41,80,82)           106.4878         estimate D2E/DX2                !
 ! A246  A(42,80,82)           120.1839         estimate D2E/DX2                !
 ! A247  A(77,81,78)           109.5159         estimate D2E/DX2                !
 ! A248  A(77,81,82)           120.3594         estimate D2E/DX2                !
 ! A249  A(78,81,82)           120.2925         estimate D2E/DX2                !
 ! A250  A(79,82,80)           109.6327         estimate D2E/DX2                !
 ! A251  A(79,82,81)           119.8804         estimate D2E/DX2                !
 ! A252  A(80,82,81)           120.0736         estimate D2E/DX2                !
 ! A253  A(53,83,57)           125.9687         estimate D2E/DX2                !
 ! A254  A(53,83,84)           108.1468         estimate D2E/DX2                !
 ! A255  A(57,83,84)           120.5643         estimate D2E/DX2                !
 ! A256  A(54,84,58)           119.3581         estimate D2E/DX2                !
 ! A257  A(54,84,83)           110.6691         estimate D2E/DX2                !
 ! A258  A(58,84,83)           120.871          estimate D2E/DX2                !
 ! D1    D(17,1,5,9)             3.2272         estimate D2E/DX2                !
 ! D2    D(17,1,5,29)         -150.6265         estimate D2E/DX2                !
 ! D3    D(23,1,5,9)           146.4397         estimate D2E/DX2                !
 ! D4    D(23,1,5,29)           -7.4141         estimate D2E/DX2                !
 ! D5    D(5,1,17,15)           -5.5891         estimate D2E/DX2                !
 ! D6    D(5,1,17,19)          141.3559         estimate D2E/DX2                !
 ! D7    D(23,1,17,15)        -154.0615         estimate D2E/DX2                !
 ! D8    D(23,1,17,19)          -7.1166         estimate D2E/DX2                !
 ! D9    D(5,1,23,21)         -149.8309         estimate D2E/DX2                !
 ! D10   D(5,1,23,25)            1.7893         estimate D2E/DX2                !
 ! D11   D(17,1,23,21)          -2.0303         estimate D2E/DX2                !
 ! D12   D(17,1,23,25)         149.5899         estimate D2E/DX2                !
 ! D13   D(43,2,6,10)         -141.9344         estimate D2E/DX2                !
 ! D14   D(43,2,6,15)            3.1278         estimate D2E/DX2                !
 ! D15   D(44,2,6,10)            3.7814         estimate D2E/DX2                !
 ! D16   D(44,2,6,15)          148.8436         estimate D2E/DX2                !
 ! D17   D(6,2,43,13)            0.3269         estimate D2E/DX2                !
 ! D18   D(6,2,43,39)          148.653          estimate D2E/DX2                !
 ! D19   D(44,2,43,13)        -145.2206         estimate D2E/DX2                !
 ! D20   D(44,2,43,39)           3.1054         estimate D2E/DX2                !
 ! D21   D(6,2,44,40)         -148.2469         estimate D2E/DX2                !
 ! D22   D(6,2,44,47)            0.6944         estimate D2E/DX2                !
 ! D23   D(43,2,44,40)          -6.8905         estimate D2E/DX2                !
 ! D24   D(43,2,44,47)         142.0507         estimate D2E/DX2                !
 ! D25   D(18,3,7,12)            0.354          estimate D2E/DX2                !
 ! D26   D(18,3,7,30)          145.3792         estimate D2E/DX2                !
 ! D27   D(26,3,7,12)         -144.806          estimate D2E/DX2                !
 ! D28   D(26,3,7,30)            0.2192         estimate D2E/DX2                !
 ! D29   D(7,3,18,16)            8.7796         estimate D2E/DX2                !
 ! D30   D(7,3,18,20)         -143.4426         estimate D2E/DX2                !
 ! D31   D(26,3,18,16)         149.444          estimate D2E/DX2                !
 ! D32   D(26,3,18,20)          -2.7782         estimate D2E/DX2                !
 ! D33   D(7,3,26,24)          149.9358         estimate D2E/DX2                !
 ! D34   D(7,3,26,28)            5.1256         estimate D2E/DX2                !
 ! D35   D(18,3,26,24)           4.151          estimate D2E/DX2                !
 ! D36   D(18,3,26,28)        -140.6592         estimate D2E/DX2                !
 ! D37   D(45,4,8,11)           -0.5683         estimate D2E/DX2                !
 ! D38   D(45,4,8,16)         -148.5746         estimate D2E/DX2                !
 ! D39   D(46,4,8,11)          145.6053         estimate D2E/DX2                !
 ! D40   D(46,4,8,16)           -2.4009         estimate D2E/DX2                !
 ! D41   D(8,4,45,41)          145.2673         estimate D2E/DX2                !
 ! D42   D(8,4,45,48)           -3.9527         estimate D2E/DX2                !
 ! D43   D(46,4,45,41)           3.5663         estimate D2E/DX2                !
 ! D44   D(46,4,45,48)        -145.6537         estimate D2E/DX2                !
 ! D45   D(8,4,46,14)            2.4212         estimate D2E/DX2                !
 ! D46   D(8,4,46,42)         -145.381          estimate D2E/DX2                !
 ! D47   D(45,4,46,14)         148.4642         estimate D2E/DX2                !
 ! D48   D(45,4,46,42)           0.6619         estimate D2E/DX2                !
 ! D49   D(1,5,9,13)             1.9877         estimate D2E/DX2                !
 ! D50   D(1,5,9,35)          -154.5795         estimate D2E/DX2                !
 ! D51   D(29,5,9,13)          154.9351         estimate D2E/DX2                !
 ! D52   D(29,5,9,35)           -1.632          estimate D2E/DX2                !
 ! D53   D(1,5,29,27)            7.6567         estimate D2E/DX2                !
 ! D54   D(1,5,29,31)          159.4121         estimate D2E/DX2                !
 ! D55   D(9,5,29,27)         -146.0444         estimate D2E/DX2                !
 ! D56   D(9,5,29,31)            5.7111         estimate D2E/DX2                !
 ! D57   D(2,6,10,49)           -8.069          estimate D2E/DX2                !
 ! D58   D(2,6,10,51)          144.511          estimate D2E/DX2                !
 ! D59   D(15,6,10,49)        -148.7306         estimate D2E/DX2                !
 ! D60   D(15,6,10,51)           3.8493         estimate D2E/DX2                !
 ! D61   D(2,6,15,13)           -5.4906         estimate D2E/DX2                !
 ! D62   D(2,6,15,17)         -150.159          estimate D2E/DX2                !
 ! D63   D(10,6,15,13)         140.6385         estimate D2E/DX2                !
 ! D64   D(10,6,15,17)          -4.03           estimate D2E/DX2                !
 ! D65   D(3,7,12,14)           -9.1664         estimate D2E/DX2                !
 ! D66   D(3,7,12,36)          144.0496         estimate D2E/DX2                !
 ! D67   D(30,7,12,14)        -149.8893         estimate D2E/DX2                !
 ! D68   D(30,7,12,36)           3.3268         estimate D2E/DX2                !
 ! D69   D(3,7,30,28)           -5.5475         estimate D2E/DX2                !
 ! D70   D(3,7,30,32)         -150.5248         estimate D2E/DX2                !
 ! D71   D(12,7,30,28)         140.4212         estimate D2E/DX2                !
 ! D72   D(12,7,30,32)          -4.556          estimate D2E/DX2                !
 ! D73   D(4,8,11,50)            6.7586         estimate D2E/DX2                !
 ! D74   D(4,8,11,52)         -145.4714         estimate D2E/DX2                !
 ! D75   D(16,8,11,50)         150.6643         estimate D2E/DX2                !
 ! D76   D(16,8,11,52)          -1.5657         estimate D2E/DX2                !
 ! D77   D(4,8,16,14)            1.4589         estimate D2E/DX2                !
 ! D78   D(4,8,16,18)          150.6026         estimate D2E/DX2                !
 ! D79   D(11,8,16,14)        -146.8983         estimate D2E/DX2                !
 ! D80   D(11,8,16,18)           2.2454         estimate D2E/DX2                !
 ! D81   D(5,9,13,15)           -4.9629         estimate D2E/DX2                !
 ! D82   D(5,9,13,43)         -147.3462         estimate D2E/DX2                !
 ! D83   D(35,9,13,15)         152.5452         estimate D2E/DX2                !
 ! D84   D(35,9,13,43)          10.1619         estimate D2E/DX2                !
 ! D85   D(5,9,35,33)           -7.0033         estimate D2E/DX2                !
 ! D86   D(5,9,35,37)          149.2904         estimate D2E/DX2                !
 ! D87   D(13,9,35,33)        -163.7671         estimate D2E/DX2                !
 ! D88   D(13,9,35,37)          -7.4735         estimate D2E/DX2                !
 ! D89   D(6,10,49,47)           8.404          estimate D2E/DX2                !
 ! D90   D(6,10,49,56)         147.1738         estimate D2E/DX2                !
 ! D91   D(51,10,49,47)       -143.9854         estimate D2E/DX2                !
 ! D92   D(51,10,49,56)         -5.2157         estimate D2E/DX2                !
 ! D93   D(6,10,51,19)           0.3635         estimate D2E/DX2                !
 ! D94   D(6,10,51,53)        -161.0426         estimate D2E/DX2                !
 ! D95   D(49,10,51,19)        151.7508         estimate D2E/DX2                !
 ! D96   D(49,10,51,53)         -9.6553         estimate D2E/DX2                !
 ! D97   D(8,11,50,48)          -8.7409         estimate D2E/DX2                !
 ! D98   D(8,11,50,56)        -150.2787         estimate D2E/DX2                !
 ! D99   D(52,11,50,48)        143.3462         estimate D2E/DX2                !
 ! D100  D(52,11,50,56)          1.8085         estimate D2E/DX2                !
 ! D101  D(8,11,52,20)          -0.216          estimate D2E/DX2                !
 ! D102  D(8,11,52,54)         154.489          estimate D2E/DX2                !
 ! D103  D(50,11,52,20)       -151.4968         estimate D2E/DX2                !
 ! D104  D(50,11,52,54)          3.2082         estimate D2E/DX2                !
 ! D105  D(7,12,14,16)           8.9022         estimate D2E/DX2                !
 ! D106  D(7,12,14,46)         153.8698         estimate D2E/DX2                !
 ! D107  D(36,12,14,16)       -144.7725         estimate D2E/DX2                !
 ! D108  D(36,12,14,46)          0.1951         estimate D2E/DX2                !
 ! D109  D(7,12,36,34)           3.7262         estimate D2E/DX2                !
 ! D110  D(7,12,36,38)        -150.3933         estimate D2E/DX2                !
 ! D111  D(14,12,36,34)        155.7703         estimate D2E/DX2                !
 ! D112  D(14,12,36,38)          1.6508         estimate D2E/DX2                !
 ! D113  D(9,13,15,6)         -141.7859         estimate D2E/DX2                !
 ! D114  D(9,13,15,17)           2.7            estimate D2E/DX2                !
 ! D115  D(43,13,15,6)           5.6702         estimate D2E/DX2                !
 ! D116  D(43,13,15,17)        150.1561         estimate D2E/DX2                !
 ! D117  D(9,13,43,2)          143.6556         estimate D2E/DX2                !
 ! D118  D(9,13,43,39)          -5.0404         estimate D2E/DX2                !
 ! D119  D(15,13,43,2)          -3.6389         estimate D2E/DX2                !
 ! D120  D(15,13,43,39)       -152.3349         estimate D2E/DX2                !
 ! D121  D(12,14,16,8)         148.9748         estimate D2E/DX2                !
 ! D122  D(12,14,16,18)          0.2317         estimate D2E/DX2                !
 ! D123  D(46,14,16,8)           0.0405         estimate D2E/DX2                !
 ! D124  D(46,14,16,18)       -148.7026         estimate D2E/DX2                !
 ! D125  D(12,14,46,4)        -150.908          estimate D2E/DX2                !
 ! D126  D(12,14,46,42)         -2.5614         estimate D2E/DX2                !
 ! D127  D(16,14,46,4)          -1.5242         estimate D2E/DX2                !
 ! D128  D(16,14,46,42)        146.8225         estimate D2E/DX2                !
 ! D129  D(6,15,17,1)          143.6024         estimate D2E/DX2                !
 ! D130  D(6,15,17,19)           0.0006         estimate D2E/DX2                !
 ! D131  D(13,15,17,1)           2.6223         estimate D2E/DX2                !
 ! D132  D(13,15,17,19)       -140.9795         estimate D2E/DX2                !
 ! D133  D(8,16,18,3)         -153.7902         estimate D2E/DX2                !
 ! D134  D(8,16,18,20)          -1.0362         estimate D2E/DX2                !
 ! D135  D(14,16,18,3)          -9.0926         estimate D2E/DX2                !
 ! D136  D(14,16,18,20)        143.6614         estimate D2E/DX2                !
 ! D137  D(1,17,19,21)          13.3978         estimate D2E/DX2                !
 ! D138  D(1,17,19,51)        -142.1518         estimate D2E/DX2                !
 ! D139  D(15,17,19,21)        159.8139         estimate D2E/DX2                !
 ! D140  D(15,17,19,51)          4.2643         estimate D2E/DX2                !
 ! D141  D(3,18,20,22)          -3.3173         estimate D2E/DX2                !
 ! D142  D(3,18,20,52)         150.4117         estimate D2E/DX2                !
 ! D143  D(16,18,20,22)       -154.4658         estimate D2E/DX2                !
 ! D144  D(16,18,20,52)         -0.7368         estimate D2E/DX2                !
 ! D145  D(17,19,21,23)        -13.3954         estimate D2E/DX2                !
 ! D146  D(17,19,21,57)       -132.8039         estimate D2E/DX2                !
 ! D147  D(17,19,21,85)        104.6544         estimate D2E/DX2                !
 ! D148  D(51,19,21,23)        140.4149         estimate D2E/DX2                !
 ! D149  D(51,19,21,57)         21.0063         estimate D2E/DX2                !
 ! D150  D(51,19,21,85)       -101.5354         estimate D2E/DX2                !
 ! D151  D(17,19,51,10)         -4.3823         estimate D2E/DX2                !
 ! D152  D(17,19,51,53)        157.6824         estimate D2E/DX2                !
 ! D153  D(21,19,51,10)       -155.2666         estimate D2E/DX2                !
 ! D154  D(21,19,51,53)          6.7981         estimate D2E/DX2                !
 ! D155  D(18,20,22,24)          8.2405         estimate D2E/DX2                !
 ! D156  D(18,20,22,58)        147.3047         estimate D2E/DX2                !
 ! D157  D(52,20,22,24)       -145.9501         estimate D2E/DX2                !
 ! D158  D(52,20,22,58)         -6.8859         estimate D2E/DX2                !
 ! D159  D(18,20,52,11)          1.3699         estimate D2E/DX2                !
 ! D160  D(18,20,52,54)       -152.914          estimate D2E/DX2                !
 ! D161  D(22,20,52,11)        154.7449         estimate D2E/DX2                !
 ! D162  D(22,20,52,54)          0.461          estimate D2E/DX2                !
 ! D163  D(19,21,23,1)           9.4571         estimate D2E/DX2                !
 ! D164  D(19,21,23,25)       -141.2746         estimate D2E/DX2                !
 ! D165  D(57,21,23,1)         128.7233         estimate D2E/DX2                !
 ! D166  D(57,21,23,25)        -22.0084         estimate D2E/DX2                !
 ! D167  D(85,21,23,1)        -108.4412         estimate D2E/DX2                !
 ! D168  D(85,21,23,25)        100.8272         estimate D2E/DX2                !
 ! D169  D(19,21,57,59)        134.6311         estimate D2E/DX2                !
 ! D170  D(19,21,57,83)        -27.0026         estimate D2E/DX2                !
 ! D171  D(23,21,57,59)         21.6924         estimate D2E/DX2                !
 ! D172  D(23,21,57,83)       -139.9413         estimate D2E/DX2                !
 ! D173  D(85,21,57,59)       -102.0412         estimate D2E/DX2                !
 ! D174  D(85,21,57,83)         96.3251         estimate D2E/DX2                !
 ! D175  D(20,22,24,26)         -7.1199         estimate D2E/DX2                !
 ! D176  D(20,22,24,62)        136.943          estimate D2E/DX2                !
 ! D177  D(58,22,24,26)       -151.9172         estimate D2E/DX2                !
 ! D178  D(58,22,24,62)         -7.8543         estimate D2E/DX2                !
 ! D179  D(20,22,58,60)       -137.6977         estimate D2E/DX2                !
 ! D180  D(20,22,58,84)          6.6313         estimate D2E/DX2                !
 ! D181  D(24,22,58,60)          7.1092         estimate D2E/DX2                !
 ! D182  D(24,22,58,84)        151.4383         estimate D2E/DX2                !
 ! D183  D(1,23,25,27)           3.7093         estimate D2E/DX2                !
 ! D184  D(1,23,25,61)        -137.6348         estimate D2E/DX2                !
 ! D185  D(21,23,25,27)        152.1458         estimate D2E/DX2                !
 ! D186  D(21,23,25,61)         10.8017         estimate D2E/DX2                !
 ! D187  D(22,24,26,3)           0.6606         estimate D2E/DX2                !
 ! D188  D(22,24,26,28)        141.6638         estimate D2E/DX2                !
 ! D189  D(62,24,26,3)        -140.0638         estimate D2E/DX2                !
 ! D190  D(62,24,26,28)          0.9394         estimate D2E/DX2                !
 ! D191  D(22,24,62,60)          5.6943         estimate D2E/DX2                !
 ! D192  D(22,24,62,64)       -139.52           estimate D2E/DX2                !
 ! D193  D(26,24,62,60)        150.2576         estimate D2E/DX2                !
 ! D194  D(26,24,62,64)          5.0434         estimate D2E/DX2                !
 ! D195  D(23,25,27,29)         -3.2626         estimate D2E/DX2                !
 ! D196  D(23,25,27,65)       -149.2804         estimate D2E/DX2                !
 ! D197  D(61,25,27,29)        142.5837         estimate D2E/DX2                !
 ! D198  D(61,25,27,65)         -3.4342         estimate D2E/DX2                !
 ! D199  D(23,25,61,59)          2.5201         estimate D2E/DX2                !
 ! D200  D(23,25,61,63)        147.0868         estimate D2E/DX2                !
 ! D201  D(27,25,61,59)       -142.5105         estimate D2E/DX2                !
 ! D202  D(27,25,61,63)          2.0561         estimate D2E/DX2                !
 ! D203  D(3,26,28,30)          -8.3398         estimate D2E/DX2                !
 ! D204  D(3,26,28,66)         136.1114         estimate D2E/DX2                !
 ! D205  D(24,26,28,30)       -152.7011         estimate D2E/DX2                !
 ! D206  D(24,26,28,66)         -8.2499         estimate D2E/DX2                !
 ! D207  D(25,27,29,5)          -2.6627         estimate D2E/DX2                !
 ! D208  D(25,27,29,31)       -155.2934         estimate D2E/DX2                !
 ! D209  D(65,27,29,5)         138.5605         estimate D2E/DX2                !
 ! D210  D(65,27,29,31)        -14.0702         estimate D2E/DX2                !
 ! D211  D(25,27,65,63)          3.4797         estimate D2E/DX2                !
 ! D212  D(25,27,65,67)        153.0576         estimate D2E/DX2                !
 ! D213  D(29,27,65,63)       -142.3316         estimate D2E/DX2                !
 ! D214  D(29,27,65,67)          7.2462         estimate D2E/DX2                !
 ! D215  D(26,28,30,7)           8.4922         estimate D2E/DX2                !
 ! D216  D(26,28,30,32)        153.2839         estimate D2E/DX2                !
 ! D217  D(66,28,30,7)        -135.9988         estimate D2E/DX2                !
 ! D218  D(66,28,30,32)          8.7928         estimate D2E/DX2                !
 ! D219  D(26,28,66,64)          9.0111         estimate D2E/DX2                !
 ! D220  D(26,28,66,68)       -145.8268         estimate D2E/DX2                !
 ! D221  D(30,28,66,64)        147.6985         estimate D2E/DX2                !
 ! D222  D(30,28,66,68)         -7.1394         estimate D2E/DX2                !
 ! D223  D(5,29,31,33)          -1.1508         estimate D2E/DX2                !
 ! D224  D(5,29,31,69)        -146.6241         estimate D2E/DX2                !
 ! D225  D(27,29,31,33)        151.8416         estimate D2E/DX2                !
 ! D226  D(27,29,31,69)          6.3683         estimate D2E/DX2                !
 ! D227  D(7,30,32,34)          -1.3477         estimate D2E/DX2                !
 ! D228  D(7,30,32,70)         140.4414         estimate D2E/DX2                !
 ! D229  D(28,30,32,34)       -142.7998         estimate D2E/DX2                !
 ! D230  D(28,30,32,70)         -1.0107         estimate D2E/DX2                !
 ! D231  D(29,31,33,35)         -7.9876         estimate D2E/DX2                !
 ! D232  D(29,31,33,73)       -155.7628         estimate D2E/DX2                !
 ! D233  D(69,31,33,35)        141.4006         estimate D2E/DX2                !
 ! D234  D(69,31,33,73)         -6.3745         estimate D2E/DX2                !
 ! D235  D(29,31,69,67)          8.5711         estimate D2E/DX2                !
 ! D236  D(29,31,69,71)        154.4304         estimate D2E/DX2                !
 ! D237  D(33,31,69,67)       -140.6192         estimate D2E/DX2                !
 ! D238  D(33,31,69,71)          5.2401         estimate D2E/DX2                !
 ! D239  D(30,32,34,36)          8.7811         estimate D2E/DX2                !
 ! D240  D(30,32,34,74)        154.5474         estimate D2E/DX2                !
 ! D241  D(70,32,34,36)       -136.1211         estimate D2E/DX2                !
 ! D242  D(70,32,34,74)          9.6452         estimate D2E/DX2                !
 ! D243  D(30,32,70,68)         -8.2497         estimate D2E/DX2                !
 ! D244  D(30,32,70,72)       -154.374          estimate D2E/DX2                !
 ! D245  D(34,32,70,68)        137.1706         estimate D2E/DX2                !
 ! D246  D(34,32,70,72)         -8.9536         estimate D2E/DX2                !
 ! D247  D(31,33,35,9)          11.7474         estimate D2E/DX2                !
 ! D248  D(31,33,35,37)       -145.1499         estimate D2E/DX2                !
 ! D249  D(73,33,35,9)         154.5326         estimate D2E/DX2                !
 ! D250  D(73,33,35,37)         -2.3647         estimate D2E/DX2                !
 ! D251  D(31,33,73,71)          5.0095         estimate D2E/DX2                !
 ! D252  D(31,33,73,75)        147.2667         estimate D2E/DX2                !
 ! D253  D(35,33,73,71)       -142.3714         estimate D2E/DX2                !
 ! D254  D(35,33,73,75)         -0.1143         estimate D2E/DX2                !
 ! D255  D(32,34,36,12)         -9.7142         estimate D2E/DX2                !
 ! D256  D(32,34,36,38)        144.7433         estimate D2E/DX2                !
 ! D257  D(74,34,36,12)       -149.8679         estimate D2E/DX2                !
 ! D258  D(74,34,36,38)          4.5896         estimate D2E/DX2                !
 ! D259  D(32,34,74,72)         -6.4768         estimate D2E/DX2                !
 ! D260  D(32,34,74,76)       -149.5568         estimate D2E/DX2                !
 ! D261  D(36,34,74,72)        138.855          estimate D2E/DX2                !
 ! D262  D(36,34,74,76)         -4.225          estimate D2E/DX2                !
 ! D263  D(9,35,37,39)          -0.2122         estimate D2E/DX2                !
 ! D264  D(9,35,37,77)        -153.886          estimate D2E/DX2                !
 ! D265  D(33,35,37,39)        155.8131         estimate D2E/DX2                !
 ! D266  D(33,35,37,77)          2.1393         estimate D2E/DX2                !
 ! D267  D(12,36,38,42)         -1.2353         estimate D2E/DX2                !
 ! D268  D(12,36,38,78)        153.1935         estimate D2E/DX2                !
 ! D269  D(34,36,38,42)       -155.0132         estimate D2E/DX2                !
 ! D270  D(34,36,38,78)         -0.5843         estimate D2E/DX2                !
 ! D271  D(35,37,39,43)          5.5175         estimate D2E/DX2                !
 ! D272  D(35,37,39,79)       -146.4209         estimate D2E/DX2                !
 ! D273  D(77,37,39,43)        159.5038         estimate D2E/DX2                !
 ! D274  D(77,37,39,79)          7.5654         estimate D2E/DX2                !
 ! D275  D(35,37,77,75)          0.4614         estimate D2E/DX2                !
 ! D276  D(35,37,77,81)        140.3608         estimate D2E/DX2                !
 ! D277  D(39,37,77,75)       -153.9927         estimate D2E/DX2                !
 ! D278  D(39,37,77,81)        -14.0934         estimate D2E/DX2                !
 ! D279  D(36,38,42,46)         -1.0555         estimate D2E/DX2                !
 ! D280  D(36,38,42,80)        150.9812         estimate D2E/DX2                !
 ! D281  D(78,38,42,46)       -155.6302         estimate D2E/DX2                !
 ! D282  D(78,38,42,80)         -3.5935         estimate D2E/DX2                !
 ! D283  D(36,38,78,76)         -3.7966         estimate D2E/DX2                !
 ! D284  D(36,38,78,81)       -143.9468         estimate D2E/DX2                !
 ! D285  D(42,38,78,76)        151.2868         estimate D2E/DX2                !
 ! D286  D(42,38,78,81)         11.1366         estimate D2E/DX2                !
 ! D287  D(37,39,43,2)        -147.5035         estimate D2E/DX2                !
 ! D288  D(37,39,43,13)         -3.0988         estimate D2E/DX2                !
 ! D289  D(79,39,43,2)           5.6953         estimate D2E/DX2                !
 ! D290  D(79,39,43,13)        150.1001         estimate D2E/DX2                !
 ! D291  D(37,39,79,40)        141.7919         estimate D2E/DX2                !
 ! D292  D(37,39,79,82)          2.8844         estimate D2E/DX2                !
 ! D293  D(43,39,79,40)        -10.8456         estimate D2E/DX2                !
 ! D294  D(43,39,79,82)       -149.7531         estimate D2E/DX2                !
 ! D295  D(44,40,41,45)         -1.0982         estimate D2E/DX2                !
 ! D296  D(44,40,41,80)       -147.2444         estimate D2E/DX2                !
 ! D297  D(79,40,41,45)        145.2824         estimate D2E/DX2                !
 ! D298  D(79,40,41,80)         -0.8638         estimate D2E/DX2                !
 ! D299  D(41,40,44,2)         143.9314         estimate D2E/DX2                !
 ! D300  D(41,40,44,47)         -4.4327         estimate D2E/DX2                !
 ! D301  D(79,40,44,2)           1.8451         estimate D2E/DX2                !
 ! D302  D(79,40,44,47)       -146.519          estimate D2E/DX2                !
 ! D303  D(41,40,79,39)       -138.9895         estimate D2E/DX2                !
 ! D304  D(41,40,79,82)          4.6096         estimate D2E/DX2                !
 ! D305  D(44,40,79,39)          7.334          estimate D2E/DX2                !
 ! D306  D(44,40,79,82)        150.9331         estimate D2E/DX2                !
 ! D307  D(40,41,45,4)        -143.4701         estimate D2E/DX2                !
 ! D308  D(40,41,45,48)          5.2912         estimate D2E/DX2                !
 ! D309  D(80,41,45,4)          -1.5505         estimate D2E/DX2                !
 ! D310  D(80,41,45,48)        147.2107         estimate D2E/DX2                !
 ! D311  D(40,41,80,42)        141.0331         estimate D2E/DX2                !
 ! D312  D(40,41,80,82)         -3.2382         estimate D2E/DX2                !
 ! D313  D(45,41,80,42)         -4.8003         estimate D2E/DX2                !
 ! D314  D(45,41,80,82)       -149.0716         estimate D2E/DX2                !
 ! D315  D(38,42,46,4)         146.6597         estimate D2E/DX2                !
 ! D316  D(38,42,46,14)          2.9391         estimate D2E/DX2                !
 ! D317  D(80,42,46,4)          -6.591          estimate D2E/DX2                !
 ! D318  D(80,42,46,14)       -150.3116         estimate D2E/DX2                !
 ! D319  D(38,42,80,41)       -144.3883         estimate D2E/DX2                !
 ! D320  D(38,42,80,82)         -4.7614         estimate D2E/DX2                !
 ! D321  D(46,42,80,41)          8.6683         estimate D2E/DX2                !
 ! D322  D(46,42,80,82)        148.2952         estimate D2E/DX2                !
 ! D323  D(2,44,47,48)        -142.724          estimate D2E/DX2                !
 ! D324  D(2,44,47,49)          -0.3327         estimate D2E/DX2                !
 ! D325  D(40,44,47,48)          5.7015         estimate D2E/DX2                !
 ! D326  D(40,44,47,49)        148.0928         estimate D2E/DX2                !
 ! D327  D(4,45,48,47)         144.6123         estimate D2E/DX2                !
 ! D328  D(4,45,48,50)           2.0229         estimate D2E/DX2                !
 ! D329  D(41,45,48,47)         -4.0001         estimate D2E/DX2                !
 ! D330  D(41,45,48,50)       -146.5895         estimate D2E/DX2                !
 ! D331  D(44,47,48,45)         -1.5275         estimate D2E/DX2                !
 ! D332  D(44,47,48,50)        145.234          estimate D2E/DX2                !
 ! D333  D(49,47,48,45)       -148.3187         estimate D2E/DX2                !
 ! D334  D(49,47,48,50)         -1.5573         estimate D2E/DX2                !
 ! D335  D(44,47,49,10)         -4.4713         estimate D2E/DX2                !
 ! D336  D(44,47,49,56)       -147.632          estimate D2E/DX2                !
 ! D337  D(48,47,49,10)        141.6329         estimate D2E/DX2                !
 ! D338  D(48,47,49,56)         -1.5278         estimate D2E/DX2                !
 ! D339  D(45,48,50,11)          4.5335         estimate D2E/DX2                !
 ! D340  D(45,48,50,56)        150.7576         estimate D2E/DX2                !
 ! D341  D(47,48,50,11)       -142.2157         estimate D2E/DX2                !
 ! D342  D(47,48,50,56)          4.0084         estimate D2E/DX2                !
 ! D343  D(10,49,56,50)       -140.327          estimate D2E/DX2                !
 ! D344  D(10,49,56,55)          5.3            estimate D2E/DX2                !
 ! D345  D(47,49,56,50)          4.0498         estimate D2E/DX2                !
 ! D346  D(47,49,56,55)        149.6767         estimate D2E/DX2                !
 ! D347  D(11,50,56,49)        141.6398         estimate D2E/DX2                !
 ! D348  D(11,50,56,55)         -4.6637         estimate D2E/DX2                !
[...]
 Alpha virt. eigenvalues --    1.14315   1.14856   1.14916   1.15222   1.15678
 Alpha virt. eigenvalues --    1.15940   1.16182   1.16563   1.16660   1.16959
 Alpha virt. eigenvalues --    1.17147   1.17286   1.17617   1.17901   1.18264
 Alpha virt. eigenvalues --    1.18468   1.18738   1.18817   1.19000   1.19486
 Alpha virt. eigenvalues --    1.19573   1.19988   1.20173   1.20353   1.20424
 Alpha virt. eigenvalues --    1.20980   1.21613   1.21846   1.22093   1.22458
 Alpha virt. eigenvalues --    1.22686   1.23022   1.23133   1.23471   1.23907
 Alpha virt. eigenvalues --    1.24315   1.24630   1.25309   1.25495   1.25793
 Alpha virt. eigenvalues --    1.26207   1.26298   1.26417   1.26726   1.27069
 Alpha virt. eigenvalues --    1.27278   1.27686   1.28206   1.28465   1.28527
 Alpha virt. eigenvalues --    1.28619   1.29067   1.29377   1.29549   1.29857
 Alpha virt. eigenvalues --    1.30325   1.30510   1.30790   1.31073   1.31311
 Alpha virt. eigenvalues --    1.31438   1.31859   1.32408   1.32501   1.33214
 Alpha virt. eigenvalues --    1.33460   1.34321   1.34513   1.34653   1.35022
 Alpha virt. eigenvalues --    1.35711   1.36016   1.36311   1.36878   1.37015
 Alpha virt. eigenvalues --    1.38013   1.38291   1.38497   1.38964   1.39402
 Alpha virt. eigenvalues --    1.40246   1.40465   1.41006   1.41542   1.42385
 Alpha virt. eigenvalues --    1.42711   1.43193   1.44046   1.44179   1.44800
 Alpha virt. eigenvalues --    1.44955   1.45549   1.46776   1.47182   1.47730
 Alpha virt. eigenvalues --    1.48258   1.49161   1.49295   1.50040   1.50797
 Alpha virt. eigenvalues --    1.50994   1.51278   1.51991   1.52440   1.52855
 Alpha virt. eigenvalues --    1.53176   1.53937   1.54240   1.54514   1.54956
 Alpha virt. eigenvalues --    1.55683   1.56025   1.56082   1.56764   1.57338
 Alpha virt. eigenvalues --    1.57839   1.58069   1.58208   1.58704   1.59347
 Alpha virt. eigenvalues --    1.60128   1.60430   1.60669   1.61592   1.62230
 Alpha virt. eigenvalues --    1.62726   1.63582   1.63877   1.64354   1.64536
 Alpha virt. eigenvalues --    1.64856   1.65015   1.65277   1.65866   1.65936
 Alpha virt. eigenvalues --    1.66300   1.66579   1.66758   1.66862   1.67253
 Alpha virt. eigenvalues --    1.67514   1.67615   1.67855   1.68058   1.68805
 Alpha virt. eigenvalues --    1.69151   1.69271   1.69653   1.69914   1.70175
 Alpha virt. eigenvalues --    1.70546   1.70899   1.71187   1.71258   1.71437
 Alpha virt. eigenvalues --    1.71608   1.71905   1.72012   1.72105   1.72372
 Alpha virt. eigenvalues --    1.72457   1.72802   1.72985   1.73322   1.73533
 Alpha virt. eigenvalues --    1.73634   1.73881   1.74195   1.74286   1.74599
 Alpha virt. eigenvalues --    1.74770   1.74972   1.75253   1.75480   1.75751
 Alpha virt. eigenvalues --    1.75989   1.76342   1.76529   1.76800   1.77007
 Alpha virt. eigenvalues --    1.77210   1.77470   1.77664   1.77694   1.78070
 Alpha virt. eigenvalues --    1.78471   1.78767   1.78985   1.79244   1.79645
 Alpha virt. eigenvalues --    1.79822   1.80519   1.81468   1.81748   1.81862
 Alpha virt. eigenvalues --    1.82467   1.82953   1.83534   1.83843   1.84337
 Alpha virt. eigenvalues --    1.84687   1.85525   1.85967   1.86146   1.86384
 Alpha virt. eigenvalues --    1.86972   1.87087   1.88215   1.89553   1.90301
 Alpha virt. eigenvalues --    1.90811   1.90998   1.91475   1.92034   1.92176
 Alpha virt. eigenvalues --    1.92871   1.92915   1.93394   1.93752   1.93899
 Alpha virt. eigenvalues --    1.94344   1.94940   1.95234   1.95522   1.95750
 Alpha virt. eigenvalues --    1.95980   1.96198   1.96469   1.96921   1.97144
 Alpha virt. eigenvalues --    1.97385   1.97676   1.97765   1.98190   1.98475
 Alpha virt. eigenvalues --    1.98608   1.98804   1.99016   1.99178   1.99450
 Alpha virt. eigenvalues --    1.99781   1.99925   2.00054   2.00278   2.00328
 Alpha virt. eigenvalues --    2.00429   2.00810   2.01148   2.01364   2.01656
 Alpha virt. eigenvalues --    2.01798   2.02038   2.02349   2.02634   2.02766
 Alpha virt. eigenvalues --    2.02892   2.03157   2.03332   2.03563   2.03648
 Alpha virt. eigenvalues --    2.03974   2.04153   2.04392   2.04714   2.04917
 Alpha virt. eigenvalues --    2.05003   2.05453   2.05689   2.05762   2.06585
 Alpha virt. eigenvalues --    2.06751   2.07489   2.07620   2.07926   2.08863
 Alpha virt. eigenvalues --    2.09253   2.10367   2.10418   2.11133   2.11587
 Alpha virt. eigenvalues --    2.11867   2.12530   2.13267   2.13381   2.13672
 Alpha virt. eigenvalues --    2.14218   2.14594   2.15181   2.15585   2.15713
 Alpha virt. eigenvalues --    2.16223   2.16863   2.17314   2.17693   2.18052
 Alpha virt. eigenvalues --    2.18281   2.18886   2.19787   2.20120   2.20612
 Alpha virt. eigenvalues --    2.20951   2.21732   2.22049   2.22522   2.22699
 Alpha virt. eigenvalues --    2.22914   2.23046   2.23677   2.24030   2.24306
 Alpha virt. eigenvalues --    2.24676   2.25094   2.25394   2.26035   2.26208
 Alpha virt. eigenvalues --    2.26251   2.26629   2.26967   2.27981   2.28208
 Alpha virt. eigenvalues --    2.28689   2.28726   2.29302   2.29613   2.29806
 Alpha virt. eigenvalues --    2.29968   2.30292   2.30855   2.31655   2.31992
 Alpha virt. eigenvalues --    2.32292   2.32434   2.33496   2.33764   2.33936
 Alpha virt. eigenvalues --    2.35094   2.35482   2.36644   2.37216   2.37911
 Alpha virt. eigenvalues --    2.38428   2.38922   2.39369   2.39903   2.40286
 Alpha virt. eigenvalues --    2.40926   2.41428   2.41859   2.42119   2.42542
 Alpha virt. eigenvalues --    2.43042   2.43334   2.43863   2.44376   2.44788
 Alpha virt. eigenvalues --    2.45074   2.45544   2.45875   2.46661   2.46918
 Alpha virt. eigenvalues --    2.48141   2.48838   2.50130   2.50952   2.51651
 Alpha virt. eigenvalues --    2.51795   2.52077   2.52456   2.52876   2.53161
 Alpha virt. eigenvalues --    2.53858   2.53939   2.54394   2.54827   2.54999
 Alpha virt. eigenvalues --    2.55557   2.56014   2.56211   2.56577   2.57013
 Alpha virt. eigenvalues --    2.57162   2.57438   2.57860   2.57928   2.58180
 Alpha virt. eigenvalues --    2.58382   2.58891   2.59134   2.59507   2.59734
 Alpha virt. eigenvalues --    2.59955   2.60085   2.60528   2.60825   2.61068
 Alpha virt. eigenvalues --    2.61220   2.61631   2.62053   2.62491   2.62783
 Alpha virt. eigenvalues --    2.62970   2.63150   2.63409   2.63921   2.64304
 Alpha virt. eigenvalues --    2.64555   2.64943   2.65273   2.65468   2.65556
 Alpha virt. eigenvalues --    2.66053   2.66127   2.66792   2.67107   2.67664
 Alpha virt. eigenvalues --    2.67839   2.68316   2.68522   2.68739   2.68999
 Alpha virt. eigenvalues --    2.69682   2.70210   2.70572   2.71474   2.71622
 Alpha virt. eigenvalues --    2.71875   2.72378   2.72904   2.73645   2.73696
 Alpha virt. eigenvalues --    2.74749   2.75610   2.75832   2.76346   2.76613
 Alpha virt. eigenvalues --    2.76701   2.77593   2.78209   2.78654   2.79084
 Alpha virt. eigenvalues --    2.79662   2.80335   2.80551   2.81368   2.81562
 Alpha virt. eigenvalues --    2.81819   2.82163   2.82411   2.82834   2.83131
 Alpha virt. eigenvalues --    2.83403   2.83572   2.84598   2.84717   2.84990
 Alpha virt. eigenvalues --    2.85525   2.85759   2.86532   2.86661   2.87292
 Alpha virt. eigenvalues --    2.87958   2.88414   2.88578   2.89634   2.89868
 Alpha virt. eigenvalues --    2.90300   2.90616   2.91220   2.91385   2.92145
 Alpha virt. eigenvalues --    2.92297   2.92678   2.92930   2.93451   2.93570
 Alpha virt. eigenvalues --    2.94048   2.94223   2.95367   2.95581   2.96059
 Alpha virt. eigenvalues --    2.96842   2.97549   2.98072   2.98523   2.99604
 Alpha virt. eigenvalues --    2.99791   3.00824   3.01891   3.02418   3.03130
 Alpha virt. eigenvalues --    3.03718   3.04784   3.05479   3.08097   3.08866
 Alpha virt. eigenvalues --    3.10229   3.11738   3.14546   3.15456   3.17302
 Alpha virt. eigenvalues --    3.17711   3.19112   3.20628   3.22950   3.25135
 Alpha virt. eigenvalues --    3.26390   3.27394   3.28517   3.29900   3.32102
 Alpha virt. eigenvalues --    3.33343   3.33528   3.34620   3.35637   3.37196
 Alpha virt. eigenvalues --    3.39212   3.41108   3.42396   3.43537   3.45134
 Alpha virt. eigenvalues --    3.46632   3.48061   3.50473   3.51748   3.55333
 Alpha virt. eigenvalues --    3.56204   3.56600   3.61451   4.01291   4.01547
 Alpha virt. eigenvalues --    4.01736   4.02107   4.03489   4.04417   4.04553
 Alpha virt. eigenvalues --    4.04820   4.05259   4.06525   4.06806   4.07022
 Alpha virt. eigenvalues --    4.07231   4.07461   4.08111   4.08437   4.10196
 Alpha virt. eigenvalues --    4.10814   4.11432   4.12003   4.12354   4.12460
 Alpha virt. eigenvalues --    4.13207   4.14808   4.15371   4.17636   4.17820
 Alpha virt. eigenvalues --    4.19241   4.19696   4.20088   4.20933   4.21425
 Alpha virt. eigenvalues --    4.21526   4.22489   4.23376   4.24225   4.27073
 Alpha virt. eigenvalues --    4.27626   4.28578   4.28946   4.29880   4.30221
 Alpha virt. eigenvalues --    4.30685   4.32296   4.32789   4.34956   4.38227
 Alpha virt. eigenvalues --    4.38342   4.39536   4.41930   4.43671   4.45185
 Alpha virt. eigenvalues --    4.46627   4.47489   4.49364   4.51181   4.51894
 Alpha virt. eigenvalues --    4.52718   4.53278   4.55870   4.57747   4.58357
 Alpha virt. eigenvalues --    4.60297   4.62359   4.64091   4.65881   4.68198
 Alpha virt. eigenvalues --    4.69345   4.71525   4.72177   4.79486   4.81012
 Alpha virt. eigenvalues --    4.84291   4.84653   4.86361   4.88898   4.92890
 Alpha virt. eigenvalues --    4.97243   5.00981   5.02994   5.09510   5.11171
 Alpha virt. eigenvalues --    5.17158   5.18157   5.22037   5.25097
          Condensed to atoms (all electrons):
 Mulliken charges:
               1
     1  C    0.009124
     2  C   -0.024948
     3  C   -0.021832
     4  C   -0.029856
     5  C    0.038184
     6  C   -0.029728
     7  C   -0.020699
     8  C   -0.033640
     9  C    0.046177
    10  C    0.091668
    11  C    0.061107
    12  C    0.054965
    13  C   -0.025914
    14  C   -0.031268
    15  C   -0.025427
    16  C   -0.028763
    17  C    0.021421
    18  C    0.050381
    19  C    0.081223
    20  C    0.050449
    21  C   -0.359984
    22  C   -0.019427
    23  C    0.083988
    24  C   -0.013898
    25  C   -0.006844
    26  C   -0.010795
    27  C   -0.020132
    28  C   -0.021065
    29  C    0.050368
    30  C   -0.015998
    31  C   -0.034938
    32  C   -0.011013
    33  C   -0.023507
    34  C   -0.021931
    35  C    0.039552
    36  C    0.044171
    37  C    0.043001
    38  C    0.041729
    39  C    0.053685
    40  C   -0.025712
    41  C   -0.022872
    42  C    0.061402
    43  C   -0.031560
    44  C    0.067194
    45  C    0.070007
    46  C   -0.035297
    47  C   -0.015759
    48  C   -0.025454
    49  C   -0.042307
    50  C   -0.024504
    51  C    0.118529
    52  C    0.032896
    53  C   -0.359955
    54  C    0.012988
    55  C    0.084019
    56  C   -0.005616
    57  C    0.122108
    58  C   -0.021726
    59  C    0.086138
    60  C   -0.026678
    61  C   -0.042692
    62  C   -0.021269
    63  C   -0.021569
    64  C    0.050962
    65  C   -0.031012
    66  C    0.044545
    67  C    0.051831
    68  C    0.046376
    69  C   -0.021178
    70  C   -0.025770
    71  C   -0.010353
    72  C    0.004811
    73  C   -0.011793
    74  C   -0.007967
    75  C   -0.000274
    76  C   -0.002298
    77  C   -0.024274
    78  C   -0.021225
    79  C   -0.020557
    80  C   -0.021183
    81  C   -0.001082
    82  C   -0.023276
    83  C    0.079265
    84  C    0.020125
    85  Cl  -0.020838
    86  Cl  -0.016729
 Sum of Mulliken charges =  -0.00000
 Mulliken charges with hydrogens summed into heavy atoms:
               1
     1  C    0.009124
     2  C   -0.024948
     3  C   -0.021832
     4  C   -0.029856
     5  C    0.038184
     6  C   -0.029728
     7  C   -0.020699
     8  C   -0.033640
     9  C    0.046177
    10  C    0.091668
    11  C    0.061107
    12  C    0.054965
    13  C   -0.025914
    14  C   -0.031268
    15  C   -0.025427
    16  C   -0.028763
    17  C    0.021421
    18  C    0.050381
    19  C    0.081223
    20  C    0.050449
    21  C   -0.359984
    22  C   -0.019427
    23  C    0.083988
    24  C   -0.013898
    25  C   -0.006844
    26  C   -0.010795
    27  C   -0.020132
    28  C   -0.021065
    29  C    0.050368
    30  C   -0.015998
    31  C   -0.034938
    32  C   -0.011013
    33  C   -0.023507
    34  C   -0.021931
    35  C    0.039552
    36  C    0.044171
    37  C    0.043001
    38  C    0.041729
    39  C    0.053685
    40  C   -0.025712
    41  C   -0.022872
    42  C    0.061402
    43  C   -0.031560
    44  C    0.067194
    45  C    0.070007
    46  C   -0.035297
    47  C   -0.015759
    48  C   -0.025454
    49  C   -0.042307
    50  C   -0.024504
    51  C    0.118529
    52  C    0.032896
    53  C   -0.359955
    54  C    0.012988
    55  C    0.084019
    56  C   -0.005616
    57  C    0.122108
    58  C   -0.021726
    59  C    0.086138
    60  C   -0.026678
    61  C   -0.042692
    62  C   -0.021269
    63  C   -0.021569
    64  C    0.050962
    65  C   -0.031012
    66  C    0.044545
    67  C    0.051831
    68  C    0.046376
    69  C   -0.021178
    70  C   -0.025770
    71  C   -0.010353
    72  C    0.004811
    73  C   -0.011793
    74  C   -0.007967
    75  C   -0.000274
    76  C   -0.002298
    77  C   -0.024274
    78  C   -0.021225
    79  C   -0.020557
    80  C   -0.021183
    81  C   -0.001082
    82  C   -0.023276
    83  C    0.079265
    84  C    0.020125
    85  Cl  -0.020838
    86  Cl  -0.016729
 Electronic spatial extent (au):  <R**2>=          37681.2003
 Charge=             -0.0000 electrons
 Dipole moment (field-independent basis, Debye):
    X=             -3.7326    Y=             -0.2058    Z=              0.1413  Tot=              3.7409
 Quadrupole moment (field-independent basis, Debye-Ang):
   XX=           -497.8793   YY=           -481.0327   ZZ=           -476.3188
   XY=              2.3036   XZ=              3.3026   YZ=             -1.7095
 Traceless Quadrupole moment (field-independent basis, Debye-Ang):
   XX=            -12.8024   YY=              4.0443   ZZ=              8.7581
   XY=              2.3036   XZ=              3.3026   YZ=             -1.7095
 Octapole moment (field-independent basis, Debye-Ang**2):
  XXX=            -77.6646  YYY=             -9.8722  ZZZ=             -6.6845  XYY=             13.1313
  XXY=              4.0543  XXZ=              5.0075  XZZ=             26.9609  YZZ=             -3.8190
  YYZ=              0.8943  XYZ=             -7.3142
 Hexadecapole moment (field-independent basis, Debye-Ang**3):
 XXXX=         -23659.9331 YYYY=         -16952.2446 ZZZZ=         -15679.6258 XXXY=              6.5014
 XXXZ=             30.7569 YYYX=              7.4636 YYYZ=             13.5277 ZZZX=              1.9368
 ZZZY=             32.6891 XXYY=          -6719.4705 XXZZ=          -6469.6871 YYZZ=          -5463.0669
 XXYZ=            -40.9003 YYXZ=              2.7405 ZZXY=              3.4139
 N-N= 1.558674105703D+04 E-N=-4.076687184506D+04  KE= 4.088611892756D+03
 No NMR shielding tensors so no spin-rotation constants.
 Leave Link  601 at Mon Jun 27 06:03:22 2022, MaxMem=  1342177280 cpu:              22.4 elap:               1.1
 (Enter /home/mkliu/g16/l9999.exe)
 1\1\GINC-NODE02\FOpt\RB3LYP\6-31G(d,p)\C84Cl2\MKLIU\27-Jun-2022\0\\#P 
 opt b3lyp/6-31G(d, p) empiricaldispersion=GD3\\force\\0,1\C,8.54217503
 18,18.9998338504,10.7890875891\C,12.4504792554,20.1975385684,8.8683930
 156\C,8.2870970295,26.8272852769,10.5556212426\C,12.3430244892,25.5416
 318926,8.9034717306\C,8.0570920724,19.1552293995,9.4633135752\C,12.074
 666902,19.7349662474,10.1811486833\C,7.9773585232,26.838711408,9.16151
 89356\C,11.869561395,25.9367639726,10.1990813526\C,9.0256428077,19.231
 604895,8.3669128778\C,12.3137586044,20.5002004472,11.3444176931\C,12.1
 196995542,25.1611372407,11.3477137905\C,8.9741289532,26.6503679657,8.1
 673925466\C,10.3923429767,19.1046417003,8.681836698\C,10.3073020585,26
 .6542419461,8.6392494069\C,10.8508346677,19.0034232786,10.0365637412\C
 ,10.6195634209,26.6465327282,10.0280420698\C,9.9403671942,18.979510682
 ,11.0746447821\C,9.6143711229,26.6284785844,11.0241044156\C,10.2105022
 532,19.6744105908,12.3000157331\C,9.85094375,25.859062954,12.247818123
 9\C,8.8849001964,19.898966066,13.0271801906\C,8.7089918696,25.39935592
 38,12.9512605734\C,7.8835845442,19.5709527176,11.9280685211\C,7.373694
 7176,25.5220996861,12.4005032633\C,6.7237694647,20.2660550682,11.77042
 8065\C,7.1637063167,26.2160843806,11.2403123546\C,6.1243793621,20.3571
 704653,10.4678324957\C,6.2046488435,25.747371007,10.2667322596\C,6.759
 4216875,19.7945626723,9.3244557988\C,6.6633683424,26.2416493398,9.0047
 597968\C,6.4191044294,20.3671383919,8.0883646791\C,6.3515699214,25.576
 42437,7.848074615\C,7.3509493865,20.3646411238,6.9706619758\C,7.317475
 1577,25.4844339404,6.7649142132\C,8.6838737455,19.9222602045,7.1199130
 85\C,8.6584121469,25.9154327529,6.9360507375\C,9.7277871216,20.5958366
 308,6.3376600363\C,9.7181490891,25.172353761,6.2505634532\C,11.1141194
 145,20.5765801913,6.8078517933\C,12.9091768156,22.1502410592,7.5160698
 208\C,12.8869656544,23.6203595779,7.5228032584\C,11.0891203052,25.1889
 215535,6.7888054436\C,11.4225146636,19.8050515344,7.9423132962\C,13.14
 88634232,21.4206638663,8.7042732887\C,13.0874587529,24.3416543845,8.73
 42693175\C,11.3625433669,25.9498618227,7.9373025616\C,13.4831630971,22
 .1468017831,9.8970978177\C,13.4341017603,23.6162517444,9.9023231941\C,
 13.1161287437,21.6808636074,11.1695420464\C,13.0002004017,24.04229224,
 11.1809795768\C,11.3374451754,20.4531906981,12.4313272376\C,11.0995146
 833,25.114196652,12.3994320643\C,11.3071253463,21.5444483018,13.487239
 0502\C,11.0950721937,23.9640058101,13.2318658208\C,11.9528274068,22.83
 4844225,13.0005520357\C,12.8634699066,22.8573266328,11.9954741731\C,8.
 7365261006,21.3241480893,13.530038172\C,8.7158124085,24.1695036859,13.
 6791535368\C,7.4812673137,22.0532750047,13.3378251857\C,7.4781534761,2
 3.4617647723,13.4557301393\C,6.4762837083,21.5117840802,12.4872585734\
 C,6.6438140198,24.2971389384,12.6392396423\C,5.6924795378,22.330248954
 2,11.6398611633\C,5.7968300657,23.7513884694,11.6391425227\C,5.4444451
 358,21.6087409266,10.3986254942\C,5.5831330957,24.4782933409,10.387708
 3485\C,5.2436177806,22.2774223153,9.1752378814\C,5.2773930815,23.74650
 35921,9.1524103273\C,5.6041203552,21.5421717245,8.0046222949\C,5.58033
 20529,24.3612332375,7.9138351852\C,5.9419147007,22.2132627646,6.779153
 4726\C,5.9313843795,23.5930104908,6.7362776571\C,7.0016874456,21.46676
 25934,6.1264562918\C,6.9882752583,24.3023538701,6.0305839342\C,7.99625
 11283,22.1350572341,5.4290356594\C,7.9940016903,23.5940029691,5.388029
 5719\C,9.3438941827,21.6799975547,5.5062345256\C,9.3425504329,24.05481
 79605,5.4623131557\C,11.9675965238,21.6991722626,6.5548376571\C,11.952
 753139,24.0595228522,6.559332773\C,10.1839190145,22.8642156162,5.39246
 60855\C,11.4450718671,22.8740036846,5.9030049273\C,9.889105852,22.0226
 440144,13.7947741232\C,9.8918107064,23.4596391684,13.8154599863\Cl,8.6
 978866095,18.703289793,14.4426013034\Cl,12.1511253349,20.9609811839,15
 .0395910427\\Version=ES64L-G16RevA.03\State=1-A\HF=-4121.4170614\RMSD=
 9.280e-09\RMSF=7.429e-05\Dipole=-0.4524988,0.6869855,-1.2204479\Quadru
 pole=2.9872803,1.1931359,-4.1804162,0.2641845,-1.5493785,8.0755358\PG=
 C01 [X(C84Cl2)]\\@


 NOTHING RESEMBLES A NEW PHENOMENON AS MUCH AS A MISTAKE.

                               -- ENRICO FERMI (?)
 Job cpu time:       0 days 23 hours 31 minutes  3.5 seconds.
 Elapsed time:       0 days  0 hours 58 minutes 53.1 seconds.
 File lengths (MBytes):  RWF=   1037 Int=      0 D2E=      0 Chk=    131 Scr=      1
 Normal termination of Gaussian 16 at Mon Jun 27 06:03:24 2022.
