 Entering Gaussian System, Link 0=g16
 Input=2_addons_C84_11_mirror_Cl22_rank_1.gjf
 Output=2_addons_C84_11_mirror_Cl22_rank_1.log
 Initial command:
 /home/mkliu/g16/l1.exe "/data/scratch/Gau-115541.inp" -scrdir="/data/scratch/"
 Entering Link 1 = /home/mkliu/g16/l1.exe PID=    115542.
  
 Copyright (c) 1988,1990,1992,1993,1995,1998,2003,2009,2016,
            Gaussian, Inc.  All Rights Reserved.
  
 This is part of the Gaussian(R) 16 program.  It is based on
 the Gaussian(R) 09 system (copyright 2009, Gaussian, Inc.),
 the Gaussian(R) 03 system (copyright 2003, Gaussian, Inc.),
 the Gaussian(R) 98 system (copyright 1998, Gaussian, Inc.),
 the Gaussian(R) 94 system (copyright 1995, Gaussian, Inc.),
 the Gaussian 92(TM) system (copyright 1992, Gaussian, Inc.),
 the Gaussian 90(TM) system (copyright 1990, Gaussian, Inc.),
 the Gaussian 88(TM) system (copyright 1988, Gaussian, Inc.),
 the Gaussian 86(TM) system (copyright 1986, Carnegie Mellon
 University), and the Gaussian 82(TM) system (copyright 1983,
 Carnegie Mellon University). Gaussian is a federally registered
 trademark of Gaussian, Inc.
  
 This software contains proprietary and confidential information,
 including trade secrets, belonging to Gaussian, Inc.
  
 This software is provided under written license and may be
 used, copied, transmitted, or stored only in accord with that
 written license.
  
 The following legend is applicable only to US Government
 contracts under FAR:
  
                    RESTRICTED RIGHTS LEGEND
  
 Use, reproduction and disclosure by the US Government is
 subject to restrictions as set forth in subparagraphs (a)
 and (c) of the Commercial Computer Software - Restricted
 Rights clause in FAR 52.227-19.
  
 Gaussian, Inc.
 340 Quinnipiac St., Bldg. 40, Wallingford CT 06492
  
  
 ---------------------------------------------------------------
 Warning -- This program may not be used in any manner that
 competes with the business of Gaussian, Inc. or will provide
 assistance to any competitor of Gaussian, Inc.  The licensee
 of this program is prohibited from giving any competitor of
 Gaussian, Inc. access to this program.  By using this program,
 the user acknowledges that Gaussian, Inc. is engaged in the
 business of creating and licensing software in the field of
 computational chemistry and represents and warrants to the
 licensee that it is not a competitor of Gaussian, Inc. and that
 it will not use this program in any manner prohibited above.
 ---------------------------------------------------------------
  

 Cite this work as:
 Gaussian 16, Revision A.03,
 M. J. Frisch, G. W. Trucks, H. B. Schlegel, G. E. Scuseria, 
 M. A. Robb, J. R. Cheeseman, G. Scalmani, V. Barone, 
 G. A. Petersson, H. Nakatsuji, X. Li, M. Caricato, A. V. Marenich, 
 J. Bloino, B. G. Janesko, R. Gomperts, B. Mennucci, H. P. Hratchian, 
 J. V. Ortiz, A. F. Izmaylov, J. L. Sonnenberg, D. Williams-Young, 
 F. Ding, F. Lipparini, F. Egidi, J. Goings, B. Peng, A. Petrone, 
 T. Henderson, D. Ranasinghe, V. G. Zakrzewski, J. Gao, N. Rega, 
 G. Zheng, W. Liang, M. Hada, M. Ehara, K. Toyota, R. Fukuda, 
 J. Hasegawa, M. Ishida, T. Nakajima, Y. Honda, O. Kitao, H. Nakai, 
 T. Vreven, K. Throssell, J. A. Montgomery, Jr., J. E. Peralta, 
 F. Ogliaro, M. J. Bearpark, J. J. Heyd, E. N. Brothers, K. N. Kudin, 
 V. N. Staroverov, T. A. Keith, R. Kobayashi, J. Normand, 
 K. Raghavachari, A. P. Rendell, J. C. Burant, S. S. Iyengar, 
 J. Tomasi, M. Cossi, J. M. Millam, M. Klene, C. Adamo, R. Cammi, 
 J. W. Ochterski, R. L. Martin, K. Morokuma, O. Farkas, 
 J. B. Foresman, and D. J. Fox, Gaussian, Inc., Wallingford CT, 2016.
 
 ******************************************
 Gaussian 16:  ES64L-G16RevA.03 25-Dec-2016
                26-Jun-2022 
 ******************************************
 %mem=10GB
 %chk=2_addons_C84_11_mirror_Cl22_rank_1.chk
 %nprocshared=24
 Will use up to   24 processors via shared memory.
 ------------------------------------------------
 #P opt b3lyp/6-31G(d, p) empiricaldispersion=GD3
 ------------------------------------------------
 1/18=20,19=15,26=3,38=1/1,3;
 2/9=110,12=2,17=6,18=5,40=1/2;
 3/5=1,6=6,7=101,11=2,25=1,30=1,71=1,74=-5,124=31/1,2,3;
 4//1;
 5/5=2,38=5/2;
 6/7=2,8=2,9=2,10=2,28=1/1;
 7//1,2,3,16;
 1/18=20,19=15,26=3/3(2);
 2/9=110/2;
 99//99;
 2/9=110/2;
 3/5=1,6=6,7=101,11=2,25=1,30=1,71=1,74=-5,124=31/1,2,3;
 4/5=5,16=3,69=1/1;
 5/5=2,38=5/2;
 7//1,2,3,16;
 1/18=20,19=15,26=3/3(-5);
 2/9=110/2;
 6/7=2,8=2,9=2,10=2,19=2,28=1/1;
 99/9=1/99;
 Leave Link    1 at Sun Jun 26 20:59:13 2022, MaxMem=  1342177280 cpu:               0.6 elap:               0.1
 (Enter /home/mkliu/g16/l101.exe)
 -----
 force
 -----
 Symbolic Z-matrix:
 Charge =  0 Multiplicity = 1
 C                     8.54013   18.96511   10.77031 
 C                     12.41985   20.22401   8.89301 
 C                     8.30334   26.77398   10.55521 
 C                     12.31387   25.50271   8.90265 
 C                     8.0618    19.15191   9.46086 
 C                     12.05995   19.75289   10.19045 
 C                     7.99987   26.78714   9.17528 
 C                     11.83234   25.87739   10.19859 
 C                     9.02125   19.25043   8.37719 
 C                     12.3066   20.50653   11.35517 
 C                     12.07209   25.11399   11.34695 
 C                     8.98272   26.60328   8.16844 
 C                     10.37974   19.13028   8.6936 
 C                     10.30089   26.60376   8.635 
 C                     10.84058   19.01447   10.04081 
 C                     10.60439   26.57145   10.02772 
 C                     9.93118   18.95239   11.06848 
 C                     9.61542   26.53897   11.02162 
 C                     10.17602   19.68242   12.28732 
 C                     9.87062   25.77488   12.21963 
 C                     8.91111   20.07439   12.80484 
 C                     8.69123   25.52393   13.14832 
 C                     7.90082   19.57906   11.90684 
 C                     7.3842    25.48652   12.40365 
 C                     6.72758   20.26871   11.75233 
 C                     7.18433   26.16515   11.24304 
 C                     6.13199   20.35693   10.45359 
 C                     6.24084   25.69589   10.26931 
 C                     6.77544   19.79837   9.32795 
 C                     6.69736   26.19934   9.01892 
 C                     6.4451    20.38364   8.10039 
 C                     6.38271   25.54225   7.8593 
 C                     7.36499   20.37628   6.99239 
 C                     7.33871   25.4569   6.78226 
 C                     8.69107   19.9422   7.14427 
 C                     8.67002   25.88132   6.94877 
 C                     9.7206    20.60769   6.36989 
 C                     9.71784   25.1479   6.26292 
 C                     11.09063   20.59644   6.83723 
 C                     12.87954   22.16303   7.54045 
 C                     12.86625   23.61044   7.53769 
 C                     11.07468   25.16369   6.78439 
 C                     11.39954   19.83482   7.9694 
 C                     13.12492   21.44055   8.72794 
 C                     13.0661   24.3244   8.7347 
 C                     11.34692   25.91427   7.94101 
 C                     13.4486   22.15725   9.90063 
 C                     13.4004   23.60597   9.91188 
 C                     13.06726   21.68861   11.17718 
 C                     12.97971   24.03052   11.18292 
 C                     11.32653   20.48242   12.42359 
 C                     11.05595   25.08218   12.37538 
 C                     11.16601   21.63788   13.23224 
 C                     11.20916   24.04757   13.48198 
 C                     11.93568   22.8144   13.01419 
 C                     12.83661   22.84542   11.9972 
 C                     8.72493   21.29545   13.48669 
 C                     8.72496   24.13409   13.71095 
 C                     7.4921    22.02276   13.3121 
 C                     7.52125   23.42942   13.41205 
 C                     6.50148   21.49846   12.45636 
 C                     6.70116   24.25812   12.59674 
 C                     5.71745   22.32297   11.60789 
 C                     5.83421   23.72298   11.60596 
 C                     5.46316   21.60878   10.38521 
 C                     5.61114   24.44343   10.37573 
 C                     5.26351   22.28143   9.17006 
 C                     5.30001   23.7296   9.15278 
 C                     5.62904   21.5475   8.01532 
 C                     5.60673   24.34271   7.92251 
 C                     5.95698   22.21027   6.79133 
 C                     5.94584   23.58674   6.74851 
 C                     7.00963   21.46938   6.14911 
 C                     6.9958    24.28613   6.04564 
 C                     7.99679   22.13435   5.4488 
 C                     7.99344   23.57945   5.40441 
 C                     9.33965   21.68188   5.53836 
 C                     9.33927   24.03842   5.48096 
 C                     11.93944   21.70778   6.58912 
 C                     11.9277   24.05055   6.57134 
 C                     10.16577   22.85759   5.41165 
 C                     11.42632   22.87164   5.92933 
 C                     9.90326   22.03374   13.74519 
 C                     9.8858    23.45556   13.86909 
 Cl                    8.69353   26.79512   14.43856 
 Cl                    12.06191   24.82037   14.88201 
 
 ITRead=  0  0  0  0  0  0  0  0  0  0  0  0  0  0  0  0  0  0  0  0
 ITRead=  0  0  0  0  0  0  0  0  0  0  0  0  0  0  0  0  0  0  0  0
 ITRead=  0  0  0  0  0  0  0  0  0  0  0  0  0  0  0  0  0  0  0  0
 ITRead=  0  0  0  0  0  0  0  0  0  0  0  0  0  0  0  0  0  0  0  0
 ITRead=  0  0  0  0  0  0
 MicOpt= -1 -1 -1 -1 -1 -1 -1 -1 -1 -1 -1 -1 -1 -1 -1 -1 -1 -1 -1 -1
 MicOpt= -1 -1 -1 -1 -1 -1 -1 -1 -1 -1 -1 -1 -1 -1 -1 -1 -1 -1 -1 -1
 MicOpt= -1 -1 -1 -1 -1 -1 -1 -1 -1 -1 -1 -1 -1 -1 -1 -1 -1 -1 -1 -1
 MicOpt= -1 -1 -1 -1 -1 -1 -1 -1 -1 -1 -1 -1 -1 -1 -1 -1 -1 -1 -1 -1
 MicOpt= -1 -1 -1 -1 -1 -1
 NAtoms=     86 NQM=       86 NQMF=       0 NMMI=      0 NMMIF=      0
                NMic=       0 NMicF=      0.
                    Isotopes and Nuclear Properties:
 (Nuclear quadrupole moments (NQMom) in fm**2, nuclear magnetic moments (NMagM)
  in nuclear magnetons)

  Atom         1           2           3           4           5           6           7           8           9          10
 IAtWgt=          12          12          12          12          12          12          12          12          12          12
 AtmWgt=  12.0000000  12.0000000  12.0000000  12.0000000  12.0000000  12.0000000  12.0000000  12.0000000  12.0000000  12.0000000
 NucSpn=           0           0           0           0           0           0           0           0           0           0
 AtZEff=  -0.0000000  -0.0000000  -0.0000000  -0.0000000  -0.0000000  -0.0000000  -0.0000000  -0.0000000  -0.0000000  -0.0000000
 NQMom=    0.0000000   0.0000000   0.0000000   0.0000000   0.0000000   0.0000000   0.0000000   0.0000000   0.0000000   0.0000000
 NMagM=    0.0000000   0.0000000   0.0000000   0.0000000   0.0000000   0.0000000   0.0000000   0.0000000   0.0000000   0.0000000
 AtZNuc=   6.0000000   6.0000000   6.0000000   6.0000000   6.0000000   6.0000000   6.0000000   6.0000000   6.0000000   6.0000000

  Atom        11          12          13          14          15          16          17          18          19          20
 IAtWgt=          12          12          12          12          12          12          12          12          12          12
 AtmWgt=  12.0000000  12.0000000  12.0000000  12.0000000  12.0000000  12.0000000  12.0000000  12.0000000  12.0000000  12.0000000
 NucSpn=           0           0           0           0           0           0           0           0           0           0
 AtZEff=  -0.0000000  -0.0000000  -0.0000000  -0.0000000  -0.0000000  -0.0000000  -0.0000000  -0.0000000  -0.0000000  -0.0000000
 NQMom=    0.0000000   0.0000000   0.0000000   0.0000000   0.0000000   0.0000000   0.0000000   0.0000000   0.0000000   0.0000000
 NMagM=    0.0000000   0.0000000   0.0000000   0.0000000   0.0000000   0.0000000   0.0000000   0.0000000   0.0000000   0.0000000
 AtZNuc=   6.0000000   6.0000000   6.0000000   6.0000000   6.0000000   6.0000000   6.0000000   6.0000000   6.0000000   6.0000000

  Atom        21          22          23          24          25          26          27          28          29          30
 IAtWgt=          12          12          12          12          12          12          12          12          12          12
 AtmWgt=  12.0000000  12.0000000  12.0000000  12.0000000  12.0000000  12.0000000  12.0000000  12.0000000  12.0000000  12.0000000
 NucSpn=           0           0           0           0           0           0           0           0           0           0
 AtZEff=  -0.0000000  -0.0000000  -0.0000000  -0.0000000  -0.0000000  -0.0000000  -0.0000000  -0.0000000  -0.0000000  -0.0000000
 NQMom=    0.0000000   0.0000000   0.0000000   0.0000000   0.0000000   0.0000000   0.0000000   0.0000000   0.0000000   0.0000000
 NMagM=    0.0000000   0.0000000   0.0000000   0.0000000   0.0000000   0.0000000   0.0000000   0.0000000   0.0000000   0.0000000
 AtZNuc=   6.0000000   6.0000000   6.0000000   6.0000000   6.0000000   6.0000000   6.0000000   6.0000000   6.0000000   6.0000000

  Atom        31          32          33          34          35          36          37          38          39          40
 IAtWgt=          12          12          12          12          12          12          12          12          12          12
 AtmWgt=  12.0000000  12.0000000  12.0000000  12.0000000  12.0000000  12.0000000  12.0000000  12.0000000  12.0000000  12.0000000
 NucSpn=           0           0           0           0           0           0           0           0           0           0
 AtZEff=  -0.0000000  -0.0000000  -0.0000000  -0.0000000  -0.0000000  -0.0000000  -0.0000000  -0.0000000  -0.0000000  -0.0000000
 NQMom=    0.0000000   0.0000000   0.0000000   0.0000000   0.0000000   0.0000000   0.0000000   0.0000000   0.0000000   0.0000000
 NMagM=    0.0000000   0.0000000   0.0000000   0.0000000   0.0000000   0.0000000   0.0000000   0.0000000   0.0000000   0.0000000
 AtZNuc=   6.0000000   6.0000000   6.0000000   6.0000000   6.0000000   6.0000000   6.0000000   6.0000000   6.0000000   6.0000000

  Atom        41          42          43          44          45          46          47          48          49          50
 IAtWgt=          12          12          12          12          12          12          12          12          12          12
 AtmWgt=  12.0000000  12.0000000  12.0000000  12.0000000  12.0000000  12.0000000  12.0000000  12.0000000  12.0000000  12.0000000
 NucSpn=           0           0           0           0           0           0           0           0           0           0
 AtZEff=  -0.0000000  -0.0000000  -0.0000000  -0.0000000  -0.0000000  -0.0000000  -0.0000000  -0.0000000  -0.0000000  -0.0000000
 NQMom=    0.0000000   0.0000000   0.0000000   0.0000000   0.0000000   0.0000000   0.0000000   0.0000000   0.0000000   0.0000000
 NMagM=    0.0000000   0.0000000   0.0000000   0.0000000   0.0000000   0.0000000   0.0000000   0.0000000   0.0000000   0.0000000
 AtZNuc=   6.0000000   6.0000000   6.0000000   6.0000000   6.0000000   6.0000000   6.0000000   6.0000000   6.0000000   6.0000000

  Atom        51          52          53          54          55          56          57          58          59          60
 IAtWgt=          12          12          12          12          12          12          12          12          12          12
 AtmWgt=  12.0000000  12.0000000  12.0000000  12.0000000  12.0000000  12.0000000  12.0000000  12.0000000  12.0000000  12.0000000
 NucSpn=           0           0           0           0           0           0           0           0           0           0
 AtZEff=  -0.0000000  -0.0000000  -0.0000000  -0.0000000  -0.0000000  -0.0000000  -0.0000000  -0.0000000  -0.0000000  -0.0000000
 NQMom=    0.0000000   0.0000000   0.0000000   0.0000000   0.0000000   0.0000000   0.0000000   0.0000000   0.0000000   0.0000000
 NMagM=    0.0000000   0.0000000   0.0000000   0.0000000   0.0000000   0.0000000   0.0000000   0.0000000   0.0000000   0.0000000
 AtZNuc=   6.0000000   6.0000000   6.0000000   6.0000000   6.0000000   6.0000000   6.0000000   6.0000000   6.0000000   6.0000000

  Atom        61          62          63          64          65          66          67          68          69          70
 IAtWgt=          12          12          12          12          12          12          12          12          12          12
 AtmWgt=  12.0000000  12.0000000  12.0000000  12.0000000  12.0000000  12.0000000  12.0000000  12.0000000  12.0000000  12.0000000
 NucSpn=           0           0           0           0           0           0           0           0           0           0
 AtZEff=  -0.0000000  -0.0000000  -0.0000000  -0.0000000  -0.0000000  -0.0000000  -0.0000000  -0.0000000  -0.0000000  -0.0000000
 NQMom=    0.0000000   0.0000000   0.0000000   0.0000000   0.0000000   0.0000000   0.0000000   0.0000000   0.0000000   0.0000000
 NMagM=    0.0000000   0.0000000   0.0000000   0.0000000   0.0000000   0.0000000   0.0000000   0.0000000   0.0000000   0.0000000
 AtZNuc=   6.0000000   6.0000000   6.0000000   6.0000000   6.0000000   6.0000000   6.0000000   6.0000000   6.0000000   6.0000000

  Atom        71          72          73          74          75          76          77          78          79          80
 IAtWgt=          12          12          12          12          12          12          12          12          12          12
 AtmWgt=  12.0000000  12.0000000  12.0000000  12.0000000  12.0000000  12.0000000  12.0000000  12.0000000  12.0000000  12.0000000
 NucSpn=           0           0           0           0           0           0           0           0           0           0
 AtZEff=  -0.0000000  -0.0000000  -0.0000000  -0.0000000  -0.0000000  -0.0000000  -0.0000000  -0.0000000  -0.0000000  -0.0000000
 NQMom=    0.0000000   0.0000000   0.0000000   0.0000000   0.0000000   0.0000000   0.0000000   0.0000000   0.0000000   0.0000000
 NMagM=    0.0000000   0.0000000   0.0000000   0.0000000   0.0000000   0.0000000   0.0000000   0.0000000   0.0000000   0.0000000
 AtZNuc=   6.0000000   6.0000000   6.0000000   6.0000000   6.0000000   6.0000000   6.0000000   6.0000000   6.0000000   6.0000000

  Atom        81          82          83          84          85          86
 IAtWgt=          12          12          12          12          35          35
 AtmWgt=  12.0000000  12.0000000  12.0000000  12.0000000  34.9688527  34.9688527
 NucSpn=           0           0           0           0           3           3
 AtZEff=  -0.0000000  -0.0000000  -0.0000000  -0.0000000  -0.0000000  -0.0000000
 NQMom=    0.0000000   0.0000000   0.0000000   0.0000000  -8.1650000  -8.1650000
 NMagM=    0.0000000   0.0000000   0.0000000   0.0000000   0.8218740   0.8218740
 AtZNuc=   6.0000000   6.0000000   6.0000000   6.0000000  17.0000000  17.0000000
 Leave Link  101 at Sun Jun 26 20:59:14 2022, MaxMem=  1342177280 cpu:               6.5 elap:               0.3
 (Enter /home/mkliu/g16/l103.exe)

 GradGradGradGradGradGradGradGradGradGradGradGradGradGradGradGradGradGrad
 Berny optimization.
 Initialization pass.
                           ----------------------------
                           !    Initial Parameters    !
                           ! (Angstroms and Degrees)  !
 --------------------------                            --------------------------
 ! Name  Definition              Value          Derivative Info.                !
 --------------------------------------------------------------------------------
 ! R1    R(1,5)                  1.4065         estimate D2E/DX2                !
 ! R2    R(1,17)                 1.4227         estimate D2E/DX2                !
 ! R3    R(1,23)                 1.4413         estimate D2E/DX2                !
 ! R4    R(2,6)                  1.4265         estimate D2E/DX2                !
 ! R5    R(2,43)                 1.4302         estimate D2E/DX2                !
 ! R6    R(2,44)                 1.4157         estimate D2E/DX2                !
 ! R7    R(3,7)                  1.413          estimate D2E/DX2                !
 ! R8    R(3,18)                 1.4122         estimate D2E/DX2                !
 ! R9    R(3,26)                 1.4478         estimate D2E/DX2                !
 ! R10   R(4,8)                  1.4324         estimate D2E/DX2                !
 ! R11   R(4,45)                 1.408          estimate D2E/DX2                !
 ! R12   R(4,46)                 1.4245         estimate D2E/DX2                !
 ! R13   R(5,9)                  1.4507         estimate D2E/DX2                !
 ! R14   R(5,29)                 1.4458         estimate D2E/DX2                !
 ! R15   R(6,10)                 1.409          estimate D2E/DX2                !
 ! R16   R(6,15)                 1.4334         estimate D2E/DX2                !
 ! R17   R(7,12)                 1.419          estimate D2E/DX2                !
 ! R18   R(7,30)                 1.4375         estimate D2E/DX2                !
 ! R19   R(8,11)                 1.3996         estimate D2E/DX2                !
 ! R20   R(8,16)                 1.4208         estimate D2E/DX2                !
 ! R21   R(9,13)                 1.4            estimate D2E/DX2                !
 ! R22   R(9,35)                 1.4518         estimate D2E/DX2                !
 ! R23   R(10,49)                1.4169         estimate D2E/DX2                !
 ! R24   R(10,51)                1.4501         estimate D2E/DX2                !
 ! R25   R(11,50)                1.4229         estimate D2E/DX2                !
 ! R26   R(11,52)                1.4461         estimate D2E/DX2                !
 ! R27   R(12,14)                1.3983         estimate D2E/DX2                !
 ! R28   R(12,36)                1.4514         estimate D2E/DX2                !
 ! R29   R(13,15)                1.4285         estimate D2E/DX2                !
 ! R30   R(13,43)                1.4356         estimate D2E/DX2                !
 ! R31   R(14,16)                1.4258         estimate D2E/DX2                !
 ! R32   R(14,46)                1.4322         estimate D2E/DX2                !
 ! R33   R(15,17)                1.3737         estimate D2E/DX2                !
 ! R34   R(16,18)                1.4025         estimate D2E/DX2                !
 ! R35   R(17,19)                1.4417         estimate D2E/DX2                !
 ! R36   R(18,20)                1.4437         estimate D2E/DX2                !
 ! R37   R(19,21)                1.4218         estimate D2E/DX2                !
 ! R38   R(19,51)                1.4079         estimate D2E/DX2                !
 ! R39   R(20,22)                1.522          estimate D2E/DX2                !
 ! R40   R(20,52)                1.3817         estimate D2E/DX2                !
 ! R41   R(21,23)                1.4396         estimate D2E/DX2                !
 ! R42   R(21,57)                1.4109         estimate D2E/DX2                !
 ! R43   R(22,24)                1.5047         estimate D2E/DX2                !
 ! R44   R(22,58)                1.4998         estimate D2E/DX2                !
 ! R45   R(22,85)                1.8113         estimate D2E/DX2                !
 ! R46   R(23,25)                1.3697         estimate D2E/DX2                !
 ! R47   R(24,26)                1.3592         estimate D2E/DX2                !
 ! R48   R(24,62)                1.4187         estimate D2E/DX2                !
 ! R49   R(25,27)                1.4315         estimate D2E/DX2                !
 ! R50   R(25,61)                1.4349         estimate D2E/DX2                !
 ! R51   R(26,28)                1.4347         estimate D2E/DX2                !
 ! R52   R(27,29)                1.4118         estimate D2E/DX2                !
 ! R53   R(27,65)                1.421          estimate D2E/DX2                !
 ! R54   R(28,30)                1.4231         estimate D2E/DX2                !
 ! R55   R(28,66)                1.4059         estimate D2E/DX2                !
 ! R56   R(29,31)                1.3995         estimate D2E/DX2                !
 ! R57   R(30,32)                1.3695         estimate D2E/DX2                !
 ! R58   R(31,33)                1.4401         estimate D2E/DX2                !
 ! R59   R(31,69)                1.424          estimate D2E/DX2                !
 ! R60   R(32,34)                1.4427         estimate D2E/DX2                !
 ! R61   R(32,70)                1.43           estimate D2E/DX2                !
 ! R62   R(33,35)                1.4036         estimate D2E/DX2                !
 ! R63   R(33,73)                1.4256         estimate D2E/DX2                !
 ! R64   R(34,36)                1.4072         estimate D2E/DX2                !
 ! R65   R(34,74)                1.4251         estimate D2E/DX2                !
 ! R66   R(35,37)                1.45           estimate D2E/DX2                !
 ! R67   R(36,38)                1.4513         estimate D2E/DX2                !
 ! R68   R(37,39)                1.4476         estimate D2E/DX2                !
 ! R69   R(37,77)                1.4108         estimate D2E/DX2                !
 ! R70   R(38,42)                1.4537         estimate D2E/DX2                !
 ! R71   R(38,78)                1.4092         estimate D2E/DX2                !
 ! R72   R(39,43)                1.399          estimate D2E/DX2                !
 ! R73   R(39,79)                1.4202         estimate D2E/DX2                !
 ! R74   R(40,41)                1.4475         estimate D2E/DX2                !
 ! R75   R(40,44)                1.4115         estimate D2E/DX2                !
 ! R76   R(40,79)                1.4128         estimate D2E/DX2                !
 ! R77   R(41,45)                1.408          estimate D2E/DX2                !
 ! R78   R(41,80)                1.4172         estimate D2E/DX2                !
 ! R79   R(42,46)                1.4054         estimate D2E/DX2                !
 ! R80   R(42,80)                1.4185         estimate D2E/DX2                !
 ! R81   R(44,47)                1.412          estimate D2E/DX2                !
 ! R82   R(45,48)                1.419          estimate D2E/DX2                !
 ! R83   R(47,48)                1.4496         estimate D2E/DX2                !
 ! R84   R(47,49)                1.4123         estimate D2E/DX2                !
 ! R85   R(48,50)                1.4046         estimate D2E/DX2                !
 ! R86   R(49,56)                1.4366         estimate D2E/DX2                !
 ! R87   R(50,56)                1.445          estimate D2E/DX2                !
 ! R88   R(51,53)                1.4194         estimate D2E/DX2                !
 ! R89   R(52,54)                1.5227         estimate D2E/DX2                !
 ! R90   R(53,55)                1.4227         estimate D2E/DX2                !
 ! R91   R(53,83)                1.4193         estimate D2E/DX2                !
 ! R92   R(54,55)                1.5058         estimate D2E/DX2                !
 ! R93   R(54,84)                1.5005         estimate D2E/DX2                !
 ! R94   R(54,86)                1.8123         estimate D2E/DX2                !
 ! R95   R(55,56)                1.359          estimate D2E/DX2                !
 ! R96   R(57,59)                1.442          estimate D2E/DX2                !
 ! R97   R(57,83)                1.4143         estimate D2E/DX2                !
 ! R98   R(58,60)                1.4265         estimate D2E/DX2                !
 ! R99   R(58,84)                1.3539         estimate D2E/DX2                !
 ! R100  R(59,60)                1.4105         estimate D2E/DX2                !
 ! R101  R(59,61)                1.4102         estimate D2E/DX2                !
 ! R102  R(60,62)                1.4227         estimate D2E/DX2                !
 ! R103  R(61,63)                1.4193         estimate D2E/DX2                !
 ! R104  R(62,64)                1.4211         estimate D2E/DX2                !
 ! R105  R(63,64)                1.4049         estimate D2E/DX2                !
 ! R106  R(63,65)                1.4386         estimate D2E/DX2                !
 ! R107  R(64,66)                1.443          estimate D2E/DX2                !
 ! R108  R(65,67)                1.4032         estimate D2E/DX2                !
 ! R109  R(66,68)                1.4498         estimate D2E/DX2                !
 ! R110  R(67,68)                1.4487         estimate D2E/DX2                !
 ! R111  R(67,69)                1.4162         estimate D2E/DX2                !
 ! R112  R(68,70)                1.4084         estimate D2E/DX2                !
 ! R113  R(69,71)                1.43           estimate D2E/DX2                !
 ! R114  R(70,72)                1.4369         estimate D2E/DX2                !
 ! R115  R(71,72)                1.3772         estimate D2E/DX2                !
 ! R116  R(71,73)                1.4386         estimate D2E/DX2                !
 ! R117  R(72,74)                1.4442         estimate D2E/DX2                !
 ! R118  R(73,75)                1.381          estimate D2E/DX2                !
 ! R119  R(74,76)                1.3805         estimate D2E/DX2                !
 ! R120  R(75,76)                1.4458         estimate D2E/DX2                !
 ! R121  R(75,77)                1.4199         estimate D2E/DX2                !
 ! R122  R(76,78)                1.424          estimate D2E/DX2                !
 ! R123  R(77,81)                1.4425         estimate D2E/DX2                !
 ! R124  R(78,81)                1.443          estimate D2E/DX2                !
 ! R125  R(79,82)                1.4329         estimate D2E/DX2                !
 ! R126  R(80,82)                1.433          estimate D2E/DX2                !
 ! R127  R(81,82)                1.3628         estimate D2E/DX2                !
 ! R128  R(83,84)                1.4273         estimate D2E/DX2                !
 ! A1    A(5,1,17)             121.925          estimate D2E/DX2                !
 ! A2    A(5,1,23)             121.7822         estimate D2E/DX2                !
 ! A3    A(17,1,23)            105.7977         estimate D2E/DX2                !
 ! A4    A(6,2,43)             108.5122         estimate D2E/DX2                !
 ! A5    A(6,2,44)             121.0303         estimate D2E/DX2                !
 ! A6    A(43,2,44)            120.9185         estimate D2E/DX2                !
 ! A7    A(7,3,18)             121.5772         estimate D2E/DX2                !
 ! A8    A(7,3,26)             107.5717         estimate D2E/DX2                !
 ! A9    A(18,3,26)            119.4222         estimate D2E/DX2                !
 ! A10   A(8,4,45)             120.426          estimate D2E/DX2                !
 ! A11   A(8,4,46)             107.879          estimate D2E/DX2                !
 ! A12   A(45,4,46)            121.596          estimate D2E/DX2                !
 ! A13   A(1,5,9)              118.6548         estimate D2E/DX2                !
 ! A14   A(1,5,29)             116.5859         estimate D2E/DX2                !
 ! A15   A(9,5,29)             119.3013         estimate D2E/DX2                !
 ! A16   A(2,6,10)             122.0746         estimate D2E/DX2                !
 ! A17   A(2,6,15)             106.8469         estimate D2E/DX2                !
 ! A18   A(10,6,15)            120.7144         estimate D2E/DX2                !
 ! A19   A(3,7,12)             122.8873         estimate D2E/DX2                !
 ! A20   A(3,7,30)             107.2792         estimate D2E/DX2                !
 ! A21   A(12,7,30)            119.8297         estimate D2E/DX2                !
 ! A22   A(4,8,11)             122.8244         estimate D2E/DX2                !
 ! A23   A(4,8,16)             108.0296         estimate D2E/DX2                !
 ! A24   A(11,8,16)            120.873          estimate D2E/DX2                !
 ! A25   A(5,9,13)             117.8458         estimate D2E/DX2                !
 ! A26   A(5,9,35)             121.086          estimate D2E/DX2                !
 ! A27   A(13,9,35)            116.9691         estimate D2E/DX2                !
 ! A28   A(6,10,49)            115.8722         estimate D2E/DX2                !
 ! A29   A(6,10,51)            118.806          estimate D2E/DX2                !
 ! A30   A(49,10,51)           117.9877         estimate D2E/DX2                !
 ! A31   A(8,11,50)            115.4672         estimate D2E/DX2                !
 ! A32   A(8,11,52)            118.3679         estimate D2E/DX2                !
 ! A33   A(50,11,52)           120.8942         estimate D2E/DX2                !
 ! A34   A(7,12,14)            114.5919         estimate D2E/DX2                !
 ! A35   A(7,12,36)            120.7628         estimate D2E/DX2                !
 ! A36   A(14,12,36)           118.9245         estimate D2E/DX2                !
 ! A37   A(9,13,15)            122.2162         estimate D2E/DX2                !
 ! A38   A(9,13,43)            122.2207         estimate D2E/DX2                !
 ! A39   A(15,13,43)           106.6413         estimate D2E/DX2                !
 ! A40   A(12,14,16)           121.7751         estimate D2E/DX2                !
 ! A41   A(12,14,46)           121.7799         estimate D2E/DX2                !
 ! A42   A(16,14,46)           107.8758         estimate D2E/DX2                !
 ! A43   A(6,15,13)            109.3365         estimate D2E/DX2                !
 ! A44   A(6,15,17)            120.555          estimate D2E/DX2                !
 ! A45   A(13,15,17)           119.7109         estimate D2E/DX2                !
 ! A46   A(8,16,14)            108.2104         estimate D2E/DX2                !
 ! A47   A(8,16,18)            120.8566         estimate D2E/DX2                !
 ! A48   A(14,16,18)           122.8655         estimate D2E/DX2                !
 ! A49   A(1,17,15)            119.3471         estimate D2E/DX2                !
 ! A50   A(1,17,19)            109.7981         estimate D2E/DX2                !
 ! A51   A(15,17,19)           119.8129         estimate D2E/DX2                !
 ! A52   A(3,18,16)            114.6613         estimate D2E/DX2                !
 ! A53   A(3,18,20)            121.7614         estimate D2E/DX2                !
 ! A54   A(16,18,20)           118.4041         estimate D2E/DX2                !
 ! A55   A(17,19,21)           107.232          estimate D2E/DX2                !
 ! A56   A(17,19,51)           120.5525         estimate D2E/DX2                !
 ! A57   A(21,19,51)           122.3529         estimate D2E/DX2                !
 ! A58   A(18,20,22)           117.1706         estimate D2E/DX2                !
 ! A59   A(18,20,52)           120.6992         estimate D2E/DX2                !
 ! A60   A(22,20,52)           120.8861         estimate D2E/DX2                !
 ! A61   A(19,21,23)           107.6047         estimate D2E/DX2                !
 ! A62   A(19,21,57)           122.1348         estimate D2E/DX2                !
 ! A63   A(23,21,57)           120.4398         estimate D2E/DX2                !
 ! A64   A(20,22,24)           112.0377         estimate D2E/DX2                !
 ! A65   A(20,22,58)           111.3629         estimate D2E/DX2                !
 ! A66   A(20,22,85)           108.5394         estimate D2E/DX2                !
 ! A67   A(24,22,58)           100.495          estimate D2E/DX2                !
 ! A68   A(24,22,85)           111.7823         estimate D2E/DX2                !
 ! A69   A(58,22,85)           112.5274         estimate D2E/DX2                !
 ! A70   A(1,23,21)            109.0961         estimate D2E/DX2                !
 ! A71   A(1,23,25)            120.3636         estimate D2E/DX2                !
 ! A72   A(21,23,25)           119.8853         estimate D2E/DX2                !
 ! A73   A(22,24,26)           122.5396         estimate D2E/DX2                !
 ! A74   A(22,24,62)           111.8614         estimate D2E/DX2                !
 ! A75   A(26,24,62)           118.5358         estimate D2E/DX2                !
 ! A76   A(23,25,27)           119.3248         estimate D2E/DX2                !
 ! A77   A(23,25,61)           120.7398         estimate D2E/DX2                !
 ! A78   A(27,25,61)           109.0718         estimate D2E/DX2                !
 ! A79   A(3,26,24)            120.1311         estimate D2E/DX2                !
 ! A80   A(3,26,28)            108.8674         estimate D2E/DX2                !
 ! A81   A(24,26,28)           120.8577         estimate D2E/DX2                !
 ! A82   A(25,27,29)           120.6216         estimate D2E/DX2                !
 ! A83   A(25,27,65)           107.0844         estimate D2E/DX2                !
 ! A84   A(29,27,65)           121.6495         estimate D2E/DX2                !
 ! A85   A(26,28,30)           105.6437         estimate D2E/DX2                !
 ! A86   A(26,28,66)           122.3126         estimate D2E/DX2                !
 ! A87   A(30,28,66)           121.6907         estimate D2E/DX2                !
 ! A88   A(5,29,27)            120.6059         estimate D2E/DX2                !
 ! A89   A(5,29,31)            118.5312         estimate D2E/DX2                !
 ! A90   A(27,29,31)           115.2351         estimate D2E/DX2                !
 ! A91   A(7,30,28)            109.8601         estimate D2E/DX2                !
 ! A92   A(7,30,32)            119.767          estimate D2E/DX2                !
 ! A93   A(28,30,32)           120.0353         estimate D2E/DX2                !
 ! A94   A(29,31,33)           121.4634         estimate D2E/DX2                !
 ! A95   A(29,31,69)           121.97           estimate D2E/DX2                !
 ! A96   A(33,31,69)           108.922          estimate D2E/DX2                !
 ! A97   A(30,32,34)           120.5503         estimate D2E/DX2                !
 ! A98   A(30,32,70)           119.3222         estimate D2E/DX2                !
 ! A99   A(34,32,70)           110.0568         estimate D2E/DX2                !
 ! A100  A(31,33,35)           121.455          estimate D2E/DX2                !
 ! A101  A(31,33,73)           106.9762         estimate D2E/DX2                !
 ! A102  A(35,33,73)           122.4568         estimate D2E/DX2                !
 ! A103  A(32,34,36)           121.3823         estimate D2E/DX2                !
 ! A104  A(32,34,74)           105.9648         estimate D2E/DX2                !
 ! A105  A(36,34,74)           122.451          estimate D2E/DX2                !
 ! A106  A(9,35,33)            117.0095         estimate D2E/DX2                !
 ! A107  A(9,35,37)            120.7149         estimate D2E/DX2                !
 ! A108  A(33,35,37)           118.1051         estimate D2E/DX2                !
 ! A109  A(12,36,34)           116.954          estimate D2E/DX2                !
 ! A110  A(12,36,38)           119.535          estimate D2E/DX2                !
 ! A111  A(34,36,38)           118.3411         estimate D2E/DX2                !
 ! A112  A(35,37,39)           119.7353         estimate D2E/DX2                !
 ! A113  A(35,37,77)           118.1968         estimate D2E/DX2                !
 ! A114  A(39,37,77)           116.8558         estimate D2E/DX2                !
 ! A115  A(36,38,42)           119.9255         estimate D2E/DX2                !
 ! A116  A(36,38,78)           117.7855         estimate D2E/DX2                !
 ! A117  A(42,38,78)           117.2823         estimate D2E/DX2                !
 ! A118  A(37,39,43)           118.3243         estimate D2E/DX2                !
 ! A119  A(37,39,79)           120.2084         estimate D2E/DX2                !
 ! A120  A(43,39,79)           115.8106         estimate D2E/DX2                !
 ! A121  A(41,40,44)           120.9999         estimate D2E/DX2                !
 ! A122  A(41,40,79)           108.3502         estimate D2E/DX2                !
 ! A123  A(44,40,79)           121.1464         estimate D2E/DX2                !
 ! A124  A(40,41,45)           120.2729         estimate D2E/DX2                !
 ! A125  A(40,41,80)           108.5373         estimate D2E/DX2                !
 ! A126  A(45,41,80)           121.0795         estimate D2E/DX2                !
 ! A127  A(38,42,46)           118.8044         estimate D2E/DX2                !
 ! A128  A(38,42,80)           119.9264         estimate D2E/DX2                !
 ! A129  A(46,42,80)           115.2276         estimate D2E/DX2                !
 ! A130  A(2,43,13)            108.3336         estimate D2E/DX2                !
 ! A131  A(2,43,39)            122.1387         estimate D2E/DX2                !
 ! A132  A(13,43,39)           121.2362         estimate D2E/DX2                !
 ! A133  A(2,44,40)            116.8303         estimate D2E/DX2                !
 ! A134  A(2,44,47)            116.9687         estimate D2E/DX2                !
 ! A135  A(40,44,47)           118.6046         estimate D2E/DX2                !
 ! A136  A(4,45,41)            116.7383         estimate D2E/DX2                !
 ! A137  A(4,45,48)            116.7821         estimate D2E/DX2                !
 ! A138  A(41,45,48)           118.8141         estimate D2E/DX2                !
 ! A139  A(4,46,14)            107.9235         estimate D2E/DX2                !
 ! A140  A(4,46,42)            122.1918         estimate D2E/DX2                !
 ! A141  A(14,46,42)           120.9582         estimate D2E/DX2                !
 ! A142  A(44,47,48)           120.4061         estimate D2E/DX2                !
 ! A143  A(44,47,49)           121.357          estimate D2E/DX2                !
 ! A144  A(48,47,49)           108.3993         estimate D2E/DX2                !
 ! A145  A(45,48,47)           120.4893         estimate D2E/DX2                !
 ! A146  A(45,48,50)           121.8111         estimate D2E/DX2                !
 ! A147  A(47,48,50)           108.607          estimate D2E/DX2                !
 ! A148  A(10,49,47)           122.3663         estimate D2E/DX2                !
 ! A149  A(10,49,56)           120.9237         estimate D2E/DX2                !
 ! A150  A(47,49,56)           106.9828         estimate D2E/DX2                !
 ! A151  A(11,50,48)           121.7047         estimate D2E/DX2                !
 ! A152  A(11,50,56)           119.7606         estimate D2E/DX2                !
 ! A153  A(48,50,56)           106.9604         estimate D2E/DX2                !
 ! A154  A(10,51,19)           119.3705         estimate D2E/DX2                !
 ! A155  A(10,51,53)           118.8593         estimate D2E/DX2                !
 ! A156  A(19,51,53)           115.1679         estimate D2E/DX2                !
 ! A157  A(11,52,20)           120.7716         estimate D2E/DX2                !
 ! A158  A(11,52,54)           117.4576         estimate D2E/DX2                !
 ! A159  A(20,52,54)           120.5902         estimate D2E/DX2                !
 ! A160  A(51,53,55)           121.6464         estimate D2E/DX2                !
 ! A161  A(51,53,83)           122.2461         estimate D2E/DX2                !
 ! A162  A(55,53,83)           107.8218         estimate D2E/DX2                !
 ! A163  A(52,54,55)           112.2864         estimate D2E/DX2                !
 ! A164  A(52,54,84)           111.5196         estimate D2E/DX2                !
 ! A165  A(52,54,86)           108.6047         estimate D2E/DX2                !
 ! A166  A(55,54,84)           100.5188         estimate D2E/DX2                !
 ! A167  A(55,54,86)           111.2345         estimate D2E/DX2                !
 ! A168  A(84,54,86)           112.5764         estimate D2E/DX2                !
 ! A169  A(53,55,54)           111.6301         estimate D2E/DX2                !
 ! A170  A(53,55,56)           119.4852         estimate D2E/DX2                !
 ! A171  A(54,55,56)           122.2521         estimate D2E/DX2                !
 ! A172  A(49,56,50)           108.8358         estimate D2E/DX2                !
 ! A173  A(49,56,55)           121.0112         estimate D2E/DX2                !
 ! A174  A(50,56,55)           120.4021         estimate D2E/DX2                !
 ! A175  A(21,57,59)           119.3956         estimate D2E/DX2                !
 ! A176  A(21,57,83)           115.4776         estimate D2E/DX2                !
 ! A177  A(59,57,83)           118.1072         estimate D2E/DX2                !
 ! A178  A(22,58,60)           111.1123         estimate D2E/DX2                !
 ! A179  A(22,58,84)           121.8397         estimate D2E/DX2                !
 ! A180  A(60,58,84)           120.0279         estimate D2E/DX2                !
 ! A181  A(57,59,60)           118.4742         estimate D2E/DX2                !
 ! A182  A(57,59,61)           119.1132         estimate D2E/DX2                !
 ! A183  A(60,59,61)           115.3603         estimate D2E/DX2                !
 ! A184  A(58,60,59)           121.6638         estimate D2E/DX2                !
 ! A185  A(58,60,62)           108.5878         estimate D2E/DX2                !
 ! A186  A(59,60,62)           121.8961         estimate D2E/DX2                !
 ! A187  A(25,61,59)           120.377          estimate D2E/DX2                !
 ! A188  A(25,61,63)           106.9534         estimate D2E/DX2                !
 ! A189  A(59,61,63)           122.3336         estimate D2E/DX2                !
 ! A190  A(24,62,60)           107.7468         estimate D2E/DX2                !
 ! A191  A(24,62,64)           121.6588         estimate D2E/DX2                !
 ! A192  A(60,62,64)           122.1305         estimate D2E/DX2                !
 ! A193  A(61,63,64)           122.264          estimate D2E/DX2                !
 ! A194  A(61,63,65)           108.5009         estimate D2E/DX2                !
 ! A195  A(64,63,65)           120.5466         estimate D2E/DX2                !
 ! A196  A(62,64,63)           115.1507         estimate D2E/DX2                !
 ! A197  A(62,64,66)           120.0448         estimate D2E/DX2                !
 ! A198  A(63,64,66)           119.0689         estimate D2E/DX2                !
 ! A199  A(27,65,63)           108.2557         estimate D2E/DX2                !
 ! A200  A(27,65,67)           122.0704         estimate D2E/DX2                !
 ! A201  A(63,65,67)           121.5456         estimate D2E/DX2                !
 ! A202  A(28,66,64)           116.1087         estimate D2E/DX2                !
 ! A203  A(28,66,68)           118.0925         estimate D2E/DX2                !
 ! A204  A(64,66,68)           120.4308         estimate D2E/DX2                !
 ! A205  A(65,67,68)           119.0737         estimate D2E/DX2                !
 ! A206  A(65,67,69)           114.8954         estimate D2E/DX2                !
 ! A207  A(68,67,69)           120.119          estimate D2E/DX2                !
 ! A208  A(66,68,67)           119.1771         estimate D2E/DX2                !
 ! A209  A(66,68,70)           118.4098         estimate D2E/DX2                !
 ! A210  A(67,68,70)           116.8121         estimate D2E/DX2                !
 ! A211  A(31,69,67)           121.5176         estimate D2E/DX2                !
 ! A212  A(31,69,71)           107.368          estimate D2E/DX2                !
 ! A213  A(67,69,71)           121.1247         estimate D2E/DX2                !
 ! A214  A(32,70,68)           121.4623         estimate D2E/DX2                !
 ! A215  A(32,70,72)           106.0893         estimate D2E/DX2                !
 ! A216  A(68,70,72)           122.4161         estimate D2E/DX2                !
 ! A217  A(69,71,72)           119.2077         estimate D2E/DX2                !
 ! A218  A(69,71,73)           108.133          estimate D2E/DX2                !
 ! A219  A(72,71,73)           120.4512         estimate D2E/DX2                !
 ! A220  A(70,72,71)           120.1551         estimate D2E/DX2                !
 ! A221  A(70,72,74)           108.3268         estimate D2E/DX2                !
 ! A222  A(71,72,74)           119.5568         estimate D2E/DX2                !
 ! A223  A(33,73,71)           108.2541         estimate D2E/DX2                !
 ! A224  A(33,73,75)           119.4069         estimate D2E/DX2                !
 ! A225  A(71,73,75)           120.097          estimate D2E/DX2                !
 ! A226  A(34,74,72)           108.7374         estimate D2E/DX2                !
 ! A227  A(34,74,76)           119.1265         estimate D2E/DX2                !
 ! A228  A(72,74,76)           120.2354         estimate D2E/DX2                !
 ! A229  A(73,75,76)           119.6831         estimate D2E/DX2                !
 ! A230  A(73,75,77)           119.3814         estimate D2E/DX2                !
 ! A231  A(76,75,77)           108.823          estimate D2E/DX2                !
 ! A232  A(74,76,75)           119.9381         estimate D2E/DX2                !
 ! A233  A(74,76,78)           119.5395         estimate D2E/DX2                !
 ! A234  A(75,76,78)           108.5614         estimate D2E/DX2                !
 ! A235  A(37,77,75)           122.3564         estimate D2E/DX2                !
 ! A236  A(37,77,81)           121.1784         estimate D2E/DX2                !
 ! A237  A(75,77,81)           106.0434         estimate D2E/DX2                !
 ! A238  A(38,78,76)           122.514          estimate D2E/DX2                !
 ! A239  A(38,78,81)           121.1354         estimate D2E/DX2                !
 ! A240  A(76,78,81)           105.9613         estimate D2E/DX2                !
 ! A241  A(39,79,40)           122.1534         estimate D2E/DX2                !
 ! A242  A(39,79,82)           120.1326         estimate D2E/DX2                !
 ! A243  A(40,79,82)           106.6544         estimate D2E/DX2                !
 ! A244  A(41,80,42)           122.6524         estimate D2E/DX2                !
 ! A245  A(41,80,82)           106.3631         estimate D2E/DX2                !
 ! A246  A(42,80,82)           120.1652         estimate D2E/DX2                !
 ! A247  A(77,81,78)           109.5557         estimate D2E/DX2                !
 ! A248  A(77,81,82)           120.3157         estimate D2E/DX2                !
 ! A249  A(78,81,82)           120.2064         estimate D2E/DX2                !
 ! A250  A(79,82,80)           109.6731         estimate D2E/DX2                !
 ! A251  A(79,82,81)           119.8531         estimate D2E/DX2                !
 ! A252  A(80,82,81)           120.1531         estimate D2E/DX2                !
 ! A253  A(53,83,57)           121.9782         estimate D2E/DX2                !
 ! A254  A(53,83,84)           108.6691         estimate D2E/DX2                !
 ! A255  A(57,83,84)           121.713          estimate D2E/DX2                !
 ! A256  A(54,84,58)           121.8922         estimate D2E/DX2                !
 ! A257  A(54,84,83)           111.0894         estimate D2E/DX2                !
 ! A258  A(58,84,83)           119.9736         estimate D2E/DX2                !
 ! D1    D(17,1,5,9)             3.9003         estimate D2E/DX2                !
 ! D2    D(17,1,5,29)         -149.8828         estimate D2E/DX2                !
 ! D3    D(23,1,5,9)           143.6634         estimate D2E/DX2                !
 ! D4    D(23,1,5,29)          -10.1197         estimate D2E/DX2                !
 ! D5    D(5,1,17,15)           -5.42           estimate D2E/DX2                !
 ! D6    D(5,1,17,19)          138.5394         estimate D2E/DX2                !
 ! D7    D(23,1,17,15)        -150.6246         estimate D2E/DX2                !
 ! D8    D(23,1,17,19)          -6.6652         estimate D2E/DX2                !
 ! D9    D(5,1,23,21)         -138.4743         estimate D2E/DX2                !
 ! D10   D(5,1,23,25)            6.0068         estimate D2E/DX2                !
 ! D11   D(17,1,23,21)           6.7919         estimate D2E/DX2                !
 ! D12   D(17,1,23,25)         151.273          estimate D2E/DX2                !
 ! D13   D(43,2,6,10)         -142.2846         estimate D2E/DX2                !
 ! D14   D(43,2,6,15)            2.7565         estimate D2E/DX2                !
 ! D15   D(44,2,6,10)            4.204          estimate D2E/DX2                !
 ! D16   D(44,2,6,15)          149.2451         estimate D2E/DX2                !
 ! D17   D(6,2,43,13)            0.8373         estimate D2E/DX2                !
 ! D18   D(6,2,43,39)          149.4139         estimate D2E/DX2                !
 ! D19   D(44,2,43,13)        -145.6957         estimate D2E/DX2                !
 ! D20   D(44,2,43,39)           2.8809         estimate D2E/DX2                !
 ! D21   D(6,2,44,40)         -149.3345         estimate D2E/DX2                !
 ! D22   D(6,2,44,47)           -0.0904         estimate D2E/DX2                !
 ! D23   D(43,2,44,40)          -6.9422         estimate D2E/DX2                !
 ! D24   D(43,2,44,47)         142.3018         estimate D2E/DX2                !
 ! D25   D(18,3,7,12)           -1.7045         estimate D2E/DX2                !
 ! D26   D(18,3,7,30)          143.5299         estimate D2E/DX2                !
 ! D27   D(26,3,7,12)         -144.7856         estimate D2E/DX2                !
 ! D28   D(26,3,7,30)            0.4488         estimate D2E/DX2                !
 ! D29   D(7,3,18,16)           11.2466         estimate D2E/DX2                !
 ! D30   D(7,3,18,20)         -142.8938         estimate D2E/DX2                !
 ! D31   D(26,3,18,16)         150.1408         estimate D2E/DX2                !
 ! D32   D(26,3,18,20)          -3.9997         estimate D2E/DX2                !
 ! D33   D(7,3,26,24)          150.6364         estimate D2E/DX2                !
 ! D34   D(7,3,26,28)            5.0416         estimate D2E/DX2                !
 ! D35   D(18,3,26,24)           6.6176         estimate D2E/DX2                !
 ! D36   D(18,3,26,28)        -138.9771         estimate D2E/DX2                !
 ! D37   D(45,4,8,11)           -0.0996         estimate D2E/DX2                !
 ! D38   D(45,4,8,16)         -148.5433         estimate D2E/DX2                !
 ! D39   D(46,4,8,11)          145.7833         estimate D2E/DX2                !
 ! D40   D(46,4,8,16)           -2.6605         estimate D2E/DX2                !
 ! D41   D(8,4,45,41)          144.4102         estimate D2E/DX2                !
 ! D42   D(8,4,45,48)           -4.7728         estimate D2E/DX2                !
 ! D43   D(46,4,45,41)           3.2172         estimate D2E/DX2                !
 ! D44   D(46,4,45,48)        -145.9658         estimate D2E/DX2                !
 ! D45   D(8,4,46,14)            2.9152         estimate D2E/DX2                !
 ! D46   D(8,4,46,42)         -144.488          estimate D2E/DX2                !
 ! D47   D(45,4,46,14)         148.3172         estimate D2E/DX2                !
 ! D48   D(45,4,46,42)           0.9141         estimate D2E/DX2                !
 ! D49   D(1,5,9,13)             1.0816         estimate D2E/DX2                !
 ! D50   D(1,5,9,35)          -155.4671         estimate D2E/DX2                !
 ! D51   D(29,5,9,13)          154.1441         estimate D2E/DX2                !
 ! D52   D(29,5,9,35)           -2.4047         estimate D2E/DX2                !
 ! D53   D(1,5,29,27)            7.7782         estimate D2E/DX2                !
 ! D54   D(1,5,29,31)          160.0798         estimate D2E/DX2                !
 ! D55   D(9,5,29,27)         -145.828          estimate D2E/DX2                !
 ! D56   D(9,5,29,31)            6.4736         estimate D2E/DX2                !
 ! D57   D(2,6,10,49)           -6.8718         estimate D2E/DX2                !
 ! D58   D(2,6,10,51)          142.6582         estimate D2E/DX2                !
 ! D59   D(15,6,10,49)        -147.2382         estimate D2E/DX2                !
 ! D60   D(15,6,10,51)           2.2918         estimate D2E/DX2                !
 ! D61   D(2,6,15,13)           -5.3853         estimate D2E/DX2                !
 ! D62   D(2,6,15,17)         -150.1815         estimate D2E/DX2                !
 ! D63   D(10,6,15,13)         140.23           estimate D2E/DX2                !
 ! D64   D(10,6,15,17)          -4.5662         estimate D2E/DX2                !
 ! D65   D(3,7,12,14)           -8.9411         estimate D2E/DX2                !
 ! D66   D(3,7,12,36)          144.1112         estimate D2E/DX2                !
 ! D67   D(30,7,12,14)        -150.0646         estimate D2E/DX2                !
 ! D68   D(30,7,12,36)           2.9877         estimate D2E/DX2                !
 ! D69   D(3,7,30,28)           -5.8653         estimate D2E/DX2                !
 ! D70   D(3,7,30,32)         -150.9171         estimate D2E/DX2                !
 ! D71   D(12,7,30,28)         140.6325         estimate D2E/DX2                !
 ! D72   D(12,7,30,32)          -4.4193         estimate D2E/DX2                !
 ! D73   D(4,8,11,50)            8.1585         estimate D2E/DX2                !
 ! D74   D(4,8,11,52)         -146.4641         estimate D2E/DX2                !
 ! D75   D(16,8,11,50)         152.7227         estimate D2E/DX2                !
 ! D76   D(16,8,11,52)          -1.8999         estimate D2E/DX2                !
 ! D77   D(4,8,16,14)            1.3777         estimate D2E/DX2                !
 ! D78   D(4,8,16,18)          150.9232         estimate D2E/DX2                !
 ! D79   D(11,8,16,14)        -147.8            estimate D2E/DX2                !
 ! D80   D(11,8,16,18)           1.7456         estimate D2E/DX2                !
 ! D81   D(5,9,13,15)           -4.6396         estimate D2E/DX2                !
 ! D82   D(5,9,13,43)         -147.507          estimate D2E/DX2                !
 ! D83   D(35,9,13,15)         152.8777         estimate D2E/DX2                !
 ! D84   D(35,9,13,43)          10.0103         estimate D2E/DX2                !
 ! D85   D(5,9,35,33)           -6.8744         estimate D2E/DX2                !
 ! D86   D(5,9,35,37)          149.7435         estimate D2E/DX2                !
 ! D87   D(13,9,35,33)        -163.6194         estimate D2E/DX2                !
 ! D88   D(13,9,35,37)          -7.0015         estimate D2E/DX2                !
 ! D89   D(6,10,49,47)           5.8714         estimate D2E/DX2                !
 ! D90   D(6,10,49,56)         147.3874         estimate D2E/DX2                !
 ! D91   D(51,10,49,47)       -143.9175         estimate D2E/DX2                !
 ! D92   D(51,10,49,56)         -2.4015         estimate D2E/DX2                !
 ! D93   D(6,10,51,19)           1.7078         estimate D2E/DX2                !
 ! D94   D(6,10,51,53)        -148.4446         estimate D2E/DX2                !
 ! D95   D(49,10,51,19)        150.5973         estimate D2E/DX2                !
 ! D96   D(49,10,51,53)          0.4449         estimate D2E/DX2                !
 ! D97   D(8,11,50,48)         -11.6429         estimate D2E/DX2                !
 ! D98   D(8,11,50,56)        -150.0763         estimate D2E/DX2                !
 ! D99   D(52,11,50,48)        142.2874         estimate D2E/DX2                !
 ! D100  D(52,11,50,56)          3.854          estimate D2E/DX2                !
 ! D101  D(8,11,52,20)           0.8179         estimate D2E/DX2                !
 ! D102  D(8,11,52,54)         168.4732         estimate D2E/DX2                !
 ! D103  D(50,11,52,20)       -152.38           estimate D2E/DX2                !
 ! D104  D(50,11,52,54)         15.2753         estimate D2E/DX2                !
 ! D105  D(7,12,14,16)           9.7415         estimate D2E/DX2                !
 ! D106  D(7,12,14,46)         153.6922         estimate D2E/DX2                !
 ! D107  D(36,12,14,16)       -143.8409         estimate D2E/DX2                !
 ! D108  D(36,12,14,46)          0.1098         estimate D2E/DX2                !
 ! D109  D(7,12,36,34)           3.9916         estimate D2E/DX2                !
 ! D110  D(7,12,36,38)        -150.1965         estimate D2E/DX2                !
 ! D111  D(14,12,36,34)        155.9053         estimate D2E/DX2                !
 ! D112  D(14,12,36,38)          1.7173         estimate D2E/DX2                !
 ! D113  D(9,13,15,6)         -141.913          estimate D2E/DX2                !
 ! D114  D(9,13,15,17)           3.2267         estimate D2E/DX2                !
 ! D115  D(43,13,15,6)           5.877          estimate D2E/DX2                !
 ! D116  D(43,13,15,17)        151.0167         estimate D2E/DX2                !
 ! D117  D(9,13,43,2)          143.6888         estimate D2E/DX2                !
 ! D118  D(9,13,43,39)          -5.226          estimate D2E/DX2                !
 ! D119  D(15,13,43,2)          -4.0995         estimate D2E/DX2                !
 ! D120  D(15,13,43,39)       -153.0142         estimate D2E/DX2                !
 ! D121  D(12,14,16,8)         148.7133         estimate D2E/DX2                !
 ! D122  D(12,14,16,18)         -0.0871         estimate D2E/DX2                !
 ! D123  D(46,14,16,8)           0.424          estimate D2E/DX2                !
 ! D124  D(46,14,16,18)       -148.3764         estimate D2E/DX2                !
 ! D125  D(12,14,46,4)        -150.3593         estimate D2E/DX2                !
 ! D126  D(12,14,46,42)         -2.4758         estimate D2E/DX2                !
 ! D127  D(16,14,46,4)          -2.0718         estimate D2E/DX2                !
 ! D128  D(16,14,46,42)        145.8117         estimate D2E/DX2                !
 ! D129  D(6,15,17,1)          143.0541         estimate D2E/DX2                !
 ! D130  D(6,15,17,19)           2.6986         estimate D2E/DX2                !
 ! D131  D(13,15,17,1)           1.832          estimate D2E/DX2                !
 ! D132  D(13,15,17,19)       -138.5235         estimate D2E/DX2                !
 ! D133  D(8,16,18,3)         -155.511          estimate D2E/DX2                !
 ! D134  D(8,16,18,20)          -0.4469         estimate D2E/DX2                !
 ! D135  D(14,16,18,3)         -10.4855         estimate D2E/DX2                !
 ! D136  D(14,16,18,20)        144.5785         estimate D2E/DX2                !
 ! D137  D(1,17,19,21)           4.0733         estimate D2E/DX2                !
 ! D138  D(1,17,19,51)        -142.4069         estimate D2E/DX2                !
 ! D139  D(15,17,19,21)        147.8396         estimate D2E/DX2                !
 ! D140  D(15,17,19,51)          1.3594         estimate D2E/DX2                !
 ! D141  D(3,18,20,22)         -14.7865         estimate D2E/DX2                !
 ! D142  D(3,18,20,52)         152.5831         estimate D2E/DX2                !
 ! D143  D(16,18,20,22)       -168.0022         estimate D2E/DX2                !
 ! D144  D(16,18,20,52)         -0.6325         estimate D2E/DX2                !
 ! D145  D(17,19,21,23)          0.2553         estimate D2E/DX2                !
 ! D146  D(17,19,21,57)       -145.5369         estimate D2E/DX2                !
 ! D147  D(51,19,21,23)        145.9957         estimate D2E/DX2                !
 ! D148  D(51,19,21,57)          0.2035         estimate D2E/DX2                !
 ! D149  D(17,19,51,10)         -3.5565         estimate D2E/DX2                !
 ! D150  D(17,19,51,53)        147.6531         estimate D2E/DX2                !
 ! D151  D(21,19,51,10)       -144.9215         estimate D2E/DX2                !
 ! D152  D(21,19,51,53)          6.2882         estimate D2E/DX2                !
 ! D153  D(18,20,22,24)         28.8362         estimate D2E/DX2                !
 ! D154  D(18,20,22,58)        140.5109         estimate D2E/DX2                !
 ! D155  D(18,20,22,85)        -95.0809         estimate D2E/DX2                !
 ! D156  D(52,20,22,24)       -138.5085         estimate D2E/DX2                !
 ! D157  D(52,20,22,58)        -26.8337         estimate D2E/DX2                !
 ! D158  D(52,20,22,85)         97.5744         estimate D2E/DX2                !
 ! D159  D(18,20,52,11)          0.4462         estimate D2E/DX2                !
 ! D160  D(18,20,52,54)       -166.8224         estimate D2E/DX2                !
 ! D161  D(22,20,52,11)        167.3448         estimate D2E/DX2                !
 ! D162  D(22,20,52,54)          0.0761         estimate D2E/DX2                !
 ! D163  D(19,21,23,1)          -4.4228         estimate D2E/DX2                !
 ! D164  D(19,21,23,25)       -149.1013         estimate D2E/DX2                !
 ! D165  D(57,21,23,1)         142.0606         estimate D2E/DX2                !
 ! D166  D(57,21,23,25)         -2.6179         estimate D2E/DX2                !
 ! D167  D(19,21,57,59)        143.6899         estimate D2E/DX2                !
 ! D168  D(19,21,57,83)         -6.4719         estimate D2E/DX2                !
 ! D169  D(23,21,57,59)          2.1184         estimate D2E/DX2                !
 ! D170  D(23,21,57,83)       -148.0434         estimate D2E/DX2                !
 ! D171  D(20,22,24,26)        -27.8026         estimate D2E/DX2                !
 ! D172  D(20,22,24,62)        122.259          estimate D2E/DX2                !
 ! D173  D(58,22,24,26)       -146.1398         estimate D2E/DX2                !
 ! D174  D(58,22,24,62)          3.9219         estimate D2E/DX2                !
 ! D175  D(85,22,24,26)         94.2807         estimate D2E/DX2                !
 ! D176  D(85,22,24,62)       -115.6577         estimate D2E/DX2                !
 ! D177  D(20,22,58,60)       -123.2449         estimate D2E/DX2                !
 ! D178  D(20,22,58,84)         27.3552         estimate D2E/DX2                !
 ! D179  D(24,22,58,60)         -4.4148         estimate D2E/DX2                !
 ! D180  D(24,22,58,84)        146.1853         estimate D2E/DX2                !
 ! D181  D(85,22,58,60)        114.6242         estimate D2E/DX2                !
 ! D182  D(85,22,58,84)        -94.7757         estimate D2E/DX2                !
 ! D183  D(1,23,25,27)           0.9189         estimate D2E/DX2                !
 ! D184  D(1,23,25,61)        -139.4449         estimate D2E/DX2                !
 ! D185  D(21,23,25,27)        141.6322         estimate D2E/DX2                !
 ! D186  D(21,23,25,61)          1.2684         estimate D2E/DX2                !
 ! D187  D(22,24,26,3)          10.5795         estimate D2E/DX2                !
 ! D188  D(22,24,26,28)        152.0549         estimate D2E/DX2                !
 ! D189  D(62,24,26,3)        -137.6022         estimate D2E/DX2                !
 ! D190  D(62,24,26,28)          3.8732         estimate D2E/DX2                !
 ! D191  D(22,24,62,60)         -2.1042         estimate D2E/DX2                !
 ! D192  D(22,24,62,64)       -150.6872         estimate D2E/DX2                !
 ! D193  D(26,24,62,60)        149.2821         estimate D2E/DX2                !
 ! D194  D(26,24,62,64)          0.6991         estimate D2E/DX2                !
 ! D195  D(23,25,27,29)         -3.1383         estimate D2E/DX2                !
 ! D196  D(23,25,27,65)       -148.2049         estimate D2E/DX2                !
 ! D197  D(61,25,27,29)        141.4023         estimate D2E/DX2                !
 ! D198  D(61,25,27,65)         -3.6643         estimate D2E/DX2                !
 ! D199  D(23,25,61,59)          0.5398         estimate D2E/DX2                !
 ! D200  D(23,25,61,63)        146.3121         estimate D2E/DX2                !
 ! D201  D(27,25,61,59)       -143.4118         estimate D2E/DX2                !
 ! D202  D(27,25,61,63)          2.3605         estimate D2E/DX2                !
 ! D203  D(3,26,28,30)          -8.4457         estimate D2E/DX2                !
 ! D204  D(3,26,28,66)         136.9015         estimate D2E/DX2                !
 ! D205  D(24,26,28,30)       -153.7458         estimate D2E/DX2                !
 ! D206  D(24,26,28,66)         -8.3986         estimate D2E/DX2                !
 ! D207  D(25,27,29,5)          -1.34           estimate D2E/DX2                !
 ! D208  D(25,27,29,31)       -154.5031         estimate D2E/DX2                !
 ! D209  D(65,27,29,5)         138.6453         estimate D2E/DX2                !
 ! D210  D(65,27,29,31)        -14.5178         estimate D2E/DX2                !
 ! D211  D(25,27,65,63)          3.5333         estimate D2E/DX2                !
 ! D212  D(25,27,65,67)        152.4924         estimate D2E/DX2                !
 ! D213  D(29,27,65,63)       -141.096          estimate D2E/DX2                !
 ! D214  D(29,27,65,67)          7.8631         estimate D2E/DX2                !
 ! D215  D(26,28,30,7)           8.8124         estimate D2E/DX2                !
 ! D216  D(26,28,30,32)        153.7562         estimate D2E/DX2                !
 ! D217  D(66,28,30,7)        -136.8021         estimate D2E/DX2                !
 ! D218  D(66,28,30,32)          8.1417         estimate D2E/DX2                !
 ! D219  D(26,28,66,64)          7.6207         estimate D2E/DX2                !
 ! D220  D(26,28,66,68)       -146.666          estimate D2E/DX2                !
 ! D221  D(30,28,66,64)        147.5685         estimate D2E/DX2                !
 ! D222  D(30,28,66,68)         -6.7182         estimate D2E/DX2                !
 ! D223  D(5,29,31,33)          -1.3008         estimate D2E/DX2                !
 ! D224  D(5,29,31,69)        -147.4072         estimate D2E/DX2                !
 ! D225  D(27,29,31,33)        152.4504         estimate D2E/DX2                !
 ! D226  D(27,29,31,69)          6.344          estimate D2E/DX2                !
 ! D227  D(7,30,32,34)          -1.2009         estimate D2E/DX2                !
 ! D228  D(7,30,32,70)         140.8234         estimate D2E/DX2                !
 ! D229  D(28,30,32,34)       -142.7141         estimate D2E/DX2                !
 ! D230  D(28,30,32,70)         -0.6897         estimate D2E/DX2                !
 ! D231  D(29,31,33,35)         -8.5009         estimate D2E/DX2                !
 ! D232  D(29,31,33,73)       -156.1211         estimate D2E/DX2                !
 ! D233  D(69,31,33,35)        141.4928         estimate D2E/DX2                !
 ! D234  D(69,31,33,73)         -6.1274         estimate D2E/DX2                !
 ! D235  D(29,31,69,67)          8.9673         estimate D2E/DX2                !
 ! D236  D(29,31,69,71)        154.7706         estimate D2E/DX2                !
 ! D237  D(33,31,69,67)       -140.845          estimate D2E/DX2                !
 ! D238  D(33,31,69,71)          4.9583         estimate D2E/DX2                !
 ! D239  D(30,32,34,36)          8.5864         estimate D2E/DX2                !
 ! D240  D(30,32,34,74)        154.505          estimate D2E/DX2                !
 ! D241  D(70,32,34,36)       -136.5847         estimate D2E/DX2                !
 ! D242  D(70,32,34,74)          9.3339         estimate D2E/DX2                !
 ! D243  D(30,32,70,68)         -8.0556         estimate D2E/DX2                !
 ! D244  D(30,32,70,72)       -154.2127         estimate D2E/DX2                !
 ! D245  D(34,32,70,68)        137.6031         estimate D2E/DX2                !
 ! D246  D(34,32,70,72)         -8.554          estimate D2E/DX2                !
 ! D247  D(31,33,35,9)          12.2608         estimate D2E/DX2                !
 ! D248  D(31,33,35,37)       -144.9838         estimate D2E/DX2                !
 ! D249  D(73,33,35,9)         154.8871         estimate D2E/DX2                !
 ! D250  D(73,33,35,37)         -2.3575         estimate D2E/DX2                !
 ! D251  D(31,33,73,71)          4.8986         estimate D2E/DX2                !
 ! D252  D(31,33,73,75)        147.275          estimate D2E/DX2                !
 ! D253  D(35,33,73,71)       -142.3222         estimate D2E/DX2                !
 ! D254  D(35,33,73,75)          0.0542         estimate D2E/DX2                !
 ! D255  D(32,34,36,12)         -9.7102         estimate D2E/DX2                !
 ! D256  D(32,34,36,38)        144.7948         estimate D2E/DX2                !
 ! D257  D(74,34,36,12)       -150.0339         estimate D2E/DX2                !
 ! D258  D(74,34,36,38)          4.4712         estimate D2E/DX2                !
 ! D259  D(32,34,74,72)         -6.3744         estimate D2E/DX2                !
 ! D260  D(32,34,74,76)       -149.2868         estimate D2E/DX2                !
 ! D261  D(36,34,74,72)        139.09           estimate D2E/DX2                !
 ! D262  D(36,34,74,76)         -3.8224         estimate D2E/DX2                !
 ! D263  D(9,35,37,39)          -0.7098         estimate D2E/DX2                !
 ! D264  D(9,35,37,77)        -154.4163         estimate D2E/DX2                !
 ! D265  D(33,35,37,39)        155.6595         estimate D2E/DX2                !
 ! D266  D(33,35,37,77)          1.9529         estimate D2E/DX2                !
 ! D267  D(12,36,38,42)         -1.275          estimate D2E/DX2                !
 ! D268  D(12,36,38,78)        153.031          estimate D2E/DX2                !
 ! D269  D(34,36,38,42)       -155.1088         estimate D2E/DX2                !
 ! D270  D(34,36,38,78)         -0.8028         estimate D2E/DX2                !
 ! D271  D(35,37,39,43)          5.6891         estimate D2E/DX2                !
 ! D272  D(35,37,39,79)       -146.7036         estimate D2E/DX2                !
 ! D273  D(77,37,39,43)        159.7384         estimate D2E/DX2                !
 ! D274  D(77,37,39,79)          7.3457         estimate D2E/DX2                !
 ! D275  D(35,37,77,75)          0.6658         estimate D2E/DX2                !
 ! D276  D(35,37,77,81)        140.6406         estimate D2E/DX2                !
 ! D277  D(39,37,77,75)       -153.7942         estimate D2E/DX2                !
 ! D278  D(39,37,77,81)        -13.8194         estimate D2E/DX2                !
 ! D279  D(36,38,42,46)         -1.0089         estimate D2E/DX2                !
 ! D280  D(36,38,42,80)        150.3624         estimate D2E/DX2                !
 ! D281  D(78,38,42,46)       -155.4407         estimate D2E/DX2                !
 ! D282  D(78,38,42,80)         -4.0694         estimate D2E/DX2                !
 ! D283  D(36,38,78,76)         -3.5026         estimate D2E/DX2                !
 ! D284  D(36,38,78,81)       -143.5016         estimate D2E/DX2                !
 ! D285  D(42,38,78,76)        151.4864         estimate D2E/DX2                !
 ! D286  D(42,38,78,81)         11.4873         estimate D2E/DX2                !
 ! D287  D(37,39,43,2)        -147.5695         estimate D2E/DX2                !
 ! D288  D(37,39,43,13)         -2.9356         estimate D2E/DX2                !
 ! D289  D(79,39,43,2)           6.0162         estimate D2E/DX2                !
 ! D290  D(79,39,43,13)        150.6501         estimate D2E/DX2                !
 ! D291  D(37,39,79,40)        142.0401         estimate D2E/DX2                !
 ! D292  D(37,39,79,82)          2.9033         estimate D2E/DX2                !
 ! D293  D(43,39,79,40)        -11.015          estimate D2E/DX2                !
 ! D294  D(43,39,79,82)       -150.1518         estimate D2E/DX2                !
 ! D295  D(44,40,41,45)         -1.6076         estimate D2E/DX2                !
 ! D296  D(44,40,41,80)       -147.3159         estimate D2E/DX2                !
 ! D297  D(79,40,41,45)        145.0125         estimate D2E/DX2                !
 ! D298  D(79,40,41,80)         -0.6959         estimate D2E/DX2                !
 ! D299  D(41,40,44,2)         144.4651         estimate D2E/DX2                !
 ! D300  D(41,40,44,47)         -4.2606         estimate D2E/DX2                !
 ! D301  D(79,40,44,2)           2.0668         estimate D2E/DX2                !
 ! D302  D(79,40,44,47)       -146.6589         estimate D2E/DX2                !
 ! D303  D(41,40,79,39)       -139.3591         estimate D2E/DX2                !
 ! D304  D(41,40,79,82)          4.44           estimate D2E/DX2                !
 ! D305  D(44,40,79,39)          7.2027         estimate D2E/DX2                !
 ! D306  D(44,40,79,82)        151.0018         estimate D2E/DX2                !
 ! D307  D(40,41,45,4)        -142.842          estimate D2E/DX2                !
 ! D308  D(40,41,45,48)          5.6937         estimate D2E/DX2                !
 ! D309  D(80,41,45,4)          -1.4293         estimate D2E/DX2                !
 ! D310  D(80,41,45,48)        147.1064         estimate D2E/DX2                !
 ! D311  D(40,41,80,42)        140.7756         estimate D2E/DX2                !
 ! D312  D(40,41,80,82)         -3.3362         estimate D2E/DX2                !
 ! D313  D(45,41,80,42)         -4.6044         estimate D2E/DX2                !
 ! D314  D(45,41,80,82)       -148.7162         estimate D2E/DX2                !
 ! D315  D(38,42,46,4)         146.1586         estimate D2E/DX2                !
 ! D316  D(38,42,46,14)          2.8661         estimate D2E/DX2                !
 ! D317  D(80,42,46,4)          -6.5169         estimate D2E/DX2                !
 ! D318  D(80,42,46,14)       -149.8095         estimate D2E/DX2                !
 ! D319  D(38,42,80,41)       -143.9825         estimate D2E/DX2                !
 ! D320  D(38,42,80,82)         -4.5664         estimate D2E/DX2                !
 ! D321  D(46,42,80,41)          8.3646         estimate D2E/DX2                !
 ! D322  D(46,42,80,82)        147.7807         estimate D2E/DX2                !
 ! D323  D(2,44,47,48)        -142.7415         estimate D2E/DX2                !
 ! D324  D(2,44,47,49)          -0.9121         estimate D2E/DX2                !
 ! D325  D(40,44,47,48)          5.9416         estimate D2E/DX2                !
 ! D326  D(40,44,47,49)        147.771          estimate D2E/DX2                !
 ! D327  D(4,45,48,47)         144.52           estimate D2E/DX2                !
 ! D328  D(4,45,48,50)           1.2992         estimate D2E/DX2                !
 ! D329  D(41,45,48,47)         -4.0021         estimate D2E/DX2                !
 ! D330  D(41,45,48,50)       -147.223          estimate D2E/DX2                !
 ! D331  D(44,47,48,45)         -1.8758         estimate D2E/DX2                !
 ! D332  D(44,47,48,50)        145.6542         estimate D2E/DX2                !
 ! D333  D(49,47,48,45)       -148.0844         estimate D2E/DX2                !
 ! D334  D(49,47,48,50)         -0.5544         estimate D2E/DX2                !
 ! D335  D(44,47,49,10)         -2.117          estimate D2E/DX2                !
 ! D336  D(44,47,49,56)       -148.1871         estimate D2E/DX2                !
 ! D337  D(48,47,49,10)        143.7082         estimate D2E/DX2                !
 ! D338  D(48,47,49,56)         -2.3619         estimate D2E/DX2                !
 ! D339  D(45,48,50,11)          7.2618         estimate D2E/DX2                !
 ! D340  D(45,48,50,56)        150.2363         estimate D2E/DX2                !
 ! D341  D(47,48,50,11)       -139.7547         estimate D2E/DX2                !
 ! D342  D(47,48,50,56)          3.2198         estimate D2E/DX2                !
 ! D343  D(10,49,56,50)       -142.2839         estimate D2E/DX2                !
 ! D344  D(10,49,56,55)          3.7052         estimate D2E/DX2                !
 ! D345  D(47,49,56,50)          4.3777         estimate D2E/DX2                !
 ! D346  D(47,49,56,55)        150.3668         estimate D2E/DX2                !
 ! D347  D(11,50,56,49)        139.1095         estimate D2E/DX2                !
 ! D348  D(11,50,56,55)         -7.1225         estimate D2E/DX2                !
[...]
 Alpha virt. eigenvalues --    1.18382   1.18591   1.18802   1.19052   1.19212
 Alpha virt. eigenvalues --    1.19361   1.19551   1.19944   1.20211   1.20751
 Alpha virt. eigenvalues --    1.20812   1.21320   1.21506   1.21825   1.22079
 Alpha virt. eigenvalues --    1.22696   1.23001   1.23127   1.23828   1.23967
 Alpha virt. eigenvalues --    1.24420   1.24846   1.25208   1.25572   1.25789
 Alpha virt. eigenvalues --    1.26306   1.26464   1.26545   1.26905   1.27006
 Alpha virt. eigenvalues --    1.27496   1.27627   1.28019   1.28223   1.28361
 Alpha virt. eigenvalues --    1.28687   1.28845   1.29180   1.29694   1.30126
 Alpha virt. eigenvalues --    1.30469   1.30701   1.31292   1.31390   1.31632
 Alpha virt. eigenvalues --    1.31665   1.32017   1.32501   1.32826   1.32956
 Alpha virt. eigenvalues --    1.33468   1.34013   1.34428   1.34654   1.35137
 Alpha virt. eigenvalues --    1.35546   1.35836   1.36345   1.36664   1.37249
 Alpha virt. eigenvalues --    1.37931   1.38138   1.38427   1.38911   1.39780
 Alpha virt. eigenvalues --    1.40499   1.41040   1.41202   1.41662   1.42263
 Alpha virt. eigenvalues --    1.42629   1.43258   1.44378   1.44843   1.45121
 Alpha virt. eigenvalues --    1.45801   1.46838   1.47276   1.47597   1.48310
 Alpha virt. eigenvalues --    1.48532   1.49193   1.49587   1.49848   1.50590
 Alpha virt. eigenvalues --    1.50788   1.51795   1.51939   1.52346   1.52636
 Alpha virt. eigenvalues --    1.53266   1.53447   1.53928   1.54377   1.54730
 Alpha virt. eigenvalues --    1.55418   1.55855   1.56229   1.56376   1.56895
 Alpha virt. eigenvalues --    1.57394   1.57696   1.58269   1.58445   1.59054
 Alpha virt. eigenvalues --    1.59774   1.59955   1.60581   1.61189   1.61978
 Alpha virt. eigenvalues --    1.62912   1.63259   1.63302   1.64461   1.64547
 Alpha virt. eigenvalues --    1.65266   1.65399   1.65493   1.65598   1.65865
 Alpha virt. eigenvalues --    1.65909   1.66454   1.66471   1.67220   1.67405
 Alpha virt. eigenvalues --    1.67649   1.68053   1.68214   1.68673   1.68791
 Alpha virt. eigenvalues --    1.69250   1.69490   1.69676   1.69884   1.70164
 Alpha virt. eigenvalues --    1.70305   1.70402   1.70836   1.71039   1.71418
 Alpha virt. eigenvalues --    1.71693   1.71738   1.71818   1.72004   1.72513
 Alpha virt. eigenvalues --    1.72798   1.72978   1.73334   1.73636   1.73789
 Alpha virt. eigenvalues --    1.73839   1.74192   1.74336   1.74534   1.74784
 Alpha virt. eigenvalues --    1.74959   1.75260   1.75612   1.75806   1.75981
 Alpha virt. eigenvalues --    1.76224   1.76297   1.76544   1.76772   1.77253
 Alpha virt. eigenvalues --    1.77371   1.77431   1.77636   1.78100   1.78368
 Alpha virt. eigenvalues --    1.78633   1.78801   1.79147   1.79311   1.79494
 Alpha virt. eigenvalues --    1.79693   1.80356   1.81293   1.81557   1.82289
 Alpha virt. eigenvalues --    1.82740   1.82926   1.83289   1.83511   1.84186
 Alpha virt. eigenvalues --    1.84808   1.85351   1.85938   1.86060   1.86856
 Alpha virt. eigenvalues --    1.86979   1.87379   1.88028   1.89323   1.89690
 Alpha virt. eigenvalues --    1.90509   1.90900   1.91288   1.91942   1.92698
 Alpha virt. eigenvalues --    1.92830   1.93268   1.93387   1.93832   1.94288
 Alpha virt. eigenvalues --    1.94307   1.94993   1.95157   1.95619   1.95727
 Alpha virt. eigenvalues --    1.96165   1.96280   1.96649   1.96858   1.97068
 Alpha virt. eigenvalues --    1.97344   1.97707   1.97796   1.98229   1.98448
 Alpha virt. eigenvalues --    1.98747   1.98760   1.99096   1.99290   1.99531
 Alpha virt. eigenvalues --    1.99690   1.99822   2.00223   2.00383   2.00461
 Alpha virt. eigenvalues --    2.00747   2.00809   2.01013   2.01096   2.01592
 Alpha virt. eigenvalues --    2.01601   2.01792   2.02209   2.02276   2.02581
 Alpha virt. eigenvalues --    2.02749   2.03010   2.03235   2.03428   2.03779
 Alpha virt. eigenvalues --    2.03912   2.03970   2.04338   2.04655   2.05011
 Alpha virt. eigenvalues --    2.05254   2.05624   2.06177   2.06318   2.06835
 Alpha virt. eigenvalues --    2.07270   2.07603   2.08045   2.08195   2.08833
 Alpha virt. eigenvalues --    2.09072   2.09927   2.10387   2.10942   2.11642
 Alpha virt. eigenvalues --    2.12032   2.12262   2.12901   2.13242   2.13575
 Alpha virt. eigenvalues --    2.14184   2.14544   2.14644   2.15433   2.16006
 Alpha virt. eigenvalues --    2.16276   2.16702   2.17191   2.17996   2.18074
 Alpha virt. eigenvalues --    2.18406   2.19414   2.19633   2.19992   2.20844
 Alpha virt. eigenvalues --    2.21246   2.21461   2.21869   2.22346   2.22519
 Alpha virt. eigenvalues --    2.23079   2.23229   2.23635   2.23667   2.23804
 Alpha virt. eigenvalues --    2.24632   2.25104   2.25304   2.25523   2.26191
 Alpha virt. eigenvalues --    2.26339   2.27007   2.27186   2.27730   2.28617
 Alpha virt. eigenvalues --    2.28950   2.29197   2.29619   2.29814   2.30142
 Alpha virt. eigenvalues --    2.30310   2.30438   2.31084   2.31409   2.31811
 Alpha virt. eigenvalues --    2.32100   2.32583   2.32989   2.33551   2.34008
 Alpha virt. eigenvalues --    2.34896   2.35357   2.36407   2.37427   2.38014
 Alpha virt. eigenvalues --    2.38747   2.39135   2.39681   2.39900   2.40356
 Alpha virt. eigenvalues --    2.40701   2.41845   2.41941   2.42395   2.42547
 Alpha virt. eigenvalues --    2.43325   2.43429   2.44054   2.44540   2.44674
 Alpha virt. eigenvalues --    2.45208   2.45579   2.46370   2.46512   2.47349
 Alpha virt. eigenvalues --    2.47692   2.48263   2.50310   2.50874   2.51251
 Alpha virt. eigenvalues --    2.51964   2.52095   2.52444   2.52717   2.53056
 Alpha virt. eigenvalues --    2.53324   2.53788   2.54448   2.54721   2.55208
 Alpha virt. eigenvalues --    2.55725   2.55837   2.56504   2.56787   2.57129
 Alpha virt. eigenvalues --    2.57291   2.57436   2.57690   2.57808   2.58129
 Alpha virt. eigenvalues --    2.58609   2.58707   2.58955   2.59337   2.59482
 Alpha virt. eigenvalues --    2.59769   2.60004   2.60081   2.60333   2.60720
 Alpha virt. eigenvalues --    2.61002   2.61600   2.61962   2.62169   2.62456
 Alpha virt. eigenvalues --    2.62849   2.63357   2.63548   2.64052   2.64418
 Alpha virt. eigenvalues --    2.64841   2.65215   2.65614   2.66010   2.66393
 Alpha virt. eigenvalues --    2.66548   2.66968   2.67403   2.67446   2.67737
 Alpha virt. eigenvalues --    2.67943   2.68493   2.68638   2.68970   2.69203
 Alpha virt. eigenvalues --    2.69948   2.70167   2.70790   2.71639   2.71838
 Alpha virt. eigenvalues --    2.72258   2.72779   2.73177   2.73670   2.74043
 Alpha virt. eigenvalues --    2.74588   2.75022   2.75115   2.75823   2.76734
 Alpha virt. eigenvalues --    2.77216   2.77533   2.78083   2.78486   2.79011
 Alpha virt. eigenvalues --    2.79218   2.79731   2.80455   2.81000   2.81238
 Alpha virt. eigenvalues --    2.81767   2.82365   2.82460   2.82989   2.83577
 Alpha virt. eigenvalues --    2.83957   2.84245   2.84302   2.84839   2.85148
 Alpha virt. eigenvalues --    2.85527   2.86067   2.86488   2.87450   2.87835
 Alpha virt. eigenvalues --    2.88150   2.88350   2.88987   2.89758   2.89896
 Alpha virt. eigenvalues --    2.90531   2.90609   2.91463   2.91634   2.91772
 Alpha virt. eigenvalues --    2.92471   2.92691   2.92968   2.93238   2.93786
 Alpha virt. eigenvalues --    2.94326   2.95169   2.95524   2.95741   2.95966
 Alpha virt. eigenvalues --    2.96899   2.97229   2.97609   2.98416   2.99200
 Alpha virt. eigenvalues --    2.99623   3.00166   3.01317   3.02636   3.03037
 Alpha virt. eigenvalues --    3.04038   3.04385   3.06598   3.08199   3.09482
 Alpha virt. eigenvalues --    3.10026   3.12816   3.14231   3.16359   3.17615
 Alpha virt. eigenvalues --    3.18529   3.19747   3.20078   3.21485   3.24941
 Alpha virt. eigenvalues --    3.25465   3.27066   3.28793   3.30216   3.31342
 Alpha virt. eigenvalues --    3.32165   3.33699   3.34595   3.35884   3.36899
 Alpha virt. eigenvalues --    3.38490   3.41137   3.42956   3.44158   3.44890
 Alpha virt. eigenvalues --    3.47620   3.49102   3.49918   3.53715   3.55410
 Alpha virt. eigenvalues --    3.56612   3.57203   3.61348   4.01205   4.01821
 Alpha virt. eigenvalues --    4.02050   4.02632   4.03531   4.04177   4.04266
 Alpha virt. eigenvalues --    4.04849   4.05072   4.06127   4.06760   4.06932
 Alpha virt. eigenvalues --    4.07390   4.07682   4.08212   4.08590   4.09975
 Alpha virt. eigenvalues --    4.10247   4.11258   4.11625   4.12089   4.12608
 Alpha virt. eigenvalues --    4.13759   4.15107   4.15274   4.17150   4.18149
 Alpha virt. eigenvalues --    4.19221   4.19580   4.20348   4.20708   4.21642
 Alpha virt. eigenvalues --    4.21738   4.22233   4.23531   4.24758   4.27110
 Alpha virt. eigenvalues --    4.27718   4.28453   4.28744   4.29551   4.30053
 Alpha virt. eigenvalues --    4.31254   4.31903   4.32483   4.35422   4.38193
 Alpha virt. eigenvalues --    4.38653   4.40093   4.41996   4.43626   4.45742
 Alpha virt. eigenvalues --    4.46418   4.47741   4.49144   4.51255   4.52293
 Alpha virt. eigenvalues --    4.52454   4.53498   4.55982   4.57247   4.58186
 Alpha virt. eigenvalues --    4.59032   4.62930   4.65437   4.66613   4.67920
 Alpha virt. eigenvalues --    4.68883   4.71788   4.73075   4.78570   4.80765
 Alpha virt. eigenvalues --    4.83762   4.85690   4.87582   4.89345   4.92646
 Alpha virt. eigenvalues --    4.96257   5.01351   5.03114   5.09052   5.11639
 Alpha virt. eigenvalues --    5.15403   5.19676   5.22982   5.25331
          Condensed to atoms (all electrons):
 Mulliken charges:
               1
     1  C   -0.027104
     2  C   -0.023150
     3  C   -0.039515
     4  C   -0.029219
     5  C    0.050265
     6  C   -0.024159
     7  C   -0.015476
     8  C   -0.033988
     9  C    0.042118
    10  C    0.063174
    11  C    0.093015
    12  C    0.052616
    13  C   -0.026937
    14  C   -0.032585
    15  C   -0.013017
    16  C   -0.032684
    17  C   -0.012267
    18  C    0.087274
    19  C   -0.016222
    20  C    0.105447
    21  C   -0.016455
    22  C   -0.355467
    23  C    0.000448
    24  C    0.072112
    25  C   -0.016939
    26  C    0.000292
    27  C   -0.021454
    28  C   -0.020194
    29  C    0.051611
    30  C   -0.017517
    31  C   -0.032842
    32  C   -0.010037
    33  C   -0.025845
    34  C   -0.022582
    35  C    0.040409
    36  C    0.046276
    37  C    0.042806
    38  C    0.040734
    39  C    0.053298
    40  C   -0.027173
    41  C   -0.027581
    42  C    0.058635
    43  C   -0.033322
    44  C    0.068515
    45  C    0.069724
    46  C   -0.033066
    47  C   -0.025203
    48  C   -0.017751
    49  C   -0.026059
    50  C   -0.041170
    51  C    0.046136
    52  C    0.099497
    53  C    0.010792
    54  C   -0.355043
    55  C    0.077133
    56  C    0.000879
    57  C    0.048633
    58  C    0.088246
    59  C    0.048375
    60  C    0.002104
    61  C   -0.020692
    62  C    0.010731
    63  C   -0.026267
    64  C    0.043185
    65  C   -0.031715
    66  C    0.043903
    67  C    0.052797
    68  C    0.044314
    69  C   -0.021690
    70  C   -0.025427
    71  C   -0.009671
    72  C    0.003954
    73  C   -0.011845
    74  C   -0.009624
    75  C   -0.000642
    76  C   -0.002255
    77  C   -0.025145
    78  C   -0.021782
    79  C   -0.019959
    80  C   -0.022932
    81  C   -0.001250
    82  C   -0.024069
    83  C    0.004198
    84  C    0.090300
    85  Cl  -0.014154
    86  Cl  -0.012802
 Sum of Mulliken charges =  -0.00000
 Mulliken charges with hydrogens summed into heavy atoms:
               1
     1  C   -0.027104
     2  C   -0.023150
     3  C   -0.039515
     4  C   -0.029219
     5  C    0.050265
     6  C   -0.024159
     7  C   -0.015476
     8  C   -0.033988
     9  C    0.042118
    10  C    0.063174
    11  C    0.093015
    12  C    0.052616
    13  C   -0.026937
    14  C   -0.032585
    15  C   -0.013017
    16  C   -0.032684
    17  C   -0.012267
    18  C    0.087274
    19  C   -0.016222
    20  C    0.105447
    21  C   -0.016455
    22  C   -0.355467
    23  C    0.000448
    24  C    0.072112
    25  C   -0.016939
    26  C    0.000292
    27  C   -0.021454
    28  C   -0.020194
    29  C    0.051611
    30  C   -0.017517
    31  C   -0.032842
    32  C   -0.010037
    33  C   -0.025845
    34  C   -0.022582
    35  C    0.040409
    36  C    0.046276
    37  C    0.042806
    38  C    0.040734
    39  C    0.053298
    40  C   -0.027173
    41  C   -0.027581
    42  C    0.058635
    43  C   -0.033322
    44  C    0.068515
    45  C    0.069724
    46  C   -0.033066
    47  C   -0.025203
    48  C   -0.017751
    49  C   -0.026059
    50  C   -0.041170
    51  C    0.046136
    52  C    0.099497
    53  C    0.010792
    54  C   -0.355043
    55  C    0.077133
    56  C    0.000879
    57  C    0.048633
    58  C    0.088246
    59  C    0.048375
    60  C    0.002104
    61  C   -0.020692
    62  C    0.010731
    63  C   -0.026267
    64  C    0.043185
    65  C   -0.031715
    66  C    0.043903
    67  C    0.052797
    68  C    0.044314
    69  C   -0.021690
    70  C   -0.025427
    71  C   -0.009671
    72  C    0.003954
    73  C   -0.011845
    74  C   -0.009624
    75  C   -0.000642
    76  C   -0.002255
    77  C   -0.025145
    78  C   -0.021782
    79  C   -0.019959
    80  C   -0.022932
    81  C   -0.001250
    82  C   -0.024069
    83  C    0.004198
    84  C    0.090300
    85  Cl  -0.014154
    86  Cl  -0.012802
 Electronic spatial extent (au):  <R**2>=          37524.9691
 Charge=             -0.0000 electrons
 Dipole moment (field-independent basis, Debye):
    X=              3.1661    Y=              0.1758    Z=              1.9020  Tot=              3.6977
 Quadrupole moment (field-independent basis, Debye-Ang):
   XX=           -496.8002   YY=           -479.7556   ZZ=           -477.0805
   XY=             -4.3683   XZ=             -5.9602   YZ=              1.6759
 Traceless Quadrupole moment (field-independent basis, Debye-Ang):
   XX=            -12.2547   YY=              4.7898   ZZ=              7.4649
   XY=             -4.3683   XZ=             -5.9602   YZ=              1.6759
 Octapole moment (field-independent basis, Debye-Ang**2):
  XXX=             54.6230  YYY=            -10.3498  ZZZ=              6.6007  XYY=            -11.3012
  XXY=              7.5848  XXZ=             19.7628  XZZ=            -29.6104  YZZ=             -3.1412
  YYZ=              5.5122  XYZ=              4.0067
 Hexadecapole moment (field-independent basis, Debye-Ang**3):
 XXXX=         -22699.2315 YYYY=         -17448.3863 ZZZZ=         -15902.8613 XXXY=            -20.6855
 XXXZ=            -41.4956 YYYX=             -7.0245 YYYZ=             11.7487 ZZZX=             35.9822
 ZZZY=             37.5051 XXYY=          -6673.1840 XXZZ=          -6321.5829 YYZZ=          -5553.6139
 XXYZ=             12.5189 YYXZ=             -3.9773 ZZXY=              5.3151
 N-N= 1.559893636105D+04 E-N=-4.079138123058D+04  KE= 4.088619244788D+03
 No NMR shielding tensors so no spin-rotation constants.
 Leave Link  601 at Sun Jun 26 21:59:55 2022, MaxMem=  1342177280 cpu:              22.3 elap:               1.1
 (Enter /home/mkliu/g16/l9999.exe)
 1\1\GINC-NODE05\FOpt\RB3LYP\6-31G(d,p)\C84Cl2\MKLIU\26-Jun-2022\0\\#P 
 opt b3lyp/6-31G(d, p) empiricaldispersion=GD3\\force\\0,1\C,8.53078622
 08,18.9337091997,10.7793992635\C,12.4402161672,20.1977425297,8.8865154
 324\C,8.2951347392,26.8037102131,10.5614058854\C,12.3397462805,25.5319
 602815,8.8916256323\C,8.0482355041,19.1217163719,9.462729724\C,12.0713
 416902,19.7259161559,10.1901169626\C,7.9869879238,26.8190024312,9.1768
 271676\C,11.8567406325,25.9175763238,10.1971628527\C,9.0205928084,19.2
 137946276,8.3671469366\C,12.3194551558,20.492812919,11.3547402562\C,12
 .0963820653,25.1425921011,11.343650988\C,8.9849818907,26.6357680604,8.
 1669307367\C,10.3863834639,19.0929975365,8.6872013562\C,10.3119301522,
 26.6429371096,8.6253950314\C,10.8421443836,18.9807466833,10.0430914434
 \C,10.6212856546,26.6168591922,10.0266676733\C,9.9287766937,18.9199813
 25,11.0725973453\C,9.6218179326,26.5791934687,11.0203861623\C,10.17441
 78478,19.6573703892,12.30150951\C,9.8764011673,25.8038222828,12.228862
 945\C,8.9050796674,20.055566985,12.8241502122\C,8.6879524066,25.538626
 1075,13.1656133394\C,7.8836442687,19.5600570599,11.9204216559\C,7.3671
 505986,25.5018707786,12.4157804458\C,6.7072947928,20.2478074127,11.766
 5110057\C,7.1698998612,26.1853455389,11.257396737\C,6.1015680303,20.33
 37347477,10.4630063229\C,6.2209419225,25.7149808974,10.2752754552\C,6.
 747611184,19.7762943979,9.323778618\C,6.676328395,26.2178035771,9.0166
 376285\C,6.4167695868,20.356963347,8.088053527\C,6.3602562465,25.55907
 39357,7.8561844517\C,7.3492071441,20.355086183,6.9705911593\C,7.325101
 4643,25.471363522,6.7670807236\C,8.6826339499,19.9146439291,7.12319849
 66\C,8.6647695247,25.9037392469,6.934017484\C,9.7262560076,20.58973107
 19,6.3455855221\C,9.7241403834,25.1639488228,6.2398599888\C,11.1091439
 842,20.574493588,6.8227624585\C,12.9054578228,22.1536217585,7.52332788
 81\C,12.892682656,23.6188713306,7.520179221\C,11.0964606976,25.1830246
 049,6.7689226442\C,11.4155732764,19.8028927477,7.9540338215\C,13.14324
 35003,21.4265306833,8.7218745265\C,13.0842592858,24.339646596,8.725877
 2469\C,11.3665433692,25.945965605,7.9250821375\C,13.4761676321,22.1489
 65857,9.9009975078\C,13.4293854724,23.6159753001,9.912221522\C,13.0948
 31501,21.6813785087,11.1807547459\C,13.0081587349,24.0412924337,11.186
 1226417\C,11.3285171572,20.4670649699,12.4370462864\C,11.0700563491,25
 .1072478108,12.3841652163\C,11.1740476361,21.6319115779,13.2496399773\
 C,11.2182405594,24.0575941287,13.4957475455\C,11.9504600838,22.8130635
 015,13.0170213197\C,12.8570334831,22.8487208618,12.0042905238\C,8.7236
 343465,21.285479861,13.5092665575\C,8.7245082906,24.1406185589,13.7433
 320392\C,7.4763267103,22.0197960298,13.3336190393\C,7.5099353224,23.43
 42846187,13.4401972121\C,6.4771791873,21.4858747367,12.4771285735\C,6.
 6857044983,24.2657730526,12.6187573339\C,5.6851813236,22.3128284297,11
 .6274227681\C,5.8100161031,23.7206161608,11.6255989924\C,5.4267356463,
 21.5909837006,10.3942454535\C,5.587039277,24.4536152774,10.3850833311\
 C,5.2350254367,22.2655378582,9.1698629577\C,5.2729991263,23.7303790248
 ,9.1496768711\C,5.6013233474,21.5317383853,8.0014983067\C,5.582889786,
 24.3501827844,7.9124291545\C,5.9423333912,22.2047682561,6.7768930934\C
 ,5.9334668283,23.5848943728,6.7356936149\C,7.0031151835,21.4583605316,
 6.1282187227\C,6.9913933484,24.2946402299,6.0263304688\C,7.9979799041,
 22.1262742483,5.4283504659\C,7.9943799386,23.5859892032,5.3834486577\C
 ,9.3440884398,21.6730093718,5.5082870794\C,9.3448387607,24.0455213007,
 5.4524913948\C,11.9654723796,21.6995368931,6.5672959029\C,11.955240971
 2,24.0577652701,6.5464044304\C,10.183980913,22.8566352737,5.3889507907
 \C,11.4459399897,22.8707603089,5.9030066899\C,9.9091029907,22.03181630
 25,13.7704434545\C,9.8868860004,23.4637307205,13.9013935896\Cl,8.65378
 69891,26.8351121225,14.492101943\Cl,12.1142233558,24.8093447576,14.936
 4816033\\Version=ES64L-G16RevA.03\State=1-A\HF=-4121.4204384\RMSD=6.14
 2e-09\RMSF=7.038e-05\Dipole=-0.6016186,-1.0175629,-0.8479458\Quadrupol
 e=2.5858354,1.0540148,-3.6398502,-1.6223199,-1.7899666,-8.8671097\PG=C
 01 [X(C84Cl2)]\\@


      THE ONE-EYED VIEW OF OUR UNIVERSE SAYS YOU MUST NOT LOOK
      FAR AFIELD FOR PROBLEMS.  SUCH PROBLEMS MAY NEVER ARRIVE. 
      INSTEAD, TEND TO THE WOLF WITHIN YOUR FENCES.
      THE PACKS RANGING OUTSIDE MAY NOT EVEN EXIST.

                              -- THE AZHAR BOOK SHAMRA I:4
                                 CHILDREN OF DUNE, BY FRANK HERBERT
 Job cpu time:       1 days  0 hours  7 minutes 55.1 seconds.
 Elapsed time:       0 days  1 hours  0 minutes 25.3 seconds.
 File lengths (MBytes):  RWF=   1037 Int=      0 D2E=      0 Chk=    131 Scr=      1
 Normal termination of Gaussian 16 at Sun Jun 26 21:59:57 2022.
