 Entering Gaussian System, Link 0=g16
 Input=2_addons_C84_11_mirror_Cl22_rank_7.gjf
 Output=2_addons_C84_11_mirror_Cl22_rank_7.log
 Initial command:
 /home/mkliu/g16/l1.exe "/data/scratch/Gau-187734.inp" -scrdir="/data/scratch/"
 Entering Link 1 = /home/mkliu/g16/l1.exe PID=    187735.
  
 Copyright (c) 1988,1990,1992,1993,1995,1998,2003,2009,2016,
            Gaussian, Inc.  All Rights Reserved.
  
 This is part of the Gaussian(R) 16 program.  It is based on
 the Gaussian(R) 09 system (copyright 2009, Gaussian, Inc.),
 the Gaussian(R) 03 system (copyright 2003, Gaussian, Inc.),
 the Gaussian(R) 98 system (copyright 1998, Gaussian, Inc.),
 the Gaussian(R) 94 system (copyright 1995, Gaussian, Inc.),
 the Gaussian 92(TM) system (copyright 1992, Gaussian, Inc.),
 the Gaussian 90(TM) system (copyright 1990, Gaussian, Inc.),
 the Gaussian 88(TM) system (copyright 1988, Gaussian, Inc.),
 the Gaussian 86(TM) system (copyright 1986, Carnegie Mellon
 University), and the Gaussian 82(TM) system (copyright 1983,
 Carnegie Mellon University). Gaussian is a federally registered
 trademark of Gaussian, Inc.
  
 This software contains proprietary and confidential information,
 including trade secrets, belonging to Gaussian, Inc.
  
 This software is provided under written license and may be
 used, copied, transmitted, or stored only in accord with that
 written license.
  
 The following legend is applicable only to US Government
 contracts under FAR:
  
                    RESTRICTED RIGHTS LEGEND
  
 Use, reproduction and disclosure by the US Government is
 subject to restrictions as set forth in subparagraphs (a)
 and (c) of the Commercial Computer Software - Restricted
 Rights clause in FAR 52.227-19.
  
 Gaussian, Inc.
 340 Quinnipiac St., Bldg. 40, Wallingford CT 06492
  
  
 ---------------------------------------------------------------
 Warning -- This program may not be used in any manner that
 competes with the business of Gaussian, Inc. or will provide
 assistance to any competitor of Gaussian, Inc.  The licensee
 of this program is prohibited from giving any competitor of
 Gaussian, Inc. access to this program.  By using this program,
 the user acknowledges that Gaussian, Inc. is engaged in the
 business of creating and licensing software in the field of
 computational chemistry and represents and warrants to the
 licensee that it is not a competitor of Gaussian, Inc. and that
 it will not use this program in any manner prohibited above.
 ---------------------------------------------------------------
  

 Cite this work as:
 Gaussian 16, Revision A.03,
 M. J. Frisch, G. W. Trucks, H. B. Schlegel, G. E. Scuseria, 
 M. A. Robb, J. R. Cheeseman, G. Scalmani, V. Barone, 
 G. A. Petersson, H. Nakatsuji, X. Li, M. Caricato, A. V. Marenich, 
 J. Bloino, B. G. Janesko, R. Gomperts, B. Mennucci, H. P. Hratchian, 
 J. V. Ortiz, A. F. Izmaylov, J. L. Sonnenberg, D. Williams-Young, 
 F. Ding, F. Lipparini, F. Egidi, J. Goings, B. Peng, A. Petrone, 
 T. Henderson, D. Ranasinghe, V. G. Zakrzewski, J. Gao, N. Rega, 
 G. Zheng, W. Liang, M. Hada, M. Ehara, K. Toyota, R. Fukuda, 
 J. Hasegawa, M. Ishida, T. Nakajima, Y. Honda, O. Kitao, H. Nakai, 
 T. Vreven, K. Throssell, J. A. Montgomery, Jr., J. E. Peralta, 
 F. Ogliaro, M. J. Bearpark, J. J. Heyd, E. N. Brothers, K. N. Kudin, 
 V. N. Staroverov, T. A. Keith, R. Kobayashi, J. Normand, 
 K. Raghavachari, A. P. Rendell, J. C. Burant, S. S. Iyengar, 
 J. Tomasi, M. Cossi, J. M. Millam, M. Klene, C. Adamo, R. Cammi, 
 J. W. Ochterski, R. L. Martin, K. Morokuma, O. Farkas, 
 J. B. Foresman, and D. J. Fox, Gaussian, Inc., Wallingford CT, 2016.
 
 ******************************************
 Gaussian 16:  ES64L-G16RevA.03 25-Dec-2016
                27-Jun-2022 
 ******************************************
 %mem=10GB
 %chk=2_addons_C84_11_mirror_Cl22_rank_7.chk
 %nprocshared=24
 Will use up to   24 processors via shared memory.
 ------------------------------------------------
 #P opt b3lyp/6-31G(d, p) empiricaldispersion=GD3
 ------------------------------------------------
 1/18=20,19=15,26=3,38=1/1,3;
 2/9=110,12=2,17=6,18=5,40=1/2;
 3/5=1,6=6,7=101,11=2,25=1,30=1,71=1,74=-5,124=31/1,2,3;
 4//1;
 5/5=2,38=5/2;
 6/7=2,8=2,9=2,10=2,28=1/1;
 7//1,2,3,16;
 1/18=20,19=15,26=3/3(2);
 2/9=110/2;
 99//99;
 2/9=110/2;
 3/5=1,6=6,7=101,11=2,25=1,30=1,71=1,74=-5,124=31/1,2,3;
 4/5=5,16=3,69=1/1;
 5/5=2,38=5/2;
 7//1,2,3,16;
 1/18=20,19=15,26=3/3(-5);
 2/9=110/2;
 6/7=2,8=2,9=2,10=2,19=2,28=1/1;
 99/9=1/99;
 Leave Link    1 at Mon Jun 27 18:46:17 2022, MaxMem=  1342177280 cpu:               0.6 elap:               0.1
 (Enter /home/mkliu/g16/l101.exe)
 -----
 force
 -----
 Symbolic Z-matrix:
 Charge =  0 Multiplicity = 1
 C                     8.54629   18.99427   10.77586 
 C                     12.43411   20.22488   8.89603 
 C                     8.31054   26.76229   10.55658 
 C                     12.32791   25.50855   8.91052 
 C                     8.07104   19.16563   9.4619 
 C                     12.07267   19.76461   10.19096 
 C                     7.99915   26.78746   9.16769 
 C                     11.86382   25.89849   10.19992 
 C                     9.0268    19.25219   8.37742 
 C                     12.32857   20.51293   11.35685 
 C                     12.12085   25.14058   11.35097 
 C                     8.98073   26.60393   8.17442 
 C                     10.38665   19.13431   8.69809 
 C                     10.30632   26.60589   8.64805 
 C                     10.84366   19.02721   10.04448 
 C                     10.62095   26.5982   10.02783 
 C                     9.93789   18.97329   11.07303 
 C                     9.62768   26.57616   11.02494 
 C                     10.18606   19.69241   12.29927 
 C                     9.86465   25.8167   12.22693 
 C                     8.9327    20.08097   12.81714 
 C                     8.71977   25.34674   12.90617 
 C                     7.9054    19.59691   11.91125 
 C                     7.39899   25.49665   12.39896 
 C                     6.73011   20.2684   11.76904 
 C                     7.19677   26.16978   11.23832 
 C                     6.1741    20.39169   10.47178 
 C                     6.23055   25.71545   10.2589 
 C                     6.79788   19.82097   9.33474 
 C                     6.6931    26.20704   9.01474 
 C                     6.45598   20.39559   8.1062 
 C                     6.37926   25.55011   7.84629 
 C                     7.37046   20.38031   6.99455 
 C                     7.33948   25.46358   6.77621 
 C                     8.6964    19.94277   7.14633 
 C                     8.67162   25.88336   6.95138 
 C                     9.72614   20.60861   6.37217 
 C                     9.71917   25.14678   6.2724 
 C                     11.09712   20.59618   6.84045 
 C                     12.89215   22.16063   7.53742 
 C                     12.87335   23.60883   7.53812 
 C                     11.07735   25.16192   6.79988 
 C                     11.40421   19.83707   7.97344 
 C                     13.14262   21.43699   8.72205 
 C                     13.08116   24.32613   8.73643 
 C                     11.35053   25.91166   7.95045 
 C                     13.47535   22.15548   9.89241 
 C                     13.42578   23.60808   9.90004 
 C                     13.1029   21.68933   11.16944 
 C                     13.00191   24.03622   11.17749 
 C                     11.35646   20.48396   12.43624 
 C                     11.11209   25.09662   12.39474 
 C                     11.20394   21.62139   13.25134 
 C                     11.11578   23.97486   13.23998 
 C                     11.95145   22.82533   12.98934 
 C                     12.87383   22.856    11.98419 
 C                     8.74644   21.31448   13.4815 
 C                     8.73183   24.12373   13.63478 
 C                     7.51036   22.05046   13.32593 
 C                     7.51004   23.413    13.43922 
 C                     6.3289    21.42662   12.63642 
 C                     6.50828   24.35133   12.80069 
 C                     5.72101   22.35951   11.60788 
 C                     5.83244   23.71911   11.60561 
 C                     5.50902   21.64461   10.39307 
 C                     5.63474   24.44721   10.37147 
 C                     5.29305   22.30048   9.17065 
 C                     5.32269   23.73952   9.15046 
 C                     5.64077   21.55782   8.01668 
 C                     5.61023   24.35482   7.91125 
 C                     5.96153   22.21551   6.78811 
 C                     5.94873   23.59197   6.7404 
 C                     7.01459   21.47178   6.14812 
 C                     6.99937   24.29046   6.03804 
 C                     8.00248   22.13575   5.44868 
 C                     7.99882   23.58186   5.40348 
 C                     9.34528   21.68258   5.54166 
 C                     9.34442   24.04053   5.48726 
 C                     11.94771   21.70677   6.59069 
 C                     11.93382   24.04944   6.578 
 C                     10.17214   22.85844   5.41902 
 C                     11.43287   22.8719   5.93274 
 C                     9.93522   22.02059   13.75466 
 C                     9.91892   23.4526   13.80532 
 Cl                    5.08639   20.93633   13.86769 
 Cl                    5.24515   24.86965   13.99839 
 
 ITRead=  0  0  0  0  0  0  0  0  0  0  0  0  0  0  0  0  0  0  0  0
 ITRead=  0  0  0  0  0  0  0  0  0  0  0  0  0  0  0  0  0  0  0  0
 ITRead=  0  0  0  0  0  0  0  0  0  0  0  0  0  0  0  0  0  0  0  0
 ITRead=  0  0  0  0  0  0  0  0  0  0  0  0  0  0  0  0  0  0  0  0
 ITRead=  0  0  0  0  0  0
 MicOpt= -1 -1 -1 -1 -1 -1 -1 -1 -1 -1 -1 -1 -1 -1 -1 -1 -1 -1 -1 -1
 MicOpt= -1 -1 -1 -1 -1 -1 -1 -1 -1 -1 -1 -1 -1 -1 -1 -1 -1 -1 -1 -1
 MicOpt= -1 -1 -1 -1 -1 -1 -1 -1 -1 -1 -1 -1 -1 -1 -1 -1 -1 -1 -1 -1
 MicOpt= -1 -1 -1 -1 -1 -1 -1 -1 -1 -1 -1 -1 -1 -1 -1 -1 -1 -1 -1 -1
 MicOpt= -1 -1 -1 -1 -1 -1
 NAtoms=     86 NQM=       86 NQMF=       0 NMMI=      0 NMMIF=      0
                NMic=       0 NMicF=      0.
                    Isotopes and Nuclear Properties:
 (Nuclear quadrupole moments (NQMom) in fm**2, nuclear magnetic moments (NMagM)
  in nuclear magnetons)

  Atom         1           2           3           4           5           6           7           8           9          10
 IAtWgt=          12          12          12          12          12          12          12          12          12          12
 AtmWgt=  12.0000000  12.0000000  12.0000000  12.0000000  12.0000000  12.0000000  12.0000000  12.0000000  12.0000000  12.0000000
 NucSpn=           0           0           0           0           0           0           0           0           0           0
 AtZEff=  -0.0000000  -0.0000000  -0.0000000  -0.0000000  -0.0000000  -0.0000000  -0.0000000  -0.0000000  -0.0000000  -0.0000000
 NQMom=    0.0000000   0.0000000   0.0000000   0.0000000   0.0000000   0.0000000   0.0000000   0.0000000   0.0000000   0.0000000
 NMagM=    0.0000000   0.0000000   0.0000000   0.0000000   0.0000000   0.0000000   0.0000000   0.0000000   0.0000000   0.0000000
 AtZNuc=   6.0000000   6.0000000   6.0000000   6.0000000   6.0000000   6.0000000   6.0000000   6.0000000   6.0000000   6.0000000

  Atom        11          12          13          14          15          16          17          18          19          20
 IAtWgt=          12          12          12          12          12          12          12          12          12          12
 AtmWgt=  12.0000000  12.0000000  12.0000000  12.0000000  12.0000000  12.0000000  12.0000000  12.0000000  12.0000000  12.0000000
 NucSpn=           0           0           0           0           0           0           0           0           0           0
 AtZEff=  -0.0000000  -0.0000000  -0.0000000  -0.0000000  -0.0000000  -0.0000000  -0.0000000  -0.0000000  -0.0000000  -0.0000000
 NQMom=    0.0000000   0.0000000   0.0000000   0.0000000   0.0000000   0.0000000   0.0000000   0.0000000   0.0000000   0.0000000
 NMagM=    0.0000000   0.0000000   0.0000000   0.0000000   0.0000000   0.0000000   0.0000000   0.0000000   0.0000000   0.0000000
 AtZNuc=   6.0000000   6.0000000   6.0000000   6.0000000   6.0000000   6.0000000   6.0000000   6.0000000   6.0000000   6.0000000

  Atom        21          22          23          24          25          26          27          28          29          30
 IAtWgt=          12          12          12          12          12          12          12          12          12          12
 AtmWgt=  12.0000000  12.0000000  12.0000000  12.0000000  12.0000000  12.0000000  12.0000000  12.0000000  12.0000000  12.0000000
 NucSpn=           0           0           0           0           0           0           0           0           0           0
 AtZEff=  -0.0000000  -0.0000000  -0.0000000  -0.0000000  -0.0000000  -0.0000000  -0.0000000  -0.0000000  -0.0000000  -0.0000000
 NQMom=    0.0000000   0.0000000   0.0000000   0.0000000   0.0000000   0.0000000   0.0000000   0.0000000   0.0000000   0.0000000
 NMagM=    0.0000000   0.0000000   0.0000000   0.0000000   0.0000000   0.0000000   0.0000000   0.0000000   0.0000000   0.0000000
 AtZNuc=   6.0000000   6.0000000   6.0000000   6.0000000   6.0000000   6.0000000   6.0000000   6.0000000   6.0000000   6.0000000

  Atom        31          32          33          34          35          36          37          38          39          40
 IAtWgt=          12          12          12          12          12          12          12          12          12          12
 AtmWgt=  12.0000000  12.0000000  12.0000000  12.0000000  12.0000000  12.0000000  12.0000000  12.0000000  12.0000000  12.0000000
 NucSpn=           0           0           0           0           0           0           0           0           0           0
 AtZEff=  -0.0000000  -0.0000000  -0.0000000  -0.0000000  -0.0000000  -0.0000000  -0.0000000  -0.0000000  -0.0000000  -0.0000000
 NQMom=    0.0000000   0.0000000   0.0000000   0.0000000   0.0000000   0.0000000   0.0000000   0.0000000   0.0000000   0.0000000
 NMagM=    0.0000000   0.0000000   0.0000000   0.0000000   0.0000000   0.0000000   0.0000000   0.0000000   0.0000000   0.0000000
 AtZNuc=   6.0000000   6.0000000   6.0000000   6.0000000   6.0000000   6.0000000   6.0000000   6.0000000   6.0000000   6.0000000

  Atom        41          42          43          44          45          46          47          48          49          50
 IAtWgt=          12          12          12          12          12          12          12          12          12          12
 AtmWgt=  12.0000000  12.0000000  12.0000000  12.0000000  12.0000000  12.0000000  12.0000000  12.0000000  12.0000000  12.0000000
 NucSpn=           0           0           0           0           0           0           0           0           0           0
 AtZEff=  -0.0000000  -0.0000000  -0.0000000  -0.0000000  -0.0000000  -0.0000000  -0.0000000  -0.0000000  -0.0000000  -0.0000000
 NQMom=    0.0000000   0.0000000   0.0000000   0.0000000   0.0000000   0.0000000   0.0000000   0.0000000   0.0000000   0.0000000
 NMagM=    0.0000000   0.0000000   0.0000000   0.0000000   0.0000000   0.0000000   0.0000000   0.0000000   0.0000000   0.0000000
 AtZNuc=   6.0000000   6.0000000   6.0000000   6.0000000   6.0000000   6.0000000   6.0000000   6.0000000   6.0000000   6.0000000

  Atom        51          52          53          54          55          56          57          58          59          60
 IAtWgt=          12          12          12          12          12          12          12          12          12          12
 AtmWgt=  12.0000000  12.0000000  12.0000000  12.0000000  12.0000000  12.0000000  12.0000000  12.0000000  12.0000000  12.0000000
 NucSpn=           0           0           0           0           0           0           0           0           0           0
 AtZEff=  -0.0000000  -0.0000000  -0.0000000  -0.0000000  -0.0000000  -0.0000000  -0.0000000  -0.0000000  -0.0000000  -0.0000000
 NQMom=    0.0000000   0.0000000   0.0000000   0.0000000   0.0000000   0.0000000   0.0000000   0.0000000   0.0000000   0.0000000
 NMagM=    0.0000000   0.0000000   0.0000000   0.0000000   0.0000000   0.0000000   0.0000000   0.0000000   0.0000000   0.0000000
 AtZNuc=   6.0000000   6.0000000   6.0000000   6.0000000   6.0000000   6.0000000   6.0000000   6.0000000   6.0000000   6.0000000

  Atom        61          62          63          64          65          66          67          68          69          70
 IAtWgt=          12          12          12          12          12          12          12          12          12          12
 AtmWgt=  12.0000000  12.0000000  12.0000000  12.0000000  12.0000000  12.0000000  12.0000000  12.0000000  12.0000000  12.0000000
 NucSpn=           0           0           0           0           0           0           0           0           0           0
 AtZEff=  -0.0000000  -0.0000000  -0.0000000  -0.0000000  -0.0000000  -0.0000000  -0.0000000  -0.0000000  -0.0000000  -0.0000000
 NQMom=    0.0000000   0.0000000   0.0000000   0.0000000   0.0000000   0.0000000   0.0000000   0.0000000   0.0000000   0.0000000
 NMagM=    0.0000000   0.0000000   0.0000000   0.0000000   0.0000000   0.0000000   0.0000000   0.0000000   0.0000000   0.0000000
 AtZNuc=   6.0000000   6.0000000   6.0000000   6.0000000   6.0000000   6.0000000   6.0000000   6.0000000   6.0000000   6.0000000

  Atom        71          72          73          74          75          76          77          78          79          80
 IAtWgt=          12          12          12          12          12          12          12          12          12          12
 AtmWgt=  12.0000000  12.0000000  12.0000000  12.0000000  12.0000000  12.0000000  12.0000000  12.0000000  12.0000000  12.0000000
 NucSpn=           0           0           0           0           0           0           0           0           0           0
 AtZEff=  -0.0000000  -0.0000000  -0.0000000  -0.0000000  -0.0000000  -0.0000000  -0.0000000  -0.0000000  -0.0000000  -0.0000000
 NQMom=    0.0000000   0.0000000   0.0000000   0.0000000   0.0000000   0.0000000   0.0000000   0.0000000   0.0000000   0.0000000
 NMagM=    0.0000000   0.0000000   0.0000000   0.0000000   0.0000000   0.0000000   0.0000000   0.0000000   0.0000000   0.0000000
 AtZNuc=   6.0000000   6.0000000   6.0000000   6.0000000   6.0000000   6.0000000   6.0000000   6.0000000   6.0000000   6.0000000

  Atom        81          82          83          84          85          86
 IAtWgt=          12          12          12          12          35          35
 AtmWgt=  12.0000000  12.0000000  12.0000000  12.0000000  34.9688527  34.9688527
 NucSpn=           0           0           0           0           3           3
 AtZEff=  -0.0000000  -0.0000000  -0.0000000  -0.0000000  -0.0000000  -0.0000000
 NQMom=    0.0000000   0.0000000   0.0000000   0.0000000  -8.1650000  -8.1650000
 NMagM=    0.0000000   0.0000000   0.0000000   0.0000000   0.8218740   0.8218740
 AtZNuc=   6.0000000   6.0000000   6.0000000   6.0000000  17.0000000  17.0000000
 Leave Link  101 at Mon Jun 27 18:46:17 2022, MaxMem=  1342177280 cpu:               6.5 elap:               0.3
 (Enter /home/mkliu/g16/l103.exe)

 GradGradGradGradGradGradGradGradGradGradGradGradGradGradGradGradGradGrad
 Berny optimization.
 Initialization pass.
                           ----------------------------
                           !    Initial Parameters    !
                           ! (Angstroms and Degrees)  !
 --------------------------                            --------------------------
 ! Name  Definition              Value          Derivative Info.                !
 --------------------------------------------------------------------------------
 ! R1    R(1,5)                  1.4077         estimate D2E/DX2                !
 ! R2    R(1,17)                 1.4231         estimate D2E/DX2                !
 ! R3    R(1,23)                 1.4363         estimate D2E/DX2                !
 ! R4    R(2,6)                  1.421          estimate D2E/DX2                !
 ! R5    R(2,43)                 1.4361         estimate D2E/DX2                !
 ! R6    R(2,44)                 1.4147         estimate D2E/DX2                !
 ! R7    R(3,7)                  1.4236         estimate D2E/DX2                !
 ! R8    R(3,18)                 1.4103         estimate D2E/DX2                !
 ! R9    R(3,26)                 1.434          estimate D2E/DX2                !
 ! R10   R(4,8)                  1.4248         estimate D2E/DX2                !
 ! R11   R(4,45)                 1.4127         estimate D2E/DX2                !
 ! R12   R(4,46)                 1.4281         estimate D2E/DX2                !
 ! R13   R(5,9)                  1.4481         estimate D2E/DX2                !
 ! R14   R(5,29)                 1.4376         estimate D2E/DX2                !
 ! R15   R(6,10)                 1.4088         estimate D2E/DX2                !
 ! R16   R(6,15)                 1.4407         estimate D2E/DX2                !
 ! R17   R(7,12)                 1.4085         estimate D2E/DX2                !
 ! R18   R(7,30)                 1.4374         estimate D2E/DX2                !
 ! R19   R(8,11)                 1.4019         estimate D2E/DX2                !
 ! R20   R(8,16)                 1.4366         estimate D2E/DX2                !
 ! R21   R(9,13)                 1.4021         estimate D2E/DX2                !
 ! R22   R(9,35)                 1.4497         estimate D2E/DX2                !
 ! R23   R(10,49)                1.4208         estimate D2E/DX2                !
 ! R24   R(10,51)                1.4529         estimate D2E/DX2                !
 ! R25   R(11,50)                1.4234         estimate D2E/DX2                !
 ! R26   R(11,52)                1.4522         estimate D2E/DX2                !
 ! R27   R(12,14)                1.4077         estimate D2E/DX2                !
 ! R28   R(12,36)                1.4528         estimate D2E/DX2                !
 ! R29   R(13,15)                1.4259         estimate D2E/DX2                !
 ! R30   R(13,43)                1.4333         estimate D2E/DX2                !
 ! R31   R(14,16)                1.4152         estimate D2E/DX2                !
 ! R32   R(14,46)                1.4349         estimate D2E/DX2                !
 ! R33   R(15,17)                1.3716         estimate D2E/DX2                !
 ! R34   R(16,18)                1.4076         estimate D2E/DX2                !
 ! R35   R(17,19)                1.4431         estimate D2E/DX2                !
 ! R36   R(18,20)                1.4414         estimate D2E/DX2                !
 ! R37   R(19,21)                1.4107         estimate D2E/DX2                !
 ! R38   R(19,51)                1.4196         estimate D2E/DX2                !
 ! R39   R(20,22)                1.4117         estimate D2E/DX2                !
 ! R40   R(20,52)                1.4501         estimate D2E/DX2                !
 ! R41   R(21,23)                1.4527         estimate D2E/DX2                !
 ! R42   R(21,57)                1.4134         estimate D2E/DX2                !
 ! R43   R(22,24)                1.4227         estimate D2E/DX2                !
 ! R44   R(22,58)                1.4236         estimate D2E/DX2                !
 ! R45   R(23,25)                1.361          estimate D2E/DX2                !
 ! R46   R(24,26)                1.3569         estimate D2E/DX2                !
 ! R47   R(24,62)                1.5055         estimate D2E/DX2                !
 ! R48   R(25,27)                1.4168         estimate D2E/DX2                !
 ! R49   R(25,61)                1.5016         estimate D2E/DX2                !
 ! R50   R(26,28)                1.4489         estimate D2E/DX2                !
 ! R51   R(27,29)                1.4169         estimate D2E/DX2                !
 ! R52   R(27,65)                1.4207         estimate D2E/DX2                !
 ! R53   R(28,30)                1.4155         estimate D2E/DX2                !
 ! R54   R(28,66)                1.4057         estimate D2E/DX2                !
 ! R55   R(29,31)                1.3987         estimate D2E/DX2                !
 ! R56   R(30,32)                1.3767         estimate D2E/DX2                !
 ! R57   R(31,33)                1.4395         estimate D2E/DX2                !
 ! R58   R(31,69)                1.4224         estimate D2E/DX2                !
 ! R59   R(32,34)                1.4403         estimate D2E/DX2                !
 ! R60   R(32,70)                1.4228         estimate D2E/DX2                !
 ! R61   R(33,35)                1.4045         estimate D2E/DX2                !
 ! R62   R(33,73)                1.4263         estimate D2E/DX2                !
 ! R63   R(34,36)                1.4077         estimate D2E/DX2                !
 ! R64   R(34,74)                1.4272         estimate D2E/DX2                !
 ! R65   R(35,37)                1.4502         estimate D2E/DX2                !
 ! R66   R(36,38)                1.4495         estimate D2E/DX2                !
 ! R67   R(37,39)                1.4488         estimate D2E/DX2                !
 ! R68   R(37,77)                1.41           estimate D2E/DX2                !
 ! R69   R(38,42)                1.4571         estimate D2E/DX2                !
 ! R70   R(38,78)                1.4074         estimate D2E/DX2                !
 ! R71   R(39,43)                1.3979         estimate D2E/DX2                !
 ! R72   R(39,79)                1.421          estimate D2E/DX2                !
 ! R73   R(40,41)                1.4483         estimate D2E/DX2                !
 ! R74   R(40,44)                1.4106         estimate D2E/DX2                !
 ! R75   R(40,79)                1.4122         estimate D2E/DX2                !
 ! R76   R(41,45)                1.412          estimate D2E/DX2                !
 ! R77   R(41,80)                1.4137         estimate D2E/DX2                !
 ! R78   R(42,46)                1.4002         estimate D2E/DX2                !
 ! R79   R(42,80)                1.4214         estimate D2E/DX2                !
 ! R80   R(44,47)                1.413          estimate D2E/DX2                !
 ! R81   R(45,48)                1.4101         estimate D2E/DX2                !
 ! R82   R(47,48)                1.4535         estimate D2E/DX2                !
 ! R83   R(47,49)                1.4095         estimate D2E/DX2                !
 ! R84   R(48,50)                1.4124         estimate D2E/DX2                !
 ! R85   R(49,56)                1.4413         estimate D2E/DX2                !
 ! R86   R(50,56)                1.4353         estimate D2E/DX2                !
 ! R87   R(51,53)                1.4076         estimate D2E/DX2                !
 ! R88   R(52,54)                1.4046         estimate D2E/DX2                !
 ! R89   R(53,55)                1.4411         estimate D2E/DX2                !
 ! R90   R(53,83)                1.4221         estimate D2E/DX2                !
 ! R91   R(54,55)                1.4431         estimate D2E/DX2                !
 ! R92   R(54,84)                1.423          estimate D2E/DX2                !
 ! R93   R(55,56)                1.3646         estimate D2E/DX2                !
 ! R94   R(57,59)                1.447          estimate D2E/DX2                !
 ! R95   R(57,83)                1.4094         estimate D2E/DX2                !
 ! R96   R(58,60)                1.4269         estimate D2E/DX2                !
 ! R97   R(58,84)                1.3743         estimate D2E/DX2                !
 ! R98   R(59,60)                1.3672         estimate D2E/DX2                !
 ! R99   R(59,61)                1.5035         estimate D2E/DX2                !
 ! R100  R(60,62)                1.5138         estimate D2E/DX2                !
 ! R101  R(61,63)                1.5158         estimate D2E/DX2                !
 ! R102  R(61,85)                1.8167         estimate D2E/DX2                !
 ! R103  R(62,64)                1.5115         estimate D2E/DX2                !
 ! R104  R(62,86)                1.8162         estimate D2E/DX2                !
 ! R105  R(63,64)                1.3642         estimate D2E/DX2                !
 ! R106  R(63,65)                1.4254         estimate D2E/DX2                !
 ! R107  R(64,66)                1.4465         estimate D2E/DX2                !
 ! R108  R(65,67)                1.404          estimate D2E/DX2                !
 ! R109  R(66,68)                1.4454         estimate D2E/DX2                !
 ! R110  R(67,68)                1.4395         estimate D2E/DX2                !
 ! R111  R(67,69)                1.4157         estimate D2E/DX2                !
 ! R112  R(68,70)                1.4131         estimate D2E/DX2                !
 ! R113  R(69,71)                1.43           estimate D2E/DX2                !
 ! R114  R(70,72)                1.4379         estimate D2E/DX2                !
 ! R115  R(71,72)                1.3773         estimate D2E/DX2                !
 ! R116  R(71,73)                1.4393         estimate D2E/DX2                !
 ! R117  R(72,74)                1.444          estimate D2E/DX2                !
 ! R118  R(73,75)                1.3806         estimate D2E/DX2                !
 ! R119  R(74,76)                1.3797         estimate D2E/DX2                !
 ! R120  R(75,76)                1.4468         estimate D2E/DX2                !
 ! R121  R(75,77)                1.4202         estimate D2E/DX2                !
 ! R122  R(76,78)                1.4241         estimate D2E/DX2                !
 ! R123  R(77,81)                1.4427         estimate D2E/DX2                !
 ! R124  R(78,81)                1.4447         estimate D2E/DX2                !
 ! R125  R(79,82)                1.4337         estimate D2E/DX2                !
 ! R126  R(80,82)                1.4331         estimate D2E/DX2                !
 ! R127  R(81,82)                1.3614         estimate D2E/DX2                !
 ! R128  R(83,84)                1.433          estimate D2E/DX2                !
 ! A1    A(5,1,17)             121.7906         estimate D2E/DX2                !
 ! A2    A(5,1,23)             122.4196         estimate D2E/DX2                !
 ! A3    A(17,1,23)            106.1076         estimate D2E/DX2                !
 ! A4    A(6,2,43)             108.3945         estimate D2E/DX2                !
 ! A5    A(6,2,44)             121.1281         estimate D2E/DX2                !
 ! A6    A(43,2,44)            120.766          estimate D2E/DX2                !
 ! A7    A(7,3,18)             122.0487         estimate D2E/DX2                !
 ! A8    A(7,3,26)             107.5319         estimate D2E/DX2                !
 ! A9    A(18,3,26)            120.8626         estimate D2E/DX2                !
 ! A10   A(8,4,45)             120.9483         estimate D2E/DX2                !
 ! A11   A(8,4,46)             107.9513         estimate D2E/DX2                !
 ! A12   A(45,4,46)            121.2193         estimate D2E/DX2                !
 ! A13   A(1,5,9)              118.9117         estimate D2E/DX2                !
 ! A14   A(1,5,29)             115.9157         estimate D2E/DX2                !
 ! A15   A(9,5,29)             119.4077         estimate D2E/DX2                !
 ! A16   A(2,6,10)             122.4037         estimate D2E/DX2                !
 ! A17   A(2,6,15)             106.864          estimate D2E/DX2                !
 ! A18   A(10,6,15)            120.7275         estimate D2E/DX2                !
 ! A19   A(3,7,12)             122.2269         estimate D2E/DX2                !
 ! A20   A(3,7,30)             107.1833         estimate D2E/DX2                !
 ! A21   A(12,7,30)            120.3704         estimate D2E/DX2                !
 ! A22   A(4,8,11)             122.3681         estimate D2E/DX2                !
 ! A23   A(4,8,16)             107.8599         estimate D2E/DX2                !
 ! A24   A(11,8,16)            121.3502         estimate D2E/DX2                !
 ! A25   A(5,9,13)             117.6331         estimate D2E/DX2                !
 ! A26   A(5,9,35)             120.9315         estimate D2E/DX2                !
 ! A27   A(13,9,35)            117.0841         estimate D2E/DX2                !
 ! A28   A(6,10,49)            115.4447         estimate D2E/DX2                !
 ! A29   A(6,10,51)            118.8612         estimate D2E/DX2                !
 ! A30   A(49,10,51)           118.6305         estimate D2E/DX2                !
 ! A31   A(8,11,50)            115.6498         estimate D2E/DX2                !
 ! A32   A(8,11,52)            118.6282         estimate D2E/DX2                !
 ! A33   A(50,11,52)           119.6095         estimate D2E/DX2                !
 ! A34   A(7,12,14)            114.7601         estimate D2E/DX2                !
 ! A35   A(7,12,36)            120.666          estimate D2E/DX2                !
 ! A36   A(14,12,36)           118.9677         estimate D2E/DX2                !
 ! A37   A(9,13,15)            122.2166         estimate D2E/DX2                !
 ! A38   A(9,13,43)            122.1196         estimate D2E/DX2                !
 ! A39   A(15,13,43)           106.659          estimate D2E/DX2                !
 ! A40   A(12,14,16)           122.5066         estimate D2E/DX2                !
 ! A41   A(12,14,46)           121.4015         estimate D2E/DX2                !
 ! A42   A(16,14,46)           108.0334         estimate D2E/DX2                !
 ! A43   A(6,15,13)            109.3282         estimate D2E/DX2                !
 ! A44   A(6,15,17)            120.4785         estimate D2E/DX2                !
 ! A45   A(13,15,17)           119.9599         estimate D2E/DX2                !
 ! A46   A(8,16,14)            108.1661         estimate D2E/DX2                !
 ! A47   A(8,16,18)            121.1983         estimate D2E/DX2                !
 ! A48   A(14,16,18)           122.2654         estimate D2E/DX2                !
 ! A49   A(1,17,15)            119.2476         estimate D2E/DX2                !
 ! A50   A(1,17,19)            109.7709         estimate D2E/DX2                !
 ! A51   A(15,17,19)           120.27           estimate D2E/DX2                !
 ! A52   A(3,18,16)            114.9441         estimate D2E/DX2                !
 ! A53   A(3,18,20)            120.0016         estimate D2E/DX2                !
 ! A54   A(16,18,20)           118.8779         estimate D2E/DX2                !
 ! A55   A(17,19,21)           107.2421         estimate D2E/DX2                !
 ! A56   A(17,19,51)           120.1093         estimate D2E/DX2                !
 ! A57   A(21,19,51)           122.9235         estimate D2E/DX2                !
 ! A58   A(18,20,22)           116.3138         estimate D2E/DX2                !
 ! A59   A(18,20,52)           119.9711         estimate D2E/DX2                !
 ! A60   A(22,20,52)           118.4669         estimate D2E/DX2                !
 ! A61   A(19,21,23)           107.9146         estimate D2E/DX2                !
 ! A62   A(19,21,57)           122.0076         estimate D2E/DX2                !
 ! A63   A(23,21,57)           119.3888         estimate D2E/DX2                !
 ! A64   A(20,22,24)           123.1103         estimate D2E/DX2                !
 ! A65   A(20,22,58)           121.692          estimate D2E/DX2                !
 ! A66   A(24,22,58)           106.3101         estimate D2E/DX2                !
 ! A67   A(1,23,21)            108.494          estimate D2E/DX2                !
 ! A68   A(1,23,25)            120.6448         estimate D2E/DX2                !
 ! A69   A(21,23,25)           120.7587         estimate D2E/DX2                !
 ! A70   A(22,24,26)           119.7075         estimate D2E/DX2                !
 ! A71   A(22,24,62)           111.9594         estimate D2E/DX2                !
 ! A72   A(26,24,62)           121.1637         estimate D2E/DX2                !
 ! A73   A(23,25,27)           118.5223         estimate D2E/DX2                !
 ! A74   A(23,25,61)           123.4299         estimate D2E/DX2                !
 ! A75   A(27,25,61)           110.9117         estimate D2E/DX2                !
 ! A76   A(3,26,24)            119.7283         estimate D2E/DX2                !
 ! A77   A(3,26,28)            109.0349         estimate D2E/DX2                !
 ! A78   A(24,26,28)           121.4703         estimate D2E/DX2                !
 ! A79   A(25,27,29)           121.7998         estimate D2E/DX2                !
 ! A80   A(25,27,65)           108.1316         estimate D2E/DX2                !
 ! A81   A(29,27,65)           121.1215         estimate D2E/DX2                !
 ! A82   A(26,28,30)           105.5068         estimate D2E/DX2                !
 ! A83   A(26,28,66)           120.7579         estimate D2E/DX2                !
 ! A84   A(30,28,66)           121.4818         estimate D2E/DX2                !
 ! A85   A(5,29,27)            120.167          estimate D2E/DX2                !
 ! A86   A(5,29,31)            118.7811         estimate D2E/DX2                !
 ! A87   A(27,29,31)           115.579          estimate D2E/DX2                !
 ! A88   A(7,30,28)            110.0985         estimate D2E/DX2                !
 ! A89   A(7,30,32)            119.349          estimate D2E/DX2                !
 ! A90   A(28,30,32)           120.384          estimate D2E/DX2                !
 ! A91   A(29,31,33)           121.2407         estimate D2E/DX2                !
 ! A92   A(29,31,69)           122.0753         estimate D2E/DX2                !
 ! A93   A(33,31,69)           108.9138         estimate D2E/DX2                !
 ! A94   A(30,32,34)           120.4809         estimate D2E/DX2                !
 ! A95   A(30,32,70)           119.035          estimate D2E/DX2                !
 ! A96   A(34,32,70)           110.1071         estimate D2E/DX2                !
 ! A97   A(31,33,35)           121.3041         estimate D2E/DX2                !
 ! A98   A(31,33,73)           106.9565         estimate D2E/DX2                !
 ! A99   A(35,33,73)           122.5522         estimate D2E/DX2                !
 ! A100  A(32,34,36)           121.3672         estimate D2E/DX2                !
 ! A101  A(32,34,74)           105.949          estimate D2E/DX2                !
 ! A102  A(36,34,74)           122.3458         estimate D2E/DX2                !
 ! A103  A(9,35,33)            117.0861         estimate D2E/DX2                !
 ! A104  A(9,35,37)            120.6781         estimate D2E/DX2                !
 ! A105  A(33,35,37)           118.011          estimate D2E/DX2                !
 ! A106  A(12,36,34)           117.0027         estimate D2E/DX2                !
 ! A107  A(12,36,38)           119.514          estimate D2E/DX2                !
 ! A108  A(34,36,38)           118.301          estimate D2E/DX2                !
 ! A109  A(35,37,39)           119.6998         estimate D2E/DX2                !
 ! A110  A(35,37,77)           118.1859         estimate D2E/DX2                !
 ! A111  A(39,37,77)           116.9048         estimate D2E/DX2                !
 ! A112  A(36,38,42)           119.9202         estimate D2E/DX2                !
 ! A113  A(36,38,78)           117.9266         estimate D2E/DX2                !
 ! A114  A(42,38,78)           117.2792         estimate D2E/DX2                !
 ! A115  A(37,39,43)           118.3266         estimate D2E/DX2                !
 ! A116  A(37,39,79)           120.1928         estimate D2E/DX2                !
 ! A117  A(43,39,79)           115.8076         estimate D2E/DX2                !
 ! A118  A(41,40,44)           120.9888         estimate D2E/DX2                !
 ! A119  A(41,40,79)           108.2397         estimate D2E/DX2                !
 ! A120  A(44,40,79)           121.1242         estimate D2E/DX2                !
 ! A121  A(40,41,45)           120.4284         estimate D2E/DX2                !
 ! A122  A(40,41,80)           108.6595         estimate D2E/DX2                !
 ! A123  A(45,41,80)           121.054          estimate D2E/DX2                !
 ! A124  A(38,42,46)           119.0056         estimate D2E/DX2                !
 ! A125  A(38,42,80)           119.8022         estimate D2E/DX2                !
 ! A126  A(46,42,80)           115.4544         estimate D2E/DX2                !
 ! A127  A(2,43,13)            108.4661         estimate D2E/DX2                !
 ! A128  A(2,43,39)            122.1131         estimate D2E/DX2                !
 ! A129  A(13,43,39)           121.335          estimate D2E/DX2                !
 ! A130  A(2,44,40)            116.9933         estimate D2E/DX2                !
 ! A131  A(2,44,47)            116.854          estimate D2E/DX2                !
 ! A132  A(40,44,47)           118.4601         estimate D2E/DX2                !
 ! A133  A(4,45,41)            116.8273         estimate D2E/DX2                !
 ! A134  A(4,45,48)            117.0538         estimate D2E/DX2                !
 ! A135  A(41,45,48)           118.5299         estimate D2E/DX2                !
 ! A136  A(4,46,14)            107.925          estimate D2E/DX2                !
 ! A137  A(4,46,42)            122.3299         estimate D2E/DX2                !
 ! A138  A(14,46,42)           121.1026         estimate D2E/DX2                !
 ! A139  A(44,47,48)           120.2971         estimate D2E/DX2                !
 ! A140  A(44,47,49)           121.3332         estimate D2E/DX2                !
 ! A141  A(48,47,49)           108.466          estimate D2E/DX2                !
 ! A142  A(45,48,47)           120.8587         estimate D2E/DX2                !
 ! A143  A(45,48,50)           121.2425         estimate D2E/DX2                !
 ! A144  A(47,48,50)           108.5379         estimate D2E/DX2                !
 ! A145  A(10,49,47)           122.5026         estimate D2E/DX2                !
 ! A146  A(10,49,56)           120.5993         estimate D2E/DX2                !
 ! A147  A(47,49,56)           106.645          estimate D2E/DX2                !
 ! A148  A(11,50,48)           122.0859         estimate D2E/DX2                !
 ! A149  A(11,50,56)           120.9475         estimate D2E/DX2                !
 ! A150  A(48,50,56)           106.6107         estimate D2E/DX2                !
 ! A151  A(10,51,19)           119.4119         estimate D2E/DX2                !
 ! A152  A(10,51,53)           119.1159         estimate D2E/DX2                !
 ! A153  A(19,51,53)           114.6523         estimate D2E/DX2                !
 ! A154  A(11,52,20)           119.9567         estimate D2E/DX2                !
 ! A155  A(11,52,54)           117.0567         estimate D2E/DX2                !
 ! A156  A(20,52,54)           117.9365         estimate D2E/DX2                !
 ! A157  A(51,53,55)           120.9026         estimate D2E/DX2                !
 ! A158  A(51,53,83)           121.9003         estimate D2E/DX2                !
 ! A159  A(55,53,83)           107.0127         estimate D2E/DX2                !
 ! A160  A(52,54,55)           122.2203         estimate D2E/DX2                !
 ! A161  A(52,54,84)           122.0056         estimate D2E/DX2                !
 ! A162  A(55,54,84)           105.29           estimate D2E/DX2                !
 ! A163  A(53,55,54)           109.4824         estimate D2E/DX2                !
 ! A164  A(53,55,56)           120.2184         estimate D2E/DX2                !
 ! A165  A(54,55,56)           120.0967         estimate D2E/DX2                !
 ! A166  A(49,56,50)           109.4935         estimate D2E/DX2                !
 ! A167  A(49,56,55)           120.3731         estimate D2E/DX2                !
 ! A168  A(50,56,55)           119.5248         estimate D2E/DX2                !
 ! A169  A(21,57,59)           120.3942         estimate D2E/DX2                !
 ! A170  A(21,57,83)           114.6571         estimate D2E/DX2                !
 ! A171  A(59,57,83)           119.1136         estimate D2E/DX2                !
 ! A172  A(22,58,60)           110.5171         estimate D2E/DX2                !
 ! A173  A(22,58,84)           119.3638         estimate D2E/DX2                !
 ! A174  A(60,58,84)           120.8887         estimate D2E/DX2                !
 ! A175  A(57,59,60)           119.8796         estimate D2E/DX2                !
 ! A176  A(57,59,61)           120.6335         estimate D2E/DX2                !
 ! A177  A(60,59,61)           116.8279         estimate D2E/DX2                !
 ! A178  A(58,60,59)           120.4983         estimate D2E/DX2                !
 ! A179  A(58,60,62)           108.4018         estimate D2E/DX2                !
 ! A180  A(59,60,62)           125.6558         estimate D2E/DX2                !
 ! A181  A(25,61,59)           112.0239         estimate D2E/DX2                !
 ! A182  A(25,61,63)           100.9472         estimate D2E/DX2                !
 ! A183  A(25,61,85)           111.4743         estimate D2E/DX2                !
 ! A184  A(59,61,63)           111.7747         estimate D2E/DX2                !
 ! A185  A(59,61,85)           109.7924         estimate D2E/DX2                !
 ! A186  A(63,61,85)           110.5915         estimate D2E/DX2                !
 ! A187  A(24,62,60)           101.1043         estimate D2E/DX2                !
 ! A188  A(24,62,64)           111.8245         estimate D2E/DX2                !
 ! A189  A(24,62,86)           111.736          estimate D2E/DX2                !
 ! A190  A(60,62,64)           111.7226         estimate D2E/DX2                !
 ! A191  A(60,62,86)           111.0359         estimate D2E/DX2                !
 ! A192  A(64,62,86)           109.2562         estimate D2E/DX2                !
 ! A193  A(61,63,64)           125.5737         estimate D2E/DX2                !
 ! A194  A(61,63,65)           109.224          estimate D2E/DX2                !
 ! A195  A(64,63,65)           120.7036         estimate D2E/DX2                !
 ! A196  A(62,64,63)           116.8774         estimate D2E/DX2                !
 ! A197  A(62,64,66)           121.6784         estimate D2E/DX2                !
 ! A198  A(63,64,66)           119.4676         estimate D2E/DX2                !
 ! A199  A(27,65,63)           108.9944         estimate D2E/DX2                !
 ! A200  A(27,65,67)           122.1572         estimate D2E/DX2                !
 ! A201  A(63,65,67)           122.0482         estimate D2E/DX2                !
 ! A202  A(28,66,64)           117.6795         estimate D2E/DX2                !
 ! A203  A(28,66,68)           117.7485         estimate D2E/DX2                !
 ! A204  A(64,66,68)           120.2525         estimate D2E/DX2                !
 ! A205  A(65,67,68)           118.4281         estimate D2E/DX2                !
 ! A206  A(65,67,69)           115.2698         estimate D2E/DX2                !
 ! A207  A(68,67,69)           120.5273         estimate D2E/DX2                !
 ! A208  A(66,68,67)           118.8209         estimate D2E/DX2                !
 ! A209  A(66,68,70)           118.9264         estimate D2E/DX2                !
 ! A210  A(67,68,70)           116.8578         estimate D2E/DX2                !
 ! A211  A(31,69,67)           121.2051         estimate D2E/DX2                !
 ! A212  A(31,69,71)           107.5364         estimate D2E/DX2                !
 ! A213  A(67,69,71)           120.9403         estimate D2E/DX2                !
 ! A214  A(32,70,68)           121.0517         estimate D2E/DX2                !
 ! A215  A(32,70,72)           106.3374         estimate D2E/DX2                !
 ! A216  A(68,70,72)           122.0716         estimate D2E/DX2                !
 ! A217  A(69,71,72)           119.1644         estimate D2E/DX2                !
 ! A218  A(69,71,73)           107.967          estimate D2E/DX2                !
 ! A219  A(72,71,73)           120.5166         estimate D2E/DX2                !
 ! A220  A(70,72,71)           120.2775         estimate D2E/DX2                !
 ! A221  A(70,72,74)           108.1035         estimate D2E/DX2                !
 ! A222  A(71,72,74)           119.5715         estimate D2E/DX2                !
 ! A223  A(33,73,71)           108.3061         estimate D2E/DX2                !
 ! A224  A(33,73,75)           119.3504         estimate D2E/DX2                !
 ! A225  A(71,73,75)           120.019          estimate D2E/DX2                !
 ! A226  A(34,74,72)           108.6292         estimate D2E/DX2                !
 ! A227  A(34,74,76)           119.1704         estimate D2E/DX2                !
 ! A228  A(72,74,76)           120.1546         estimate D2E/DX2                !
 ! A229  A(73,75,76)           119.651          estimate D2E/DX2                !
 ! A230  A(73,75,77)           119.3349         estimate D2E/DX2                !
 ! A231  A(76,75,77)           108.866          estimate D2E/DX2                !
 ! A232  A(74,76,75)           120.052          estimate D2E/DX2                !
 ! A233  A(74,76,78)           119.4711         estimate D2E/DX2                !
 ! A234  A(75,76,78)           108.5233         estimate D2E/DX2                !
 ! A235  A(37,77,75)           122.4775         estimate D2E/DX2                !
 ! A236  A(37,77,81)           121.0674         estimate D2E/DX2                !
 ! A237  A(75,77,81)           106.0369         estimate D2E/DX2                !
 ! A238  A(38,78,76)           122.5196         estimate D2E/DX2                !
 ! A239  A(38,78,81)           121.1286         estimate D2E/DX2                !
 ! A240  A(76,78,81)           105.9649         estimate D2E/DX2                !
 ! A241  A(39,79,40)           122.2534         estimate D2E/DX2                !
 ! A242  A(39,79,82)           120.0566         estimate D2E/DX2                !
 ! A243  A(40,79,82)           106.6568         estimate D2E/DX2                !
 ! A244  A(41,80,42)           122.5716         estimate D2E/DX2                !
 ! A245  A(41,80,82)           106.379          estimate D2E/DX2                !
 ! A246  A(42,80,82)           120.1811         estimate D2E/DX2                !
 ! A247  A(77,81,78)           109.5423         estimate D2E/DX2                !
 ! A248  A(77,81,82)           120.4455         estimate D2E/DX2                !
 ! A249  A(78,81,82)           120.3076         estimate D2E/DX2                !
 ! A250  A(79,82,80)           109.6082         estimate D2E/DX2                !
 ! A251  A(79,82,81)           119.8455         estimate D2E/DX2                !
 ! A252  A(80,82,81)           120.1128         estimate D2E/DX2                !
 ! A253  A(53,83,57)           122.9064         estimate D2E/DX2                !
 ! A254  A(53,83,84)           107.6488         estimate D2E/DX2                !
 ! A255  A(57,83,84)           119.8619         estimate D2E/DX2                !
 ! A256  A(54,84,58)           119.867          estimate D2E/DX2                !
 ! A257  A(54,84,83)           110.0695         estimate D2E/DX2                !
 ! A258  A(58,84,83)           119.5675         estimate D2E/DX2                !
 ! D1    D(17,1,5,9)             3.2946         estimate D2E/DX2                !
 ! D2    D(17,1,5,29)         -149.833          estimate D2E/DX2                !
 ! D3    D(23,1,5,9)           144.5834         estimate D2E/DX2                !
 ! D4    D(23,1,5,29)           -8.5442         estimate D2E/DX2                !
 ! D5    D(5,1,17,15)           -4.6496         estimate D2E/DX2                !
 ! D6    D(5,1,17,19)          139.9572         estimate D2E/DX2                !
 ! D7    D(23,1,17,15)        -151.3172         estimate D2E/DX2                !
 ! D8    D(23,1,17,19)          -6.7104         estimate D2E/DX2                !
 ! D9    D(5,1,23,21)         -139.6588         estimate D2E/DX2                !
 ! D10   D(5,1,23,25)            5.9272         estimate D2E/DX2                !
 ! D11   D(17,1,23,21)           6.7479         estimate D2E/DX2                !
 ! D12   D(17,1,23,25)         152.3339         estimate D2E/DX2                !
 ! D13   D(43,2,6,10)         -142.5797         estimate D2E/DX2                !
 ! D14   D(43,2,6,15)            2.9871         estimate D2E/DX2                !
 ! D15   D(44,2,6,10)            3.5788         estimate D2E/DX2                !
 ! D16   D(44,2,6,15)          149.1456         estimate D2E/DX2                !
 ! D17   D(6,2,43,13)            0.2931         estimate D2E/DX2                !
 ! D18   D(6,2,43,39)          149.2626         estimate D2E/DX2                !
 ! D19   D(44,2,43,13)        -146.0106         estimate D2E/DX2                !
 ! D20   D(44,2,43,39)           2.9589         estimate D2E/DX2                !
 ! D21   D(6,2,44,40)         -148.687          estimate D2E/DX2                !
 ! D22   D(6,2,44,47)            0.3347         estimate D2E/DX2                !
 ! D23   D(43,2,44,40)          -6.6386         estimate D2E/DX2                !
 ! D24   D(43,2,44,47)         142.3831         estimate D2E/DX2                !
 ! D25   D(18,3,7,12)            1.1913         estimate D2E/DX2                !
 ! D26   D(18,3,7,30)          146.3286         estimate D2E/DX2                !
 ! D27   D(26,3,7,12)         -145.1628         estimate D2E/DX2                !
 ! D28   D(26,3,7,30)           -0.0255         estimate D2E/DX2                !
 ! D29   D(7,3,18,16)            8.1235         estimate D2E/DX2                !
 ! D30   D(7,3,18,20)         -143.9552         estimate D2E/DX2                !
 ! D31   D(26,3,18,16)         150.1372         estimate D2E/DX2                !
 ! D32   D(26,3,18,20)          -1.9415         estimate D2E/DX2                !
 ! D33   D(7,3,26,24)          151.3293         estimate D2E/DX2                !
 ! D34   D(7,3,26,28)            4.9244         estimate D2E/DX2                !
 ! D35   D(18,3,26,24)           4.4966         estimate D2E/DX2                !
 ! D36   D(18,3,26,28)        -141.9083         estimate D2E/DX2                !
 ! D37   D(45,4,8,11)           -0.1931         estimate D2E/DX2                !
 ! D38   D(45,4,8,16)         -148.5569         estimate D2E/DX2                !
 ! D39   D(46,4,8,11)          145.8597         estimate D2E/DX2                !
 ! D40   D(46,4,8,16)           -2.5041         estimate D2E/DX2                !
 ! D41   D(8,4,45,41)          145.0174         estimate D2E/DX2                !
 ! D42   D(8,4,45,48)           -4.2168         estimate D2E/DX2                !
 ! D43   D(46,4,45,41)           3.4213         estimate D2E/DX2                !
 ! D44   D(46,4,45,48)        -145.8129         estimate D2E/DX2                !
 ! D45   D(8,4,46,14)            2.4977         estimate D2E/DX2                !
 ! D46   D(8,4,46,42)         -145.4168         estimate D2E/DX2                !
 ! D47   D(45,4,46,14)         148.4402         estimate D2E/DX2                !
 ! D48   D(45,4,46,42)           0.5257         estimate D2E/DX2                !
 ! D49   D(1,5,9,13)             1.1647         estimate D2E/DX2                !
 ! D50   D(1,5,9,35)          -154.7358         estimate D2E/DX2                !
 ! D51   D(29,5,9,13)          153.3454         estimate D2E/DX2                !
 ! D52   D(29,5,9,35)           -2.5551         estimate D2E/DX2                !
 ! D53   D(1,5,29,27)            7.4889         estimate D2E/DX2                !
 ! D54   D(1,5,29,31)          160.2454         estimate D2E/DX2                !
 ! D55   D(9,5,29,27)         -145.498          estimate D2E/DX2                !
 ! D56   D(9,5,29,31)            7.2585         estimate D2E/DX2                !
 ! D57   D(2,6,10,49)           -6.6654         estimate D2E/DX2                !
 ! D58   D(2,6,10,51)          143.5751         estimate D2E/DX2                !
 ! D59   D(15,6,10,49)        -147.6517         estimate D2E/DX2                !
 ! D60   D(15,6,10,51)           2.5889         estimate D2E/DX2                !
 ! D61   D(2,6,15,13)           -5.2349         estimate D2E/DX2                !
 ! D62   D(2,6,15,17)         -150.3701         estimate D2E/DX2                !
 ! D63   D(10,6,15,13)         141.0288         estimate D2E/DX2                !
 ! D64   D(10,6,15,17)          -4.1064         estimate D2E/DX2                !
 ! D65   D(3,7,12,14)           -9.5294         estimate D2E/DX2                !
 ! D66   D(3,7,12,36)          143.7923         estimate D2E/DX2                !
 ! D67   D(30,7,12,14)        -150.2609         estimate D2E/DX2                !
 ! D68   D(30,7,12,36)           3.0609         estimate D2E/DX2                !
 ! D69   D(3,7,30,28)           -5.0314         estimate D2E/DX2                !
 ! D70   D(3,7,30,32)         -150.4836         estimate D2E/DX2                !
 ! D71   D(12,7,30,28)         140.8809         estimate D2E/DX2                !
 ! D72   D(12,7,30,32)          -4.5712         estimate D2E/DX2                !
 ! D73   D(4,8,11,50)            6.8153         estimate D2E/DX2                !
 ! D74   D(4,8,11,52)         -145.6277         estimate D2E/DX2                !
 ! D75   D(16,8,11,50)         151.0409         estimate D2E/DX2                !
 ! D76   D(16,8,11,52)          -1.4022         estimate D2E/DX2                !
 ! D77   D(4,8,16,14)            1.5615         estimate D2E/DX2                !
 ! D78   D(4,8,16,18)          150.3814         estimate D2E/DX2                !
 ! D79   D(11,8,16,14)        -147.1891         estimate D2E/DX2                !
 ! D80   D(11,8,16,18)           1.6309         estimate D2E/DX2                !
 ! D81   D(5,9,13,15)           -4.3649         estimate D2E/DX2                !
 ! D82   D(5,9,13,43)         -147.083          estimate D2E/DX2                !
 ! D83   D(35,9,13,15)         152.4694         estimate D2E/DX2                !
 ! D84   D(35,9,13,43)           9.7513         estimate D2E/DX2                !
 ! D85   D(5,9,35,33)           -7.2622         estimate D2E/DX2                !
 ! D86   D(5,9,35,37)          149.1903         estimate D2E/DX2                !
 ! D87   D(13,9,35,33)        -163.2893         estimate D2E/DX2                !
 ! D88   D(13,9,35,37)          -6.8369         estimate D2E/DX2                !
 ! D89   D(6,10,49,47)           6.2967         estimate D2E/DX2                !
 ! D90   D(6,10,49,56)         146.7743         estimate D2E/DX2                !
 ! D91   D(51,10,49,47)       -144.0162         estimate D2E/DX2                !
 ! D92   D(51,10,49,56)         -3.5385         estimate D2E/DX2                !
 ! D93   D(6,10,51,19)           0.8332         estimate D2E/DX2                !
 ! D94   D(6,10,51,53)        -148.7159         estimate D2E/DX2                !
 ! D95   D(49,10,51,19)        150.126          estimate D2E/DX2                !
 ! D96   D(49,10,51,53)          0.5768         estimate D2E/DX2                !
 ! D97   D(8,11,50,48)          -9.3351         estimate D2E/DX2                !
 ! D98   D(8,11,50,56)        -149.63           estimate D2E/DX2                !
 ! D99   D(52,11,50,48)        142.821          estimate D2E/DX2                !
 ! D100  D(52,11,50,56)          2.526          estimate D2E/DX2                !
 ! D101  D(8,11,52,20)           0.6276         estimate D2E/DX2                !
 ! D102  D(8,11,52,54)         154.9922         estimate D2E/DX2                !
 ! D103  D(50,11,52,20)       -150.7077         estimate D2E/DX2                !
 ! D104  D(50,11,52,54)          3.6568         estimate D2E/DX2                !
 ! D105  D(7,12,14,16)           8.7076         estimate D2E/DX2                !
 ! D106  D(7,12,14,46)         153.6987         estimate D2E/DX2                !
 ! D107  D(36,12,14,16)       -145.0981         estimate D2E/DX2                !
 ! D108  D(36,12,14,46)         -0.107          estimate D2E/DX2                !
 ! D109  D(7,12,36,34)           4.0369         estimate D2E/DX2                !
 ! D110  D(7,12,36,38)        -150.112          estimate D2E/DX2                !
 ! D111  D(14,12,36,34)        156.2616         estimate D2E/DX2                !
 ! D112  D(14,12,36,38)          2.1127         estimate D2E/DX2                !
 ! D113  D(9,13,15,6)         -142.2338         estimate D2E/DX2                !
 ! D114  D(9,13,15,17)           3.1111         estimate D2E/DX2                !
 ! D115  D(43,13,15,6)           5.3884         estimate D2E/DX2                !
 ! D116  D(43,13,15,17)        150.7333         estimate D2E/DX2                !
 ! D117  D(9,13,43,2)          144.1775         estimate D2E/DX2                !
 ! D118  D(9,13,43,39)          -5.0798         estimate D2E/DX2                !
 ! D119  D(15,13,43,2)          -3.4834         estimate D2E/DX2                !
 ! D120  D(15,13,43,39)       -152.7407         estimate D2E/DX2                !
 ! D121  D(12,14,16,8)         148.9884         estimate D2E/DX2                !
 ! D122  D(12,14,16,18)          0.571          estimate D2E/DX2                !
 ! D123  D(46,14,16,8)          -0.0158         estimate D2E/DX2                !
 ! D124  D(46,14,16,18)       -148.4333         estimate D2E/DX2                !
 ! D125  D(12,14,46,4)        -150.9478         estimate D2E/DX2                !
 ! D126  D(12,14,46,42)         -2.562          estimate D2E/DX2                !
 ! D127  D(16,14,46,4)          -1.5328         estimate D2E/DX2                !
 ! D128  D(16,14,46,42)        146.853          estimate D2E/DX2                !
 ! D129  D(6,15,17,1)          142.9351         estimate D2E/DX2                !
 ! D130  D(6,15,17,19)           2.0654         estimate D2E/DX2                !
 ! D131  D(13,15,17,1)           1.4428         estimate D2E/DX2                !
 ! D132  D(13,15,17,19)       -139.4269         estimate D2E/DX2                !
 ! D133  D(8,16,18,3)         -153.4164         estimate D2E/DX2                !
 ! D134  D(8,16,18,20)          -1.0039         estimate D2E/DX2                !
 ! D135  D(14,16,18,3)          -8.9905         estimate D2E/DX2                !
 ! D136  D(14,16,18,20)        143.422          estimate D2E/DX2                !
 ! D137  D(1,17,19,21)           4.11           estimate D2E/DX2                !
 ! D138  D(1,17,19,51)        -142.802          estimate D2E/DX2                !
 ! D139  D(15,17,19,21)        148.2982         estimate D2E/DX2                !
 ! D140  D(15,17,19,51)          1.3862         estimate D2E/DX2                !
 ! D141  D(3,18,20,22)          -2.7973         estimate D2E/DX2                !
 ! D142  D(3,18,20,52)         151.2322         estimate D2E/DX2                !
 ! D143  D(16,18,20,22)       -153.7932         estimate D2E/DX2                !
 ! D144  D(16,18,20,52)          0.2364         estimate D2E/DX2                !
 ! D145  D(17,19,21,23)          0.1967         estimate D2E/DX2                !
 ! D146  D(17,19,21,57)       -143.9247         estimate D2E/DX2                !
 ! D147  D(51,19,21,23)        145.9592         estimate D2E/DX2                !
 ! D148  D(51,19,21,57)          1.8378         estimate D2E/DX2                !
 ! D149  D(17,19,51,10)         -2.8315         estimate D2E/DX2                !
 ! D150  D(17,19,51,53)        148.0144         estimate D2E/DX2                !
 ! D151  D(21,19,51,10)       -144.4311         estimate D2E/DX2                !
 ! D152  D(21,19,51,53)          6.4148         estimate D2E/DX2                !
 ! D153  D(18,20,22,24)          5.3406         estimate D2E/DX2                !
 ! D154  D(18,20,22,58)        148.1552         estimate D2E/DX2                !
 ! D155  D(52,20,22,24)       -149.0951         estimate D2E/DX2                !
 ! D156  D(52,20,22,58)         -6.2805         estimate D2E/DX2                !
 ! D157  D(18,20,52,11)         -0.0506         estimate D2E/DX2                !
 ! D158  D(18,20,52,54)       -154.1944         estimate D2E/DX2                !
 ! D159  D(22,20,52,11)        153.4288         estimate D2E/DX2                !
 ! D160  D(22,20,52,54)         -0.7149         estimate D2E/DX2                !
 ! D161  D(19,21,23,1)          -4.3642         estimate D2E/DX2                !
 ! D162  D(19,21,23,25)       -149.9038         estimate D2E/DX2                !
 ! D163  D(57,21,23,1)         140.8594         estimate D2E/DX2                !
 ! D164  D(57,21,23,25)         -4.6802         estimate D2E/DX2                !
 ! D165  D(19,21,57,59)        143.9578         estimate D2E/DX2                !
 ! D166  D(19,21,57,83)         -8.9042         estimate D2E/DX2                !
 ! D167  D(23,21,57,59)          3.751          estimate D2E/DX2                !
 ! D168  D(23,21,57,83)       -149.111          estimate D2E/DX2                !
 ! D169  D(20,22,24,26)         -2.9709         estimate D2E/DX2                !
 ! D170  D(20,22,24,62)        147.7741         estimate D2E/DX2                !
 ! D171  D(58,22,24,26)       -150.5703         estimate D2E/DX2                !
 ! D172  D(58,22,24,62)          0.1747         estimate D2E/DX2                !
 ! D173  D(20,22,58,60)       -139.9615         estimate D2E/DX2                !
 ! D174  D(20,22,58,84)          7.1258         estimate D2E/DX2                !
 ! D175  D(24,22,58,60)          8.203          estimate D2E/DX2                !
 ! D176  D(24,22,58,84)        155.2903         estimate D2E/DX2                !
 ! D177  D(1,23,25,27)          -1.7718         estimate D2E/DX2                !
 ! D178  D(1,23,25,61)        -149.499          estimate D2E/DX2                !
 ! D179  D(21,23,25,27)        139.6397         estimate D2E/DX2                !
 ! D180  D(21,23,25,61)         -8.0874         estimate D2E/DX2                !
 ! D181  D(22,24,26,3)          -2.0749         estimate D2E/DX2                !
 ! D182  D(22,24,26,28)        140.0988         estimate D2E/DX2                !
 ! D183  D(62,24,26,3)        -150.0911         estimate D2E/DX2                !
 ! D184  D(62,24,26,28)         -7.9174         estimate D2E/DX2                !
 ! D185  D(22,24,62,60)         -7.6381         estimate D2E/DX2                !
 ! D186  D(22,24,62,64)       -126.6436         estimate D2E/DX2                !
 ! D187  D(22,24,62,86)        110.5294         estimate D2E/DX2                !
 ! D188  D(26,24,62,60)        142.6228         estimate D2E/DX2                !
 ! D189  D(26,24,62,64)         23.6173         estimate D2E/DX2                !
 ! D190  D(26,24,62,86)        -99.2097         estimate D2E/DX2                !
 ! D191  D(23,25,27,29)          0.9215         estimate D2E/DX2                !
 ! D192  D(23,25,27,65)       -146.5313         estimate D2E/DX2                !
 ! D193  D(61,25,27,29)        152.4295         estimate D2E/DX2                !
 ! D194  D(61,25,27,65)          4.9766         estimate D2E/DX2                !
 ! D195  D(23,25,61,59)         19.7024         estimate D2E/DX2                !
 ! D196  D(23,25,61,63)        138.7684         estimate D2E/DX2                !
 ! D197  D(23,25,61,85)       -103.7777         estimate D2E/DX2                !
 ! D198  D(27,25,61,59)       -130.1501         estimate D2E/DX2                !
 ! D199  D(27,25,61,63)        -11.0841         estimate D2E/DX2                !
 ! D200  D(27,25,61,85)        106.3698         estimate D2E/DX2                !
 ! D201  D(3,26,28,30)          -7.8456         estimate D2E/DX2                !
 ! D202  D(3,26,28,66)         134.884          estimate D2E/DX2                !
 ! D203  D(24,26,28,30)       -153.5571         estimate D2E/DX2                !
 ! D204  D(24,26,28,66)        -10.8275         estimate D2E/DX2                !
 ! D205  D(25,27,29,5)          -3.9448         estimate D2E/DX2                !
 ! D206  D(25,27,29,31)       -157.533          estimate D2E/DX2                !
 ! D207  D(65,27,29,5)         139.3829         estimate D2E/DX2                !
 ! D208  D(65,27,29,31)        -14.2053         estimate D2E/DX2                !
 ! D209  D(25,27,65,63)          4.0335         estimate D2E/DX2                !
 ! D210  D(25,27,65,67)        155.5899         estimate D2E/DX2                !
 ! D211  D(29,27,65,63)       -143.6829         estimate D2E/DX2                !
 ! D212  D(29,27,65,67)          7.8736         estimate D2E/DX2                !
 ! D213  D(26,28,30,7)           7.8841         estimate D2E/DX2                !
 ! D214  D(26,28,30,32)        152.9239         estimate D2E/DX2                !
 ! D215  D(66,28,30,7)        -134.5109         estimate D2E/DX2                !
 ! D216  D(66,28,30,32)         10.5289         estimate D2E/DX2                !
 ! D217  D(26,28,66,64)         10.7571         estimate D2E/DX2                !
 ! D218  D(26,28,66,68)       -145.9955         estimate D2E/DX2                !
 ! D219  D(30,28,66,64)        147.5804         estimate D2E/DX2                !
 ! D220  D(30,28,66,68)         -9.1722         estimate D2E/DX2                !
 ! D221  D(5,29,31,33)          -2.1666         estimate D2E/DX2                !
 ! D222  D(5,29,31,69)        -148.0164         estimate D2E/DX2                !
 ! D223  D(27,29,31,33)        151.8074         estimate D2E/DX2                !
 ! D224  D(27,29,31,69)          5.9576         estimate D2E/DX2                !
 ! D225  D(7,30,32,34)          -1.0858         estimate D2E/DX2                !
 ! D226  D(7,30,32,70)         140.4484         estimate D2E/DX2                !
 ! D227  D(28,30,32,34)       -142.963          estimate D2E/DX2                !
 ! D228  D(28,30,32,70)         -1.4288         estimate D2E/DX2                !
 ! D229  D(29,31,33,35)         -8.1537         estimate D2E/DX2                !
 ! D230  D(29,31,33,73)       -155.695          estimate D2E/DX2                !
 ! D231  D(69,31,33,35)        141.6595         estimate D2E/DX2                !
 ! D232  D(69,31,33,73)         -5.8818         estimate D2E/DX2                !
 ! D233  D(29,31,69,67)          9.1462         estimate D2E/DX2                !
 ! D234  D(29,31,69,71)        154.4143         estimate D2E/DX2                !
 ! D235  D(33,31,69,67)       -140.3659         estimate D2E/DX2                !
 ! D236  D(33,31,69,71)          4.9022         estimate D2E/DX2                !
 ! D237  D(30,32,34,36)          8.5413         estimate D2E/DX2                !
 ! D238  D(30,32,34,74)        154.2223         estimate D2E/DX2                !
 ! D239  D(70,32,34,36)       -136.0666         estimate D2E/DX2                !
 ! D240  D(70,32,34,74)          9.6144         estimate D2E/DX2                !
 ! D241  D(30,32,70,68)         -8.6768         estimate D2E/DX2                !
 ! D242  D(30,32,70,72)       -153.9988         estimate D2E/DX2                !
 ! D243  D(34,32,70,68)        136.5121         estimate D2E/DX2                !
 ! D244  D(34,32,70,72)         -8.8099         estimate D2E/DX2                !
 ! D245  D(31,33,35,9)          12.5546         estimate D2E/DX2                !
 ! D246  D(31,33,35,37)       -144.5414         estimate D2E/DX2                !
 ! D247  D(73,33,35,9)         155.0346         estimate D2E/DX2                !
 ! D248  D(73,33,35,37)         -2.0614         estimate D2E/DX2                !
 ! D249  D(31,33,73,71)          4.5703         estimate D2E/DX2                !
 ! D250  D(31,33,73,75)        146.8116         estimate D2E/DX2                !
 ! D251  D(35,33,73,71)       -142.4715         estimate D2E/DX2                !
 ! D252  D(35,33,73,75)         -0.2302         estimate D2E/DX2                !
 ! D253  D(32,34,36,12)         -9.769          estimate D2E/DX2                !
 ! D254  D(32,34,36,38)        144.7021         estimate D2E/DX2                !
 ! D255  D(74,34,36,12)       -149.8531         estimate D2E/DX2                !
 ! D256  D(74,34,36,38)          4.618          estimate D2E/DX2                !
 ! D257  D(32,34,74,72)         -6.5682         estimate D2E/DX2                !
 ! D258  D(32,34,74,76)       -149.2498         estimate D2E/DX2                !
 ! D259  D(36,34,74,72)        138.6944         estimate D2E/DX2                !
 ! D260  D(36,34,74,76)         -3.9873         estimate D2E/DX2                !
 ! D261  D(9,35,37,39)          -0.6604         estimate D2E/DX2                !
 ! D262  D(9,35,37,77)        -154.3859         estimate D2E/DX2                !
 ! D263  D(33,35,37,39)        155.5807         estimate D2E/DX2                !
 ! D264  D(33,35,37,77)          1.8552         estimate D2E/DX2                !
 ! D265  D(12,36,38,42)         -1.5687         estimate D2E/DX2                !
 ! D266  D(12,36,38,78)        153.0605         estimate D2E/DX2                !
 ! D267  D(34,36,38,42)       -155.3855         estimate D2E/DX2                !
 ! D268  D(34,36,38,78)         -0.7564         estimate D2E/DX2                !
 ! D269  D(35,37,39,43)          5.5134         estimate D2E/DX2                !
 ! D270  D(35,37,39,79)       -146.8413         estimate D2E/DX2                !
 ! D271  D(77,37,39,43)        159.5665         estimate D2E/DX2                !
 ! D272  D(77,37,39,79)          7.2118         estimate D2E/DX2                !
 ! D273  D(35,37,77,75)          0.5536         estimate D2E/DX2                !
 ! D274  D(35,37,77,81)        140.5307         estimate D2E/DX2                !
 ! D275  D(39,37,77,75)       -153.9033         estimate D2E/DX2                !
 ! D276  D(39,37,77,81)        -13.9261         estimate D2E/DX2                !
 ! D277  D(36,38,42,46)         -1.0157         estimate D2E/DX2                !
 ! D278  D(36,38,42,80)        151.0992         estimate D2E/DX2                !
 ! D279  D(78,38,42,46)       -155.8048         estimate D2E/DX2                !
 ! D280  D(78,38,42,80)         -3.6899         estimate D2E/DX2                !
 ! D281  D(36,38,78,76)         -3.7407         estimate D2E/DX2                !
 ! D282  D(36,38,78,81)       -143.745          estimate D2E/DX2                !
 ! D283  D(42,38,78,76)        151.561          estimate D2E/DX2                !
 ! D284  D(42,38,78,81)         11.5567         estimate D2E/DX2                !
 ! D285  D(37,39,43,2)        -147.9212         estimate D2E/DX2                !
 ! D286  D(37,39,43,13)         -2.8423         estimate D2E/DX2                !
 ! D287  D(79,39,43,2)           5.6246         estimate D2E/DX2                !
 ! D288  D(79,39,43,13)        150.7035         estimate D2E/DX2                !
 ! D289  D(37,39,79,40)        142.3056         estimate D2E/DX2                !
 ! D290  D(37,39,79,82)          3.1267         estimate D2E/DX2                !
 ! D291  D(43,39,79,40)        -10.7139         estimate D2E/DX2                !
 ! D292  D(43,39,79,82)       -149.8929         estimate D2E/DX2                !
 ! D293  D(44,40,41,45)         -1.2263         estimate D2E/DX2                !
 ! D294  D(44,40,41,80)       -147.3029         estimate D2E/DX2                !
 ! D295  D(79,40,41,45)        145.1592         estimate D2E/DX2                !
 ! D296  D(79,40,41,80)         -0.9174         estimate D2E/DX2                !
 ! D297  D(41,40,44,2)         143.8041         estimate D2E/DX2                !
 ! D298  D(41,40,44,47)         -4.707          estimate D2E/DX2                !
 ! D299  D(79,40,44,2)           1.6981         estimate D2E/DX2                !
 ! D300  D(79,40,44,47)       -146.8131         estimate D2E/DX2                !
 ! D301  D(41,40,79,39)       -139.044          estimate D2E/DX2                !
 ! D302  D(41,40,79,82)          4.758          estimate D2E/DX2                !
 ! D303  D(44,40,79,39)          7.2872         estimate D2E/DX2                !
 ! D304  D(44,40,79,82)        151.0892         estimate D2E/DX2                !
 ! D305  D(40,41,45,4)        -143.0995         estimate D2E/DX2                !
 ! D306  D(40,41,45,48)          5.6672         estimate D2E/DX2                !
 ! D307  D(80,41,45,4)          -1.2119         estimate D2E/DX2                !
 ! D308  D(80,41,45,48)        147.5549         estimate D2E/DX2                !
 ! D309  D(40,41,80,42)        140.7455         estimate D2E/DX2                !
 ! D310  D(40,41,80,82)         -3.3077         estimate D2E/DX2                !
 ! D311  D(45,41,80,42)         -5.0798         estimate D2E/DX2                !
 ! D312  D(45,41,80,82)       -149.1329         estimate D2E/DX2                !
 ! D313  D(38,42,46,4)         146.8958         estimate D2E/DX2                !
 ! D314  D(38,42,46,14)          3.0708         estimate D2E/DX2                !
 ! D315  D(80,42,46,4)          -6.3941         estimate D2E/DX2                !
 ! D316  D(80,42,46,14)       -150.2191         estimate D2E/DX2                !
 ! D317  D(38,42,80,41)       -144.3879         estimate D2E/DX2                !
 ! D318  D(38,42,80,82)         -5.0452         estimate D2E/DX2                !
 ! D319  D(46,42,80,41)          8.6749         estimate D2E/DX2                !
 ! D320  D(46,42,80,82)        148.0177         estimate D2E/DX2                !
 ! D321  D(2,44,47,48)        -142.4422         estimate D2E/DX2                !
 ! D322  D(2,44,47,49)          -0.7032         estimate D2E/DX2                !
 ! D323  D(40,44,47,48)          6.1123         estimate D2E/DX2                !
 ! D324  D(40,44,47,49)        147.8512         estimate D2E/DX2                !
 ! D325  D(4,45,48,47)         144.4515         estimate D2E/DX2                !
 ! D326  D(4,45,48,50)           1.7346         estimate D2E/DX2                !
 ! D327  D(41,45,48,47)         -4.2453         estimate D2E/DX2                !
 ! D328  D(41,45,48,50)       -146.9622         estimate D2E/DX2                !
 ! D329  D(44,47,48,45)         -1.6912         estimate D2E/DX2                !
 ! D330  D(44,47,48,50)        145.1987         estimate D2E/DX2                !
 ! D331  D(49,47,48,45)       -147.7981         estimate D2E/DX2                !
 ! D332  D(49,47,48,50)         -0.9082         estimate D2E/DX2                !
 ! D333  D(44,47,49,10)         -2.7886         estimate D2E/DX2                !
 ! D334  D(44,47,49,56)       -147.9185         estimate D2E/DX2                !
 ! D335  D(48,47,49,10)        142.8999         estimate D2E/DX2                !
 ! D336  D(48,47,49,56)         -2.23           estimate D2E/DX2                !
 ! D337  D(45,48,50,11)          5.2817         estimate D2E/DX2                !
 ! D338  D(45,48,50,56)        150.4094         estimate D2E/DX2                !
 ! D339  D(47,48,50,11)       -141.4571         estimate D2E/DX2                !
 ! D340  D(47,48,50,56)          3.6706         estimate D2E/DX2                !
 ! D341  D(10,49,56,50)       -141.3569         estimate D2E/DX2                !
 ! D342  D(10,49,56,55)          3.0716         estimate D2E/DX2                !
 ! D343  D(47,49,56,50)          4.5753         estimate D2E/DX2                !
 ! D344  D(47,49,56,55)        149.0038         estimate D2E/DX2                !
 ! D345  D(11,50,56,49)        140.4843         estimate D2E/DX2                !
 ! D346  D(11,50,56,55)         -4.2916         estimate D2E/DX2                !
 ! D347  D(48,50,56,49)         -5.1255         estimate D2E/DX2                !
 ! D348  D(48,50,56,55)       -149.9014         estimate D2E/DX2                !
[...]
 Alpha virt. eigenvalues --    1.14560   1.14819   1.14986   1.15238   1.15996
 Alpha virt. eigenvalues --    1.16080   1.16316   1.16495   1.16662   1.16911
 Alpha virt. eigenvalues --    1.17091   1.17431   1.17558   1.17808   1.18107
 Alpha virt. eigenvalues --    1.18440   1.18629   1.18725   1.18846   1.19313
 Alpha virt. eigenvalues --    1.19597   1.19773   1.20270   1.20346   1.20737
 Alpha virt. eigenvalues --    1.21111   1.21306   1.21485   1.22132   1.22439
 Alpha virt. eigenvalues --    1.22462   1.22625   1.23168   1.23493   1.24025
 Alpha virt. eigenvalues --    1.24165   1.24855   1.25360   1.25477   1.25686
 Alpha virt. eigenvalues --    1.25859   1.26310   1.26927   1.27061   1.27136
 Alpha virt. eigenvalues --    1.27379   1.27614   1.28116   1.28276   1.28634
 Alpha virt. eigenvalues --    1.28801   1.28973   1.29569   1.29769   1.29903
 Alpha virt. eigenvalues --    1.30217   1.30530   1.30731   1.31013   1.31568
 Alpha virt. eigenvalues --    1.31859   1.32112   1.32533   1.33109   1.33567
 Alpha virt. eigenvalues --    1.33710   1.33834   1.34494   1.34708   1.34929
 Alpha virt. eigenvalues --    1.35545   1.35963   1.36357   1.37160   1.37304
 Alpha virt. eigenvalues --    1.37676   1.38197   1.38522   1.39273   1.39390
 Alpha virt. eigenvalues --    1.39844   1.40366   1.41194   1.41470   1.42147
 Alpha virt. eigenvalues --    1.42663   1.43324   1.43828   1.44456   1.45165
 Alpha virt. eigenvalues --    1.46156   1.46665   1.46942   1.47245   1.47852
 Alpha virt. eigenvalues --    1.48552   1.48811   1.48984   1.49553   1.50646
 Alpha virt. eigenvalues --    1.51055   1.51613   1.51831   1.52174   1.52770
 Alpha virt. eigenvalues --    1.53447   1.53968   1.54366   1.54813   1.55049
 Alpha virt. eigenvalues --    1.55582   1.55784   1.56277   1.56414   1.56897
 Alpha virt. eigenvalues --    1.57164   1.57951   1.58236   1.58761   1.59026
 Alpha virt. eigenvalues --    1.59593   1.60117   1.60396   1.61220   1.62334
 Alpha virt. eigenvalues --    1.62990   1.63421   1.63723   1.63834   1.64578
 Alpha virt. eigenvalues --    1.65036   1.65070   1.65459   1.65547   1.65752
 Alpha virt. eigenvalues --    1.66156   1.66464   1.66728   1.66851   1.67163
 Alpha virt. eigenvalues --    1.67309   1.67650   1.68212   1.68262   1.68723
 Alpha virt. eigenvalues --    1.69299   1.69706   1.69850   1.70016   1.70203
 Alpha virt. eigenvalues --    1.70572   1.70752   1.71077   1.71212   1.71345
 Alpha virt. eigenvalues --    1.71532   1.71749   1.71907   1.72054   1.72223
 Alpha virt. eigenvalues --    1.72584   1.72870   1.72929   1.73199   1.73373
 Alpha virt. eigenvalues --    1.73727   1.73799   1.74125   1.74326   1.74368
 Alpha virt. eigenvalues --    1.74810   1.75170   1.75281   1.75644   1.75896
 Alpha virt. eigenvalues --    1.76121   1.76285   1.76652   1.76799   1.77048
 Alpha virt. eigenvalues --    1.77271   1.77526   1.77706   1.77903   1.78352
 Alpha virt. eigenvalues --    1.78502   1.78731   1.78978   1.79427   1.79532
 Alpha virt. eigenvalues --    1.79879   1.80082   1.81001   1.81559   1.82333
 Alpha virt. eigenvalues --    1.82850   1.83089   1.83270   1.84174   1.84495
 Alpha virt. eigenvalues --    1.84831   1.85150   1.85850   1.86010   1.86569
 Alpha virt. eigenvalues --    1.86864   1.87679   1.88852   1.88875   1.89894
 Alpha virt. eigenvalues --    1.90495   1.91014   1.91387   1.91998   1.92370
 Alpha virt. eigenvalues --    1.92551   1.93477   1.93685   1.93896   1.94189
 Alpha virt. eigenvalues --    1.94275   1.94480   1.95033   1.95502   1.95633
 Alpha virt. eigenvalues --    1.95985   1.96057   1.96486   1.96845   1.97161
 Alpha virt. eigenvalues --    1.97421   1.97607   1.97733   1.97952   1.98178
 Alpha virt. eigenvalues --    1.98826   1.99028   1.99158   1.99409   1.99537
 Alpha virt. eigenvalues --    1.99707   1.99965   2.00161   2.00244   2.00332
 Alpha virt. eigenvalues --    2.00672   2.00723   2.00914   2.01350   2.01515
 Alpha virt. eigenvalues --    2.01819   2.01898   2.02173   2.02371   2.02677
 Alpha virt. eigenvalues --    2.02836   2.03027   2.03110   2.03329   2.03544
 Alpha virt. eigenvalues --    2.03741   2.04108   2.04580   2.04850   2.05190
 Alpha virt. eigenvalues --    2.05382   2.05750   2.06016   2.06263   2.06417
 Alpha virt. eigenvalues --    2.07195   2.07681   2.07811   2.08133   2.08482
 Alpha virt. eigenvalues --    2.08613   2.09510   2.10580   2.11193   2.12054
 Alpha virt. eigenvalues --    2.12248   2.12628   2.12811   2.13481   2.13725
 Alpha virt. eigenvalues --    2.14305   2.14340   2.14376   2.15526   2.15709
 Alpha virt. eigenvalues --    2.16276   2.16857   2.17310   2.17407   2.17524
 Alpha virt. eigenvalues --    2.18707   2.19185   2.19434   2.19914   2.20743
 Alpha virt. eigenvalues --    2.21187   2.21562   2.22176   2.22517   2.22776
 Alpha virt. eigenvalues --    2.23088   2.23315   2.23426   2.24091   2.24688
 Alpha virt. eigenvalues --    2.24696   2.25181   2.25496   2.25720   2.25864
 Alpha virt. eigenvalues --    2.26265   2.26682   2.27232   2.27962   2.28178
 Alpha virt. eigenvalues --    2.28498   2.29013   2.29124   2.29206   2.29725
 Alpha virt. eigenvalues --    2.30209   2.30498   2.30808   2.31437   2.31650
 Alpha virt. eigenvalues --    2.32234   2.32375   2.33235   2.33769   2.34529
 Alpha virt. eigenvalues --    2.34930   2.35674   2.36539   2.37268   2.37821
 Alpha virt. eigenvalues --    2.38289   2.39195   2.39757   2.40345   2.40422
 Alpha virt. eigenvalues --    2.40653   2.41406   2.41773   2.42136   2.42454
 Alpha virt. eigenvalues --    2.43157   2.43776   2.44276   2.44722   2.44835
 Alpha virt. eigenvalues --    2.45270   2.45474   2.45627   2.46537   2.47513
 Alpha virt. eigenvalues --    2.47615   2.49494   2.49814   2.50655   2.50950
 Alpha virt. eigenvalues --    2.51321   2.52024   2.52099   2.52961   2.53073
 Alpha virt. eigenvalues --    2.54126   2.54377   2.54732   2.55209   2.55281
 Alpha virt. eigenvalues --    2.55372   2.55739   2.56074   2.56323   2.56805
 Alpha virt. eigenvalues --    2.57011   2.57314   2.57703   2.57985   2.58306
 Alpha virt. eigenvalues --    2.58529   2.58657   2.59184   2.59404   2.59638
 Alpha virt. eigenvalues --    2.60046   2.60321   2.60491   2.60756   2.60866
 Alpha virt. eigenvalues --    2.61269   2.61549   2.62022   2.62213   2.62653
 Alpha virt. eigenvalues --    2.63175   2.63381   2.63849   2.63930   2.64248
 Alpha virt. eigenvalues --    2.64528   2.64892   2.65131   2.65707   2.65942
 Alpha virt. eigenvalues --    2.66106   2.66475   2.66698   2.66941   2.67453
 Alpha virt. eigenvalues --    2.67649   2.68062   2.68576   2.68759   2.69155
 Alpha virt. eigenvalues --    2.69419   2.70171   2.70600   2.70937   2.71438
 Alpha virt. eigenvalues --    2.72445   2.72684   2.72925   2.73326   2.73777
 Alpha virt. eigenvalues --    2.74852   2.75055   2.75800   2.76379   2.76805
 Alpha virt. eigenvalues --    2.77371   2.77857   2.78192   2.79130   2.79294
 Alpha virt. eigenvalues --    2.79635   2.79877   2.80609   2.81127   2.81359
 Alpha virt. eigenvalues --    2.81505   2.81924   2.82331   2.82816   2.83296
 Alpha virt. eigenvalues --    2.83755   2.83985   2.84681   2.84874   2.85153
 Alpha virt. eigenvalues --    2.85800   2.85876   2.86375   2.86638   2.87448
 Alpha virt. eigenvalues --    2.88258   2.88386   2.88855   2.89507   2.90180
 Alpha virt. eigenvalues --    2.90451   2.90615   2.91329   2.91430   2.91631
 Alpha virt. eigenvalues --    2.91888   2.92480   2.92657   2.93212   2.93687
 Alpha virt. eigenvalues --    2.93879   2.94469   2.94701   2.95621   2.96205
 Alpha virt. eigenvalues --    2.96614   2.96735   2.98547   2.99001   2.99825
 Alpha virt. eigenvalues --    3.00484   3.01209   3.02469   3.02736   3.02940
 Alpha virt. eigenvalues --    3.03695   3.04879   3.06149   3.07271   3.07682
 Alpha virt. eigenvalues --    3.11351   3.12081   3.14421   3.15354   3.16771
 Alpha virt. eigenvalues --    3.17777   3.19167   3.20554   3.22343   3.24943
 Alpha virt. eigenvalues --    3.25855   3.26486   3.28650   3.29279   3.31348
 Alpha virt. eigenvalues --    3.32992   3.34251   3.36159   3.37113   3.37798
 Alpha virt. eigenvalues --    3.39819   3.41193   3.43692   3.44394   3.45123
 Alpha virt. eigenvalues --    3.46820   3.47888   3.48885   3.51351   3.55266
 Alpha virt. eigenvalues --    3.55826   3.57681   3.61002   4.01315   4.01658
 Alpha virt. eigenvalues --    4.02091   4.02756   4.02821   4.03872   4.04597
 Alpha virt. eigenvalues --    4.04869   4.05243   4.06282   4.06670   4.06939
 Alpha virt. eigenvalues --    4.06947   4.07417   4.08352   4.08812   4.09796
 Alpha virt. eigenvalues --    4.10368   4.11189   4.11577   4.12199   4.13336
 Alpha virt. eigenvalues --    4.13544   4.14024   4.16100   4.17257   4.17783
 Alpha virt. eigenvalues --    4.19327   4.19738   4.20146   4.21178   4.21725
 Alpha virt. eigenvalues --    4.21948   4.22163   4.22542   4.24880   4.26930
 Alpha virt. eigenvalues --    4.27235   4.28965   4.29379   4.29594   4.30165
 Alpha virt. eigenvalues --    4.31492   4.31947   4.32389   4.34716   4.38044
 Alpha virt. eigenvalues --    4.38552   4.40402   4.41328   4.44155   4.45294
 Alpha virt. eigenvalues --    4.46430   4.47382   4.49526   4.51597   4.51750
 Alpha virt. eigenvalues --    4.52348   4.53114   4.55981   4.57201   4.57841
 Alpha virt. eigenvalues --    4.60422   4.62587   4.64597   4.66680   4.67240
 Alpha virt. eigenvalues --    4.69738   4.71414   4.73044   4.79462   4.81647
 Alpha virt. eigenvalues --    4.83240   4.85339   4.86189   4.89002   4.93086
 Alpha virt. eigenvalues --    4.96667   5.01074   5.03999   5.06373   5.14541
 Alpha virt. eigenvalues --    5.16667   5.19142   5.21593   5.24988
          Condensed to atoms (all electrons):
 Mulliken charges:
               1
     1  C   -0.025709
     2  C   -0.023390
     3  C   -0.022190
     4  C   -0.032089
     5  C    0.049297
     6  C   -0.023818
     7  C   -0.022730
     8  C   -0.031475
     9  C    0.038955
    10  C    0.063389
    11  C    0.057565
    12  C    0.054313
    13  C   -0.027192
    14  C   -0.031828
    15  C   -0.013289
    16  C   -0.032157
    17  C   -0.011916
    18  C    0.051678
    19  C   -0.014500
    20  C    0.035168
    21  C   -0.040266
    22  C    0.011476
    23  C    0.003718
    24  C    0.075852
    25  C    0.076139
    26  C   -0.000390
    27  C    0.016285
    28  C   -0.039522
    29  C    0.040916
    30  C   -0.010195
    31  C   -0.029297
    32  C   -0.012190
    33  C   -0.025332
    34  C   -0.022188
    35  C    0.042602
    36  C    0.045269
    37  C    0.041433
    38  C    0.041452
    39  C    0.054543
    40  C   -0.026511
    41  C   -0.025365
    42  C    0.063419
    43  C   -0.031747
    44  C    0.066078
    45  C    0.070898
    46  C   -0.036887
    47  C   -0.021787
    48  C   -0.022947
    49  C   -0.025208
    50  C   -0.025050
    51  C    0.052218
    52  C    0.048382
    53  C   -0.021547
    54  C   -0.020439
    55  C   -0.002641
    56  C   -0.016330
    57  C    0.084888
    58  C    0.018784
    59  C    0.121823
    60  C    0.080625
    61  C   -0.362707
    62  C   -0.359260
    63  C    0.075855
    64  C    0.119408
    65  C    0.002559
    66  C    0.069747
    67  C    0.044117
    68  C    0.040726
    69  C   -0.018765
    70  C   -0.023794
    71  C   -0.010177
    72  C    0.006994
    73  C   -0.011555
    74  C   -0.009641
    75  C   -0.000068
    76  C   -0.000866
    77  C   -0.023988
    78  C   -0.022467
    79  C   -0.020261
    80  C   -0.024383
    81  C    0.001657
    82  C   -0.025374
    83  C   -0.023933
    84  C   -0.021050
    85  Cl  -0.019367
    86  Cl  -0.022452
 Sum of Mulliken charges =  -0.00000
 Mulliken charges with hydrogens summed into heavy atoms:
               1
     1  C   -0.025709
     2  C   -0.023390
     3  C   -0.022190
     4  C   -0.032089
     5  C    0.049297
     6  C   -0.023818
     7  C   -0.022730
     8  C   -0.031475
     9  C    0.038955
    10  C    0.063389
    11  C    0.057565
    12  C    0.054313
    13  C   -0.027192
    14  C   -0.031828
    15  C   -0.013289
    16  C   -0.032157
    17  C   -0.011916
    18  C    0.051678
    19  C   -0.014500
    20  C    0.035168
    21  C   -0.040266
    22  C    0.011476
    23  C    0.003718
    24  C    0.075852
    25  C    0.076139
    26  C   -0.000390
    27  C    0.016285
    28  C   -0.039522
    29  C    0.040916
    30  C   -0.010195
    31  C   -0.029297
    32  C   -0.012190
    33  C   -0.025332
    34  C   -0.022188
    35  C    0.042602
    36  C    0.045269
    37  C    0.041433
    38  C    0.041452
    39  C    0.054543
    40  C   -0.026511
    41  C   -0.025365
    42  C    0.063419
    43  C   -0.031747
    44  C    0.066078
    45  C    0.070898
    46  C   -0.036887
    47  C   -0.021787
    48  C   -0.022947
    49  C   -0.025208
    50  C   -0.025050
    51  C    0.052218
    52  C    0.048382
    53  C   -0.021547
    54  C   -0.020439
    55  C   -0.002641
    56  C   -0.016330
    57  C    0.084888
    58  C    0.018784
    59  C    0.121823
    60  C    0.080625
    61  C   -0.362707
    62  C   -0.359260
    63  C    0.075855
    64  C    0.119408
    65  C    0.002559
    66  C    0.069747
    67  C    0.044117
    68  C    0.040726
    69  C   -0.018765
    70  C   -0.023794
    71  C   -0.010177
    72  C    0.006994
    73  C   -0.011555
    74  C   -0.009641
    75  C   -0.000068
    76  C   -0.000866
    77  C   -0.023988
    78  C   -0.022467
    79  C   -0.020261
    80  C   -0.024383
    81  C    0.001657
    82  C   -0.025374
    83  C   -0.023933
    84  C   -0.021050
    85  Cl  -0.019367
    86  Cl  -0.022452
 Electronic spatial extent (au):  <R**2>=          37557.9134
 Charge=              0.0000 electrons
 Dipole moment (field-independent basis, Debye):
    X=             -2.9930    Y=             -0.0983    Z=             -0.6403  Tot=              3.0623
 Quadrupole moment (field-independent basis, Debye-Ang):
   XX=           -502.6586   YY=           -473.8625   ZZ=           -479.0614
   XY=              4.3444   XZ=              2.2725   YZ=              2.4654
 Traceless Quadrupole moment (field-independent basis, Debye-Ang):
   XX=            -17.4644   YY=             11.3317   ZZ=              6.1328
   XY=              4.3444   XZ=              2.2725   YZ=              2.4654
 Octapole moment (field-independent basis, Debye-Ang**2):
  XXX=            -58.9813  YYY=             -8.7187  ZZZ=            -11.3847  XYY=             26.7318
  XXY=              0.4938  XXZ=             -3.0885  XZZ=             19.0314  YZZ=             -0.3227
  YYZ=             -3.2753  XYZ=              8.5595
 Hexadecapole moment (field-independent basis, Debye-Ang**3):
 XXXX=         -22785.9491 YYYY=         -17619.2073 ZZZZ=         -15803.5145 XXXY=             50.5297
 XXXZ=             18.1895 YYYX=              9.4757 YYYZ=            -10.8013 ZZZX=             21.8918
 ZZZY=              3.3663 XXYY=          -6606.0158 XXZZ=          -6388.0206 YYZZ=          -5568.4210
 XXYZ=             37.2337 YYXZ=             -2.1102 ZZXY=              7.9337
 N-N= 1.559411345699D+04 E-N=-4.078160451865D+04  KE= 4.088611366660D+03
 No NMR shielding tensors so no spin-rotation constants.
 Leave Link  601 at Mon Jun 27 19:47:38 2022, MaxMem=  1342177280 cpu:              22.1 elap:               1.1
 (Enter /home/mkliu/g16/l9999.exe)
 1\1\GINC-NODE05\FOpt\RB3LYP\6-31G(d,p)\C84Cl2\MKLIU\27-Jun-2022\0\\#P 
 opt b3lyp/6-31G(d, p) empiricaldispersion=GD3\\force\\0,1\C,8.53888456
 93,18.9648910308,10.7842015076\C,12.4563060229,20.1979389493,8.8914041
 159\C,8.2983856037,26.7942218623,10.5628011479\C,12.355197442,25.53785
 22491,8.9043595957\C,8.0582683256,19.1378874353,9.4631526992\C,12.0856
 478598,19.737980686,10.1921088965\C,7.9838427888,26.8161622866,9.16721
 19301\C,11.8854982051,25.9300449581,10.2013125759\C,9.0265343481,19.21
 70118093,8.3676526967\C,12.3453698621,20.4973431253,11.3589608892\C,12
 .1450054907,25.1612122801,11.3516028602\C,8.9785022454,26.6358997798,8
 .1742666452\C,10.3934020796,19.0956489398,8.6907009999\C,10.3158584058
 ,26.6446023153,8.6420119996\C,10.8455982235,18.994045784,10.0465050665
 \C,10.6319932501,26.6354031694,10.0285900517\C,9.9364933289,18.9423139
 037,11.0768785769\C,9.6272916601,26.6080600937,11.026146238\C,10.18758
 63429,19.6664618145,12.3161332099\C,9.8661770964,25.8405988024,12.2405
 420887\C,8.9306237946,20.0633525432,12.8374284327\C,8.7155901811,25.35
 95179393,12.9229904285\C,7.8918239666,19.5771945352,11.9255195906\C,7.
 3883858414,25.515253915,12.4102657451\C,6.7190219862,20.2530038935,11.
 7758256277\C,7.1817236019,26.1901514057,11.2510763576\C,6.1532774804,2
 0.3801434236,10.4758016326\C,6.2083200091,25.7336732326,10.261609595\C
 ,6.7737874264,19.8025239027,9.3272946778\C,6.6684582861,26.2247012959,
 9.0098119036\C,6.4278944169,20.3727294949,8.0912474739\C,6.3512915054,
 25.5683370166,7.8375067745\C,7.354137784,20.3601331438,6.9701656161\C,
 7.3219510535,25.4793532836,6.7581606227\C,8.6876535491,19.9163111256,7
 .1253190918\C,8.662794528,25.9058970881,6.9370427763\C,9.732011892,20.
 5909162746,6.3486386122\C,9.723501324,25.1633483434,6.2535069906\C,11.
 1162955798,20.5738809166,6.8264786998\C,12.9206061372,22.1498798413,7.
 521478989\C,12.8994500355,23.6158166649,7.5243773844\C,11.0980067962,2
 5.1813303882,6.7907886247\C,11.418863591,19.8067033927,7.9601296252\C,
 13.1622175402,21.4222391593,8.7176366724\C,13.1016236315,24.3400936124
 ,8.7315741217\C,11.3692088028,25.9439565416,7.9398431311\C,13.50555190
 05,22.1460197524,9.8936599776\C,13.4562944137,23.616983647,9.901066667
 5\C,13.1338873565,21.6816840433,11.1754673605\C,13.0380720971,24.04605
 60411,11.1837020399\C,11.362693272,20.4694578245,12.4527501395\C,11.12
 63629012,25.1135903796,12.4096953857\C,11.220152335,21.6145808317,13.2
 735641146\C,11.1307820573,23.9837741263,13.2601380495\C,11.9738035642,
 22.8267884733,12.9977186106\C,12.9001871776,22.8579282183,11.994830686
 3\C,8.7543172676,21.3039445849,13.5101663873\C,8.7378655515,24.1348188
 405,13.6607883535\C,7.5034851748,22.0487149858,13.3539056818\C,7.50872
 24047,23.4159151111,13.4665421474\C,6.3170456542,21.4201571137,12.6519
 211784\C,6.4940956974,24.3585280564,12.8174607156\C,5.6884612609,22.35
 8129594,11.6169563013\C,5.7975472789,23.7216316233,11.6205636952\C,5.4
 734281465,21.6337001762,10.3962484133\C,5.5995863308,24.4612740536,10.
 3749018225\C,5.2592735252,22.2889379321,9.1649381868\C,5.288262651,23.
 7436907594,9.1423714709\C,5.612470313,21.5447161835,7.9995672971\C,5.5
 838404859,24.3649250947,7.8955401098\C,5.9457435759,22.2110572834,6.76
 96108066\C,5.9354746784,23.5908091963,6.7227476705\C,7.0076498066,21.4
 607258031,6.1233093455\C,6.9936092988,24.299723623,6.0146185898\C,8.00
 4126441,22.1278581385,5.4275655534\C,8.0001669315,23.5894055495,5.3822
 107494\C,9.3504440335,21.674104486,5.5131472926\C,9.3501436001,24.0484
 489499,5.4616966696\C,11.974294288,21.6988995674,6.5713461826\C,11.961
 2808356,24.0566295123,6.5578047853\C,10.1907474903,22.8583548407,5.401
 5605852\C,11.4534483342,22.8716069452,5.9098058267\C,9.9482618401,22.0
 18914909,13.7849172281\C,9.9294542563,23.4633218927,13.8334371644\Cl,5
 .0427728532,20.8837944604,13.8999412481\Cl,5.2252975937,24.9156069987,
 14.0633560719\\Version=ES64L-G16RevA.03\State=1-A\HF=-4121.4143906\RMS
 D=6.079e-09\RMSF=7.894e-05\Dipole=0.653799,-0.2183384,-0.9881347\Quadr
 upole=-3.6498932,3.8382708,-0.1883776,-0.2629981,11.5201418,0.0040088\
 PG=C01 [X(C84Cl2)]\\@


 A people that values its privileges above its principles soon loses both.
 -- Dwight D. Eisenhower
 Job cpu time:       1 days  0 hours 24 minutes 16.8 seconds.
 Elapsed time:       0 days  1 hours  1 minutes  6.4 seconds.
 File lengths (MBytes):  RWF=   1037 Int=      0 D2E=      0 Chk=    131 Scr=      1
 Normal termination of Gaussian 16 at Mon Jun 27 19:47:40 2022.
