 Entering Gaussian System, Link 0=g16
 Input=4_addons_C84_11_mirror_Cl22_rank_7.gjf
 Output=4_addons_C84_11_mirror_Cl22_rank_7.log
 Initial command:
 /home/mkliu/g16/l1.exe "/data/scratch/Gau-23181.inp" -scrdir="/data/scratch/"
 Entering Link 1 = /home/mkliu/g16/l1.exe PID=     23182.
  
 Copyright (c) 1988,1990,1992,1993,1995,1998,2003,2009,2016,
            Gaussian, Inc.  All Rights Reserved.
  
 This is part of the Gaussian(R) 16 program.  It is based on
 the Gaussian(R) 09 system (copyright 2009, Gaussian, Inc.),
 the Gaussian(R) 03 system (copyright 2003, Gaussian, Inc.),
 the Gaussian(R) 98 system (copyright 1998, Gaussian, Inc.),
 the Gaussian(R) 94 system (copyright 1995, Gaussian, Inc.),
 the Gaussian 92(TM) system (copyright 1992, Gaussian, Inc.),
 the Gaussian 90(TM) system (copyright 1990, Gaussian, Inc.),
 the Gaussian 88(TM) system (copyright 1988, Gaussian, Inc.),
 the Gaussian 86(TM) system (copyright 1986, Carnegie Mellon
 University), and the Gaussian 82(TM) system (copyright 1983,
 Carnegie Mellon University). Gaussian is a federally registered
 trademark of Gaussian, Inc.
  
 This software contains proprietary and confidential information,
 including trade secrets, belonging to Gaussian, Inc.
  
 This software is provided under written license and may be
 used, copied, transmitted, or stored only in accord with that
 written license.
  
 The following legend is applicable only to US Government
 contracts under FAR:
  
                    RESTRICTED RIGHTS LEGEND
  
 Use, reproduction and disclosure by the US Government is
 subject to restrictions as set forth in subparagraphs (a)
 and (c) of the Commercial Computer Software - Restricted
 Rights clause in FAR 52.227-19.
  
 Gaussian, Inc.
 340 Quinnipiac St., Bldg. 40, Wallingford CT 06492
  
  
 ---------------------------------------------------------------
 Warning -- This program may not be used in any manner that
 competes with the business of Gaussian, Inc. or will provide
 assistance to any competitor of Gaussian, Inc.  The licensee
 of this program is prohibited from giving any competitor of
 Gaussian, Inc. access to this program.  By using this program,
 the user acknowledges that Gaussian, Inc. is engaged in the
 business of creating and licensing software in the field of
 computational chemistry and represents and warrants to the
 licensee that it is not a competitor of Gaussian, Inc. and that
 it will not use this program in any manner prohibited above.
 ---------------------------------------------------------------
  

 Cite this work as:
 Gaussian 16, Revision A.03,
 M. J. Frisch, G. W. Trucks, H. B. Schlegel, G. E. Scuseria, 
 M. A. Robb, J. R. Cheeseman, G. Scalmani, V. Barone, 
 G. A. Petersson, H. Nakatsuji, X. Li, M. Caricato, A. V. Marenich, 
 J. Bloino, B. G. Janesko, R. Gomperts, B. Mennucci, H. P. Hratchian, 
 J. V. Ortiz, A. F. Izmaylov, J. L. Sonnenberg, D. Williams-Young, 
 F. Ding, F. Lipparini, F. Egidi, J. Goings, B. Peng, A. Petrone, 
 T. Henderson, D. Ranasinghe, V. G. Zakrzewski, J. Gao, N. Rega, 
 G. Zheng, W. Liang, M. Hada, M. Ehara, K. Toyota, R. Fukuda, 
 J. Hasegawa, M. Ishida, T. Nakajima, Y. Honda, O. Kitao, H. Nakai, 
 T. Vreven, K. Throssell, J. A. Montgomery, Jr., J. E. Peralta, 
 F. Ogliaro, M. J. Bearpark, J. J. Heyd, E. N. Brothers, K. N. Kudin, 
 V. N. Staroverov, T. A. Keith, R. Kobayashi, J. Normand, 
 K. Raghavachari, A. P. Rendell, J. C. Burant, S. S. Iyengar, 
 J. Tomasi, M. Cossi, J. M. Millam, M. Klene, C. Adamo, R. Cammi, 
 J. W. Ochterski, R. L. Martin, K. Morokuma, O. Farkas, 
 J. B. Foresman, and D. J. Fox, Gaussian, Inc., Wallingford CT, 2016.
 
 ******************************************
 Gaussian 16:  ES64L-G16RevA.03 25-Dec-2016
                28-Jun-2022 
 ******************************************
 %mem=10GB
 %chk=4_addons_C84_11_mirror_Cl22_rank_7.chk
 %nprocshared=24
 Will use up to   24 processors via shared memory.
 ------------------------------------------------
 #P opt b3lyp/6-31G(d, p) empiricaldispersion=GD3
 ------------------------------------------------
 1/18=20,19=15,26=3,38=1/1,3;
 2/9=110,12=2,17=6,18=5,40=1/2;
 3/5=1,6=6,7=101,11=2,25=1,30=1,71=1,74=-5,124=31/1,2,3;
 4//1;
 5/5=2,38=5/2;
 6/7=2,8=2,9=2,10=2,28=1/1;
 7//1,2,3,16;
 1/18=20,19=15,26=3/3(2);
 2/9=110/2;
 99//99;
 2/9=110/2;
 3/5=1,6=6,7=101,11=2,25=1,30=1,71=1,74=-5,124=31/1,2,3;
 4/5=5,16=3,69=1/1;
 5/5=2,38=5/2;
 7//1,2,3,16;
 1/18=20,19=15,26=3/3(-5);
 2/9=110/2;
 6/7=2,8=2,9=2,10=2,19=2,28=1/1;
 99/9=1/99;
 Leave Link    1 at Tue Jun 28 13:43:13 2022, MaxMem=  1342177280 cpu:               0.6 elap:               0.1
 (Enter /home/mkliu/g16/l101.exe)
 -----
 force
 -----
 Symbolic Z-matrix:
 Charge =  0 Multiplicity = 1
 C                     8.52814   18.99467   10.78915 
 C                     12.61438   20.05401   8.85213 
 C                     8.29165   26.76462   10.5627 
 C                     12.48719   25.67426   8.87421 
 C                     8.05261   19.17929   9.47719 
 C                     12.06367   19.77873   10.23193 
 C                     7.97929   26.78081   9.17295 
 C                     11.84138   25.89249   10.22326 
 C                     9.00832   19.28125   8.39546 
 C                     12.29199   20.51826   11.36191 
 C                     12.07663   25.12255   11.35652 
 C                     8.95885   26.56832   8.18184 
 C                     10.38337   19.18786   8.71422 
 C                     10.28351   26.54592   8.65222 
 C                     10.83777   19.07051   10.06677 
 C                     10.60347   26.54782   10.03933 
 C                     9.92604   18.99351   11.08689 
 C                     9.60448   26.55972   11.03721 
 C                     10.16882   19.70204   12.3041 
 C                     9.84125   25.82259   12.25341 
 C                     8.89467   20.08719   12.82645 
 C                     8.70505   25.36763   12.95389 
 C                     7.88984   19.59516   11.92359 
 C                     7.38414   25.48128   12.39739 
 C                     6.70839   20.28398   11.76708 
 C                     7.17367   26.17847   11.24 
 C                     6.12033   20.37263   10.47104 
 C                     6.21475   25.71497   10.27072 
 C                     6.76388   19.8171   9.34382 
 C                     6.66986   26.21345   9.01682 
 C                     6.43099   20.398    8.11293 
 C                     6.35005   25.55606   7.85784 
 C                     7.34111   20.38532   7.01114 
 C                     7.30585   25.45742   6.78207 
 C                     8.67633   19.94912   7.16811 
 C                     8.64587   25.85861   6.96534 
 C                     9.70282   20.61548   6.40123 
 C                     9.69019   25.1182   6.29465 
 C                     11.06804   20.60956   6.86726 
 C                     12.83217   22.18569   7.58302 
 C                     12.84806   23.60082   7.57098 
 C                     11.04109   25.14269   6.82142 
 C                     11.39008   19.83649   7.98172 
 C                     13.11614   21.45633   8.74932 
 C                     13.04791   24.30117   8.73603 
 C                     11.31586   25.87826   7.9377 
 C                     13.43589   22.16134   9.8845 
 C                     13.35097   23.57495   9.89808 
 C                     13.31299   21.62602   11.28941 
 C                     12.9576   24.00524   11.20319 
 C                     11.31955   20.49906   12.43492 
 C                     11.07783   25.09007   12.4078 
 C                     11.17082   21.62904   13.27711 
 C                     11.0845   23.96919   13.25563 
 C                     11.92613   22.82741   13.01275 
 C                     12.86657   22.86393   12.02016 
 C                     8.71418   21.30234   13.5117 
 C                     8.70955   24.14578   13.68219 
 C                     7.47214   22.03499   13.33403 
 C                     7.47696   23.43919   13.44327 
 C                     6.48489   21.51078   12.46997 
 C                     6.65375   24.26824   12.62916 
 C                     5.69601   22.33816   11.62072 
 C                     5.80484   23.74015   11.6271 
 C                     5.44878   21.62882   10.39882 
 C                     5.59227   24.46177   10.3857 
 C                     5.24555   22.29617   9.18049 
 C                     5.2819    23.74476   9.16094 
 C                     5.60261   21.56291   8.02415 
 C                     5.57783   24.35543   7.92682 
 C                     5.93101   22.21957   6.80371 
 C                     5.91762   23.59743   6.75005 
 C                     6.99183   21.47847   6.16538 
 C                     6.9635    24.29248   6.04656 
 C                     7.97798   22.1406   5.46537 
 C                     7.97348   23.58315   5.40463 
 C                     9.32731   21.69041   5.56553 
 C                     9.31154   24.03671   5.47841 
 C                     11.90495   21.72967   6.59746 
 C                     12.07045   24.12385   6.38764 
 C                     10.1547   22.84702   5.41625 
 C                     11.42563   22.85902   5.90427 
 C                     9.90837   22.01985   13.78366 
 C                     9.88975   23.45709   13.84006 
 Cl                    14.91124   21.02588   11.89839 
 Cl                    13.92936   18.87028   8.42863 
 Cl                    13.16863   24.8625   5.15007 
 Cl                    13.76783   26.93091   8.57235 
 
 ITRead=  0  0  0  0  0  0  0  0  0  0  0  0  0  0  0  0  0  0  0  0
 ITRead=  0  0  0  0  0  0  0  0  0  0  0  0  0  0  0  0  0  0  0  0
 ITRead=  0  0  0  0  0  0  0  0  0  0  0  0  0  0  0  0  0  0  0  0
 ITRead=  0  0  0  0  0  0  0  0  0  0  0  0  0  0  0  0  0  0  0  0
 ITRead=  0  0  0  0  0  0  0  0
 MicOpt= -1 -1 -1 -1 -1 -1 -1 -1 -1 -1 -1 -1 -1 -1 -1 -1 -1 -1 -1 -1
 MicOpt= -1 -1 -1 -1 -1 -1 -1 -1 -1 -1 -1 -1 -1 -1 -1 -1 -1 -1 -1 -1
 MicOpt= -1 -1 -1 -1 -1 -1 -1 -1 -1 -1 -1 -1 -1 -1 -1 -1 -1 -1 -1 -1
 MicOpt= -1 -1 -1 -1 -1 -1 -1 -1 -1 -1 -1 -1 -1 -1 -1 -1 -1 -1 -1 -1
 MicOpt= -1 -1 -1 -1 -1 -1 -1 -1
 NAtoms=     88 NQM=       88 NQMF=       0 NMMI=      0 NMMIF=      0
                NMic=       0 NMicF=      0.
                    Isotopes and Nuclear Properties:
 (Nuclear quadrupole moments (NQMom) in fm**2, nuclear magnetic moments (NMagM)
  in nuclear magnetons)

  Atom         1           2           3           4           5           6           7           8           9          10
 IAtWgt=          12          12          12          12          12          12          12          12          12          12
 AtmWgt=  12.0000000  12.0000000  12.0000000  12.0000000  12.0000000  12.0000000  12.0000000  12.0000000  12.0000000  12.0000000
 NucSpn=           0           0           0           0           0           0           0           0           0           0
 AtZEff=  -0.0000000  -0.0000000  -0.0000000  -0.0000000  -0.0000000  -0.0000000  -0.0000000  -0.0000000  -0.0000000  -0.0000000
 NQMom=    0.0000000   0.0000000   0.0000000   0.0000000   0.0000000   0.0000000   0.0000000   0.0000000   0.0000000   0.0000000
 NMagM=    0.0000000   0.0000000   0.0000000   0.0000000   0.0000000   0.0000000   0.0000000   0.0000000   0.0000000   0.0000000
 AtZNuc=   6.0000000   6.0000000   6.0000000   6.0000000   6.0000000   6.0000000   6.0000000   6.0000000   6.0000000   6.0000000

  Atom        11          12          13          14          15          16          17          18          19          20
 IAtWgt=          12          12          12          12          12          12          12          12          12          12
 AtmWgt=  12.0000000  12.0000000  12.0000000  12.0000000  12.0000000  12.0000000  12.0000000  12.0000000  12.0000000  12.0000000
 NucSpn=           0           0           0           0           0           0           0           0           0           0
 AtZEff=  -0.0000000  -0.0000000  -0.0000000  -0.0000000  -0.0000000  -0.0000000  -0.0000000  -0.0000000  -0.0000000  -0.0000000
 NQMom=    0.0000000   0.0000000   0.0000000   0.0000000   0.0000000   0.0000000   0.0000000   0.0000000   0.0000000   0.0000000
 NMagM=    0.0000000   0.0000000   0.0000000   0.0000000   0.0000000   0.0000000   0.0000000   0.0000000   0.0000000   0.0000000
 AtZNuc=   6.0000000   6.0000000   6.0000000   6.0000000   6.0000000   6.0000000   6.0000000   6.0000000   6.0000000   6.0000000

  Atom        21          22          23          24          25          26          27          28          29          30
 IAtWgt=          12          12          12          12          12          12          12          12          12          12
 AtmWgt=  12.0000000  12.0000000  12.0000000  12.0000000  12.0000000  12.0000000  12.0000000  12.0000000  12.0000000  12.0000000
 NucSpn=           0           0           0           0           0           0           0           0           0           0
 AtZEff=  -0.0000000  -0.0000000  -0.0000000  -0.0000000  -0.0000000  -0.0000000  -0.0000000  -0.0000000  -0.0000000  -0.0000000
 NQMom=    0.0000000   0.0000000   0.0000000   0.0000000   0.0000000   0.0000000   0.0000000   0.0000000   0.0000000   0.0000000
 NMagM=    0.0000000   0.0000000   0.0000000   0.0000000   0.0000000   0.0000000   0.0000000   0.0000000   0.0000000   0.0000000
 AtZNuc=   6.0000000   6.0000000   6.0000000   6.0000000   6.0000000   6.0000000   6.0000000   6.0000000   6.0000000   6.0000000

  Atom        31          32          33          34          35          36          37          38          39          40
 IAtWgt=          12          12          12          12          12          12          12          12          12          12
 AtmWgt=  12.0000000  12.0000000  12.0000000  12.0000000  12.0000000  12.0000000  12.0000000  12.0000000  12.0000000  12.0000000
 NucSpn=           0           0           0           0           0           0           0           0           0           0
 AtZEff=  -0.0000000  -0.0000000  -0.0000000  -0.0000000  -0.0000000  -0.0000000  -0.0000000  -0.0000000  -0.0000000  -0.0000000
 NQMom=    0.0000000   0.0000000   0.0000000   0.0000000   0.0000000   0.0000000   0.0000000   0.0000000   0.0000000   0.0000000
 NMagM=    0.0000000   0.0000000   0.0000000   0.0000000   0.0000000   0.0000000   0.0000000   0.0000000   0.0000000   0.0000000
 AtZNuc=   6.0000000   6.0000000   6.0000000   6.0000000   6.0000000   6.0000000   6.0000000   6.0000000   6.0000000   6.0000000

  Atom        41          42          43          44          45          46          47          48          49          50
 IAtWgt=          12          12          12          12          12          12          12          12          12          12
 AtmWgt=  12.0000000  12.0000000  12.0000000  12.0000000  12.0000000  12.0000000  12.0000000  12.0000000  12.0000000  12.0000000
 NucSpn=           0           0           0           0           0           0           0           0           0           0
 AtZEff=  -0.0000000  -0.0000000  -0.0000000  -0.0000000  -0.0000000  -0.0000000  -0.0000000  -0.0000000  -0.0000000  -0.0000000
 NQMom=    0.0000000   0.0000000   0.0000000   0.0000000   0.0000000   0.0000000   0.0000000   0.0000000   0.0000000   0.0000000
 NMagM=    0.0000000   0.0000000   0.0000000   0.0000000   0.0000000   0.0000000   0.0000000   0.0000000   0.0000000   0.0000000
 AtZNuc=   6.0000000   6.0000000   6.0000000   6.0000000   6.0000000   6.0000000   6.0000000   6.0000000   6.0000000   6.0000000

  Atom        51          52          53          54          55          56          57          58          59          60
 IAtWgt=          12          12          12          12          12          12          12          12          12          12
 AtmWgt=  12.0000000  12.0000000  12.0000000  12.0000000  12.0000000  12.0000000  12.0000000  12.0000000  12.0000000  12.0000000
 NucSpn=           0           0           0           0           0           0           0           0           0           0
 AtZEff=  -0.0000000  -0.0000000  -0.0000000  -0.0000000  -0.0000000  -0.0000000  -0.0000000  -0.0000000  -0.0000000  -0.0000000
 NQMom=    0.0000000   0.0000000   0.0000000   0.0000000   0.0000000   0.0000000   0.0000000   0.0000000   0.0000000   0.0000000
 NMagM=    0.0000000   0.0000000   0.0000000   0.0000000   0.0000000   0.0000000   0.0000000   0.0000000   0.0000000   0.0000000
 AtZNuc=   6.0000000   6.0000000   6.0000000   6.0000000   6.0000000   6.0000000   6.0000000   6.0000000   6.0000000   6.0000000

  Atom        61          62          63          64          65          66          67          68          69          70
 IAtWgt=          12          12          12          12          12          12          12          12          12          12
 AtmWgt=  12.0000000  12.0000000  12.0000000  12.0000000  12.0000000  12.0000000  12.0000000  12.0000000  12.0000000  12.0000000
 NucSpn=           0           0           0           0           0           0           0           0           0           0
 AtZEff=  -0.0000000  -0.0000000  -0.0000000  -0.0000000  -0.0000000  -0.0000000  -0.0000000  -0.0000000  -0.0000000  -0.0000000
 NQMom=    0.0000000   0.0000000   0.0000000   0.0000000   0.0000000   0.0000000   0.0000000   0.0000000   0.0000000   0.0000000
 NMagM=    0.0000000   0.0000000   0.0000000   0.0000000   0.0000000   0.0000000   0.0000000   0.0000000   0.0000000   0.0000000
 AtZNuc=   6.0000000   6.0000000   6.0000000   6.0000000   6.0000000   6.0000000   6.0000000   6.0000000   6.0000000   6.0000000

  Atom        71          72          73          74          75          76          77          78          79          80
 IAtWgt=          12          12          12          12          12          12          12          12          12          12
 AtmWgt=  12.0000000  12.0000000  12.0000000  12.0000000  12.0000000  12.0000000  12.0000000  12.0000000  12.0000000  12.0000000
 NucSpn=           0           0           0           0           0           0           0           0           0           0
 AtZEff=  -0.0000000  -0.0000000  -0.0000000  -0.0000000  -0.0000000  -0.0000000  -0.0000000  -0.0000000  -0.0000000  -0.0000000
 NQMom=    0.0000000   0.0000000   0.0000000   0.0000000   0.0000000   0.0000000   0.0000000   0.0000000   0.0000000   0.0000000
 NMagM=    0.0000000   0.0000000   0.0000000   0.0000000   0.0000000   0.0000000   0.0000000   0.0000000   0.0000000   0.0000000
 AtZNuc=   6.0000000   6.0000000   6.0000000   6.0000000   6.0000000   6.0000000   6.0000000   6.0000000   6.0000000   6.0000000

  Atom        81          82          83          84          85          86          87          88
 IAtWgt=          12          12          12          12          35          35          35          35
 AtmWgt=  12.0000000  12.0000000  12.0000000  12.0000000  34.9688527  34.9688527  34.9688527  34.9688527
 NucSpn=           0           0           0           0           3           3           3           3
 AtZEff=  -0.0000000  -0.0000000  -0.0000000  -0.0000000  -0.0000000  -0.0000000  -0.0000000  -0.0000000
 NQMom=    0.0000000   0.0000000   0.0000000   0.0000000  -8.1650000  -8.1650000  -8.1650000  -8.1650000
 NMagM=    0.0000000   0.0000000   0.0000000   0.0000000   0.8218740   0.8218740   0.8218740   0.8218740
 AtZNuc=   6.0000000   6.0000000   6.0000000   6.0000000  17.0000000  17.0000000  17.0000000  17.0000000
 Leave Link  101 at Tue Jun 28 13:43:14 2022, MaxMem=  1342177280 cpu:               6.6 elap:               0.3
 (Enter /home/mkliu/g16/l103.exe)

 GradGradGradGradGradGradGradGradGradGradGradGradGradGradGradGradGradGrad
 Berny optimization.
 Initialization pass.
                           ----------------------------
                           !    Initial Parameters    !
                           ! (Angstroms and Degrees)  !
 --------------------------                            --------------------------
 ! Name  Definition              Value          Derivative Info.                !
 --------------------------------------------------------------------------------
 ! R1    R(1,5)                  1.4076         estimate D2E/DX2                !
 ! R2    R(1,17)                 1.4293         estimate D2E/DX2                !
 ! R3    R(1,23)                 1.4335         estimate D2E/DX2                !
 ! R4    R(2,6)                  1.5109         estimate D2E/DX2                !
 ! R5    R(2,43)                 1.5178         estimate D2E/DX2                !
 ! R6    R(2,44)                 1.4929         estimate D2E/DX2                !
 ! R7    R(2,86)                 1.8193         estimate D2E/DX2                !
 ! R8    R(3,7)                  1.4245         estimate D2E/DX2                !
 ! R9    R(3,18)                 1.4109         estimate D2E/DX2                !
 ! R10   R(3,26)                 1.4325         estimate D2E/DX2                !
 ! R11   R(4,8)                  1.5115         estimate D2E/DX2                !
 ! R12   R(4,45)                 1.4896         estimate D2E/DX2                !
 ! R13   R(4,46)                 1.5135         estimate D2E/DX2                !
 ! R14   R(4,88)                 1.8194         estimate D2E/DX2                !
 ! R15   R(5,9)                  1.447          estimate D2E/DX2                !
 ! R16   R(5,29)                 1.4441         estimate D2E/DX2                !
 ! R17   R(6,10)                 1.3696         estimate D2E/DX2                !
 ! R18   R(6,15)                 1.4254         estimate D2E/DX2                !
 ! R19   R(7,12)                 1.4096         estimate D2E/DX2                !
 ! R20   R(7,30)                 1.4356         estimate D2E/DX2                !
 ! R21   R(8,11)                 1.3901         estimate D2E/DX2                !
 ! R22   R(8,16)                 1.4127         estimate D2E/DX2                !
 ! R23   R(9,13)                 1.4146         estimate D2E/DX2                !
 ! R24   R(9,35)                 1.4362         estimate D2E/DX2                !
 ! R25   R(10,49)                1.5083         estimate D2E/DX2                !
 ! R26   R(10,51)                1.4482         estimate D2E/DX2                !
 ! R27   R(11,50)                1.4311         estimate D2E/DX2                !
 ! R28   R(11,52)                1.4505         estimate D2E/DX2                !
 ! R29   R(12,14)                1.4059         estimate D2E/DX2                !
 ! R30   R(12,36)                1.4427         estimate D2E/DX2                !
 ! R31   R(13,15)                1.4317         estimate D2E/DX2                !
 ! R32   R(13,43)                1.4038         estimate D2E/DX2                !
 ! R33   R(14,16)                1.4235         estimate D2E/DX2                !
 ! R34   R(14,46)                1.422          estimate D2E/DX2                !
 ! R35   R(15,17)                1.3703         estimate D2E/DX2                !
 ! R36   R(16,18)                1.4121         estimate D2E/DX2                !
 ! R37   R(17,19)                1.4292         estimate D2E/DX2                !
 ! R38   R(18,20)                1.4417         estimate D2E/DX2                !
 ! R39   R(19,21)                1.4299         estimate D2E/DX2                !
 ! R40   R(19,51)                1.4059         estimate D2E/DX2                !
 ! R41   R(20,22)                1.4102         estimate D2E/DX2                !
 ! R42   R(20,52)                1.4455         estimate D2E/DX2                !
 ! R43   R(21,23)                1.4377         estimate D2E/DX2                !
 ! R44   R(21,57)                1.4067         estimate D2E/DX2                !
 ! R45   R(22,24)                1.4379         estimate D2E/DX2                !
 ! R46   R(22,58)                1.4225         estimate D2E/DX2                !
 ! R47   R(23,25)                1.3765         estimate D2E/DX2                !
 ! R48   R(24,26)                1.3675         estimate D2E/DX2                !
 ! R49   R(24,62)                1.4348         estimate D2E/DX2                !
 ! R50   R(25,27)                1.426          estimate D2E/DX2                !
 ! R51   R(25,61)                1.4315         estimate D2E/DX2                !
 ! R52   R(26,28)                1.4401         estimate D2E/DX2                !
 ! R53   R(27,29)                1.4119         estimate D2E/DX2                !
 ! R54   R(27,65)                1.4263         estimate D2E/DX2                !
 ! R55   R(28,30)                1.424          estimate D2E/DX2                !
 ! R56   R(28,66)                1.404          estimate D2E/DX2                !
 ! R57   R(29,31)                1.4012         estimate D2E/DX2                !
 ! R58   R(30,32)                1.3703         estimate D2E/DX2                !
 ! R59   R(31,33)                1.4291         estimate D2E/DX2                !
 ! R60   R(31,69)                1.4322         estimate D2E/DX2                !
 ! R61   R(32,34)                1.4424         estimate D2E/DX2                !
 ! R62   R(32,70)                1.4292         estimate D2E/DX2                !
 ! R63   R(33,35)                1.4134         estimate D2E/DX2                !
 ! R64   R(33,73)                1.4256         estimate D2E/DX2                !
 ! R65   R(34,36)                1.4107         estimate D2E/DX2                !
 ! R66   R(34,74)                1.4196         estimate D2E/DX2                !
 ! R67   R(35,37)                1.4442         estimate D2E/DX2                !
 ! R68   R(36,38)                1.4452         estimate D2E/DX2                !
 ! R69   R(37,39)                1.4426         estimate D2E/DX2                !
 ! R70   R(37,77)                1.4124         estimate D2E/DX2                !
 ! R71   R(38,42)                1.4502         estimate D2E/DX2                !
 ! R72   R(38,78)                1.4069         estimate D2E/DX2                !
 ! R73   R(39,43)                1.394          estimate D2E/DX2                !
 ! R74   R(39,79)                1.424          estimate D2E/DX2                !
 ! R75   R(40,41)                1.4153         estimate D2E/DX2                !
 ! R76   R(40,44)                1.4046         estimate D2E/DX2                !
 ! R77   R(40,79)                1.4279         estimate D2E/DX2                !
 ! R78   R(41,45)                1.374          estimate D2E/DX2                !
 ! R79   R(41,80)                1.5095         estimate D2E/DX2                !
 ! R80   R(42,46)                1.3648         estimate D2E/DX2                !
 ! R81   R(42,80)                1.5119         estimate D2E/DX2                !
 ! R82   R(44,47)                1.374          estimate D2E/DX2                !
 ! R83   R(45,48)                1.4034         estimate D2E/DX2                !
 ! R84   R(47,48)                1.4162         estimate D2E/DX2                !
 ! R85   R(47,49)                1.5085         estimate D2E/DX2                !
 ! R86   R(48,50)                1.4294         estimate D2E/DX2                !
 ! R87   R(49,56)                1.5052         estimate D2E/DX2                !
 ! R88   R(49,85)                1.8126         estimate D2E/DX2                !
 ! R89   R(50,56)                1.4065         estimate D2E/DX2                !
 ! R90   R(51,53)                1.4171         estimate D2E/DX2                !
 ! R91   R(52,54)                1.4054         estimate D2E/DX2                !
 ! R92   R(53,55)                1.441          estimate D2E/DX2                !
 ! R93   R(53,83)                1.4153         estimate D2E/DX2                !
 ! R94   R(54,55)                1.4391         estimate D2E/DX2                !
 ! R95   R(54,84)                1.4252         estimate D2E/DX2                !
 ! R96   R(55,56)                1.3678         estimate D2E/DX2                !
 ! R97   R(57,59)                1.4529         estimate D2E/DX2                !
 ! R98   R(57,83)                1.4195         estimate D2E/DX2                !
 ! R99   R(58,60)                1.4407         estimate D2E/DX2                !
 ! R100  R(58,84)                1.3755         estimate D2E/DX2                !
 ! R101  R(59,60)                1.4085         estimate D2E/DX2                !
 ! R102  R(59,61)                1.4128         estimate D2E/DX2                !
 ! R103  R(60,62)                1.424          estimate D2E/DX2                !
 ! R104  R(61,63)                1.4241         estimate D2E/DX2                !
 ! R105  R(62,64)                1.4155         estimate D2E/DX2                !
 ! R106  R(63,64)                1.4062         estimate D2E/DX2                !
 ! R107  R(63,65)                1.4343         estimate D2E/DX2                !
 ! R108  R(64,66)                1.4515         estimate D2E/DX2                !
 ! R109  R(65,67)                1.4039         estimate D2E/DX2                !
 ! R110  R(66,68)                1.4528         estimate D2E/DX2                !
 ! R111  R(67,68)                1.4492         estimate D2E/DX2                !
 ! R112  R(67,69)                1.415          estimate D2E/DX2                !
 ! R113  R(68,70)                1.4084         estimate D2E/DX2                !
 ! R114  R(69,71)                1.4243         estimate D2E/DX2                !
 ! R115  R(70,72)                1.4404         estimate D2E/DX2                !
 ! R116  R(71,72)                1.379          estimate D2E/DX2                !
 ! R117  R(71,73)                1.4429         estimate D2E/DX2                !
 ! R118  R(72,74)                1.4394         estimate D2E/DX2                !
 ! R119  R(73,75)                1.3787         estimate D2E/DX2                !
 ! R120  R(74,76)                1.3911         estimate D2E/DX2                !
 ! R121  R(75,76)                1.4438         estimate D2E/DX2                !
 ! R122  R(75,77)                1.426          estimate D2E/DX2                !
 ! R123  R(76,78)                1.4148         estimate D2E/DX2                !
 ! R124  R(77,81)                1.4299         estimate D2E/DX2                !
 ! R125  R(78,81)                1.4595         estimate D2E/DX2                !
 ! R126  R(79,82)                1.4091         estimate D2E/DX2                !
 ! R127  R(80,82)                1.4998         estimate D2E/DX2                !
 ! R128  R(80,87)                1.812          estimate D2E/DX2                !
 ! R129  R(81,82)                1.3615         estimate D2E/DX2                !
 ! R130  R(83,84)                1.4385         estimate D2E/DX2                !
 ! A1    A(5,1,17)             121.6467         estimate D2E/DX2                !
 ! A2    A(5,1,23)             122.1551         estimate D2E/DX2                !
 ! A3    A(17,1,23)            105.7226         estimate D2E/DX2                !
 ! A4    A(6,2,43)             101.7464         estimate D2E/DX2                !
 ! A5    A(6,2,44)             110.8871         estimate D2E/DX2                !
 ! A6    A(6,2,86)             110.9462         estimate D2E/DX2                !
 ! A7    A(43,2,44)            111.4816         estimate D2E/DX2                !
 ! A8    A(43,2,86)            110.8722         estimate D2E/DX2                !
 ! A9    A(44,2,86)            110.6229         estimate D2E/DX2                !
 ! A10   A(7,3,18)             122.2618         estimate D2E/DX2                !
 ! A11   A(7,3,26)             107.1445         estimate D2E/DX2                !
 ! A12   A(18,3,26)            120.5131         estimate D2E/DX2                !
 ! A13   A(8,4,45)             112.1307         estimate D2E/DX2                !
 ! A14   A(8,4,46)             101.6618         estimate D2E/DX2                !
 ! A15   A(8,4,88)             110.4321         estimate D2E/DX2                !
 ! A16   A(45,4,46)            110.9876         estimate D2E/DX2                !
 ! A17   A(45,4,88)            110.8747         estimate D2E/DX2                !
 ! A18   A(46,4,88)            110.425          estimate D2E/DX2                !
 ! A19   A(1,5,9)              118.8719         estimate D2E/DX2                !
 ! A20   A(1,5,29)             116.4543         estimate D2E/DX2                !
 ! A21   A(9,5,29)             119.291          estimate D2E/DX2                !
 ! A22   A(2,6,10)             126.4617         estimate D2E/DX2                !
 ! A23   A(2,6,15)             107.3489         estimate D2E/DX2                !
 ! A24   A(10,6,15)            120.4812         estimate D2E/DX2                !
 ! A25   A(3,7,12)             122.1315         estimate D2E/DX2                !
 ! A26   A(3,7,30)             107.555          estimate D2E/DX2                !
 ! A27   A(12,7,30)            119.8549         estimate D2E/DX2                !
 ! A28   A(4,8,11)             125.1226         estimate D2E/DX2                !
 ! A29   A(4,8,16)             108.9763         estimate D2E/DX2                !
 ! A30   A(11,8,16)            120.7549         estimate D2E/DX2                !
 ! A31   A(5,9,13)             117.963          estimate D2E/DX2                !
 ! A32   A(5,9,35)             121.2608         estimate D2E/DX2                !
 ! A33   A(13,9,35)            116.6131         estimate D2E/DX2                !
 ! A34   A(6,10,49)            118.0191         estimate D2E/DX2                !
 ! A35   A(6,10,51)            119.4835         estimate D2E/DX2                !
 ! A36   A(49,10,51)           119.9932         estimate D2E/DX2                !
 ! A37   A(8,11,50)            116.6968         estimate D2E/DX2                !
 ! A38   A(8,11,52)            119.126          estimate D2E/DX2                !
 ! A39   A(50,11,52)           118.9519         estimate D2E/DX2                !
 ! A40   A(7,12,14)            114.956          estimate D2E/DX2                !
 ! A41   A(7,12,36)            121.0814         estimate D2E/DX2                !
 ! A42   A(14,12,36)           118.5993         estimate D2E/DX2                !
 ! A43   A(9,13,15)            121.7905         estimate D2E/DX2                !
 ! A44   A(9,13,43)            123.2977         estimate D2E/DX2                !
 ! A45   A(15,13,43)           107.6507         estimate D2E/DX2                !
 ! A46   A(12,14,16)           122.533          estimate D2E/DX2                !
 ! A47   A(12,14,46)           121.5612         estimate D2E/DX2                !
 ! A48   A(16,14,46)           109.0909         estimate D2E/DX2                !
 ! A49   A(6,15,13)            109.9818         estimate D2E/DX2                !
 ! A50   A(6,15,17)            120.9226         estimate D2E/DX2                !
 ! A51   A(13,15,17)           119.7838         estimate D2E/DX2                !
 ! A52   A(8,16,14)            108.857          estimate D2E/DX2                !
 ! A53   A(8,16,18)            122.1303         estimate D2E/DX2                !
 ! A54   A(14,16,18)           121.9781         estimate D2E/DX2                !
 ! A55   A(1,17,15)            119.7098         estimate D2E/DX2                !
 ! A56   A(1,17,19)            110.0698         estimate D2E/DX2                !
 ! A57   A(15,17,19)           119.5476         estimate D2E/DX2                !
 ! A58   A(3,18,16)            114.9517         estimate D2E/DX2                !
 ! A59   A(3,18,20)            120.715          estimate D2E/DX2                !
 ! A60   A(16,18,20)           118.4014         estimate D2E/DX2                !
 ! A61   A(17,19,21)           107.0549         estimate D2E/DX2                !
 ! A62   A(17,19,51)           119.9562         estimate D2E/DX2                !
 ! A63   A(21,19,51)           122.8648         estimate D2E/DX2                !
 ! A64   A(18,20,22)           116.8506         estimate D2E/DX2                !
 ! A65   A(18,20,52)           119.3193         estimate D2E/DX2                !
 ! A66   A(22,20,52)           118.2102         estimate D2E/DX2                !
 ! A67   A(19,21,23)           107.5294         estimate D2E/DX2                !
 ! A68   A(19,21,57)           121.6657         estimate D2E/DX2                !
 ! A69   A(23,21,57)           120.7896         estimate D2E/DX2                !
 ! A70   A(20,22,24)           121.4954         estimate D2E/DX2                !
 ! A71   A(20,22,58)           121.9315         estimate D2E/DX2                !
 ! A72   A(24,22,58)           105.6025         estimate D2E/DX2                !
 ! A73   A(1,23,21)            109.2162         estimate D2E/DX2                !
 ! A74   A(1,23,25)            120.1199         estimate D2E/DX2                !
 ! A75   A(21,23,25)           120.0013         estimate D2E/DX2                !
 ! A76   A(22,24,26)           120.6151         estimate D2E/DX2                !
 ! A77   A(22,24,62)           109.7739         estimate D2E/DX2                !
 ! A78   A(26,24,62)           119.3026         estimate D2E/DX2                !
 ! A79   A(23,25,27)           119.2357         estimate D2E/DX2                !
 ! A80   A(23,25,61)           120.4675         estimate D2E/DX2                !
 ! A81   A(27,25,61)           109.1852         estimate D2E/DX2                !
 ! A82   A(3,26,24)            119.253          estimate D2E/DX2                !
 ! A83   A(3,26,28)            109.4589         estimate D2E/DX2                !
 ! A84   A(24,26,28)           120.5346         estimate D2E/DX2                !
 ! A85   A(25,27,29)           120.8772         estimate D2E/DX2                !
 ! A86   A(25,27,65)           107.1544         estimate D2E/DX2                !
 ! A87   A(29,27,65)           121.3821         estimate D2E/DX2                !
 ! A88   A(26,28,30)           105.4969         estimate D2E/DX2                !
 ! A89   A(26,28,66)           121.8293         estimate D2E/DX2                !
 ! A90   A(30,28,66)           121.7525         estimate D2E/DX2                !
 ! A91   A(5,29,27)            120.4523         estimate D2E/DX2                !
 ! A92   A(5,29,31)            118.4405         estimate D2E/DX2                !
 ! A93   A(27,29,31)           115.4635         estimate D2E/DX2                !
 ! A94   A(7,30,28)            109.5166         estimate D2E/DX2                !
 ! A95   A(7,30,32)            119.6348         estimate D2E/DX2                !
 ! A96   A(28,30,32)           120.1473         estimate D2E/DX2                !
 ! A97   A(29,31,33)           121.485          estimate D2E/DX2                !
 ! A98   A(29,31,69)           121.9432         estimate D2E/DX2                !
 ! A99   A(33,31,69)           109.1339         estimate D2E/DX2                !
 ! A100  A(30,32,34)           120.5948         estimate D2E/DX2                !
 ! A101  A(30,32,70)           119.2296         estimate D2E/DX2                !
 ! A102  A(34,32,70)           109.669          estimate D2E/DX2                !
 ! A103  A(31,33,35)           121.2463         estimate D2E/DX2                !
 ! A104  A(31,33,73)           107.1305         estimate D2E/DX2                !
 ! A105  A(35,33,73)           122.276          estimate D2E/DX2                !
 ! A106  A(32,34,36)           120.8692         estimate D2E/DX2                !
 ! A107  A(32,34,74)           106.4228         estimate D2E/DX2                !
 ! A108  A(36,34,74)           121.9882         estimate D2E/DX2                !
 ! A109  A(9,35,33)            117.1808         estimate D2E/DX2                !
 ! A110  A(9,35,37)            120.2677         estimate D2E/DX2                !
 ! A111  A(33,35,37)           118.0385         estimate D2E/DX2                !
 ! A112  A(12,36,34)           117.0966         estimate D2E/DX2                !
 ! A113  A(12,36,38)           119.1151         estimate D2E/DX2                !
 ! A114  A(34,36,38)           118.7114         estimate D2E/DX2                !
 ! A115  A(35,37,39)           119.9472         estimate D2E/DX2                !
 ! A116  A(35,37,77)           118.4482         estimate D2E/DX2                !
 ! A117  A(39,37,77)           116.4797         estimate D2E/DX2                !
 ! A118  A(36,38,42)           119.7298         estimate D2E/DX2                !
 ! A119  A(36,38,78)           117.9436         estimate D2E/DX2                !
 ! A120  A(42,38,78)           118.3235         estimate D2E/DX2                !
 ! A121  A(37,39,43)           118.6306         estimate D2E/DX2                !
 ! A122  A(37,39,79)           119.4556         estimate D2E/DX2                !
 ! A123  A(43,39,79)           116.8658         estimate D2E/DX2                !
 ! A124  A(41,40,44)           121.602          estimate D2E/DX2                !
 ! A125  A(41,40,79)           108.7081         estimate D2E/DX2                !
 ! A126  A(44,40,79)           122.5848         estimate D2E/DX2                !
 ! A127  A(40,41,45)           120.2719         estimate D2E/DX2                !
 ! A128  A(40,41,80)           110.3251         estimate D2E/DX2                !
 ! A129  A(45,41,80)           124.2669         estimate D2E/DX2                !
 ! A130  A(38,42,46)           119.5875         estimate D2E/DX2                !
 ! A131  A(38,42,80)           121.241          estimate D2E/DX2                !
 ! A132  A(46,42,80)           117.4383         estimate D2E/DX2                !
 ! A133  A(2,43,13)            110.2077         estimate D2E/DX2                !
 ! A134  A(2,43,39)            124.4237         estimate D2E/DX2                !
 ! A135  A(13,43,39)           120.5109         estimate D2E/DX2                !
 ! A136  A(2,44,40)            118.4896         estimate D2E/DX2                !
 ! A137  A(2,44,47)            120.2166         estimate D2E/DX2                !
 ! A138  A(40,44,47)           117.8156         estimate D2E/DX2                !
 ! A139  A(4,45,41)            119.5892         estimate D2E/DX2                !
 ! A140  A(4,45,48)            118.7814         estimate D2E/DX2                !
 ! A141  A(41,45,48)           118.0179         estimate D2E/DX2                !
 ! A142  A(4,46,14)            108.3141         estimate D2E/DX2                !
 ! A143  A(4,46,42)            126.1054         estimate D2E/DX2                !
 ! A144  A(14,46,42)           121.19           estimate D2E/DX2                !
 ! A145  A(44,47,48)           120.4056         estimate D2E/DX2                !
 ! A146  A(44,47,49)           124.6404         estimate D2E/DX2                !
 ! A147  A(48,47,49)           109.9015         estimate D2E/DX2                !
 ! A148  A(45,48,47)           121.4343         estimate D2E/DX2                !
 ! A149  A(45,48,50)           122.739          estimate D2E/DX2                !
 ! A150  A(47,48,50)           109.0094         estimate D2E/DX2                !
 ! A151  A(10,49,47)           111.1349         estimate D2E/DX2                !
 ! A152  A(10,49,56)           112.3296         estimate D2E/DX2                !
 ! A153  A(10,49,85)           109.7285         estimate D2E/DX2                !
 ! A154  A(47,49,56)           100.6297         estimate D2E/DX2                !
 ! A155  A(47,49,85)           111.0124         estimate D2E/DX2                !
 ! A156  A(56,49,85)           111.7589         estimate D2E/DX2                !
 ! A157  A(11,50,48)           120.1493         estimate D2E/DX2                !
 ! A158  A(11,50,56)           122.104          estimate D2E/DX2                !
 ! A159  A(48,50,56)           107.6908         estimate D2E/DX2                !
 ! A160  A(10,51,19)           119.2211         estimate D2E/DX2                !
 ! A161  A(10,51,53)           120.0142         estimate D2E/DX2                !
 ! A162  A(19,51,53)           114.9254         estimate D2E/DX2                !
 ! A163  A(11,52,20)           120.0208         estimate D2E/DX2                !
 ! A164  A(11,52,54)           116.8602         estimate D2E/DX2                !
 ! A165  A(20,52,54)           118.2059         estimate D2E/DX2                !
 ! A166  A(51,53,55)           119.9393         estimate D2E/DX2                !
 ! A167  A(51,53,83)           121.7685         estimate D2E/DX2                !
 ! A168  A(55,53,83)           107.6722         estimate D2E/DX2                !
 ! A169  A(52,54,55)           122.2579         estimate D2E/DX2                !
 ! A170  A(52,54,84)           122.0025         estimate D2E/DX2                !
 ! A171  A(55,54,84)           105.9259         estimate D2E/DX2                !
 ! A172  A(53,55,54)           108.8026         estimate D2E/DX2                !
 ! A173  A(53,55,56)           121.0445         estimate D2E/DX2                !
 ! A174  A(54,55,56)           120.2242         estimate D2E/DX2                !
 ! A175  A(49,56,50)           111.479          estimate D2E/DX2                !
 ! A176  A(49,56,55)           122.2924         estimate D2E/DX2                !
 ! A177  A(50,56,55)           119.1864         estimate D2E/DX2                !
 ! A178  A(21,57,59)           119.0595         estimate D2E/DX2                !
 ! A179  A(21,57,83)           114.9635         estimate D2E/DX2                !
 ! A180  A(59,57,83)           119.1912         estimate D2E/DX2                !
 ! A181  A(22,58,60)           109.4913         estimate D2E/DX2                !
 ! A182  A(22,58,84)           119.442          estimate D2E/DX2                !
 ! A183  A(60,58,84)           120.5            estimate D2E/DX2                !
 ! A184  A(57,59,60)           119.3621         estimate D2E/DX2                !
 ! A185  A(57,59,61)           119.0153         estimate D2E/DX2                !
 ! A186  A(60,59,61)           114.8181         estimate D2E/DX2                !
 ! A187  A(58,60,59)           120.3149         estimate D2E/DX2                !
 ! A188  A(58,60,62)           107.6898         estimate D2E/DX2                !
 ! A189  A(59,60,62)           122.2848         estimate D2E/DX2                !
 ! A190  A(25,61,59)           120.6102         estimate D2E/DX2                !
 ! A191  A(25,61,63)           106.9532         estimate D2E/DX2                !
 ! A192  A(59,61,63)           122.4273         estimate D2E/DX2                !
 ! A193  A(24,62,60)           106.8752         estimate D2E/DX2                !
 ! A194  A(24,62,64)           120.4208         estimate D2E/DX2                !
 ! A195  A(60,62,64)           122.2904         estimate D2E/DX2                !
 ! A196  A(61,63,64)           122.2529         estimate D2E/DX2                !
 ! A197  A(61,63,65)           108.4314         estimate D2E/DX2                !
 ! A198  A(64,63,65)           120.6811         estimate D2E/DX2                !
 ! A199  A(62,64,63)           114.9341         estimate D2E/DX2                !
 ! A200  A(62,64,66)           120.5166         estimate D2E/DX2                !
 ! A201  A(63,64,66)           118.7134         estimate D2E/DX2                !
 ! A202  A(27,65,63)           108.1366         estimate D2E/DX2                !
 ! A203  A(27,65,67)           122.0574         estimate D2E/DX2                !
 ! A204  A(63,65,67)           121.9476         estimate D2E/DX2                !
 ! A205  A(28,66,64)           116.6698         estimate D2E/DX2                !
 ! A206  A(28,66,68)           117.7896         estimate D2E/DX2                !
 ! A207  A(64,66,68)           120.4598         estimate D2E/DX2                !
 ! A208  A(65,67,68)           118.8968         estimate D2E/DX2                !
 ! A209  A(65,67,69)           115.2333         estimate D2E/DX2                !
 ! A210  A(68,67,69)           120.0423         estimate D2E/DX2                !
 ! A211  A(66,68,67)           119.1659         estimate D2E/DX2                !
 ! A212  A(66,68,70)           118.6758         estimate D2E/DX2                !
 ! A213  A(67,68,70)           116.7766         estimate D2E/DX2                !
 ! A214  A(31,69,67)           121.1176         estimate D2E/DX2                !
 ! A215  A(31,69,71)           107.1436         estimate D2E/DX2                !
 ! A216  A(67,69,71)           121.299          estimate D2E/DX2                !
 ! A217  A(32,70,68)           121.3374         estimate D2E/DX2                !
 ! A218  A(32,70,72)           105.973          estimate D2E/DX2                !
 ! A219  A(68,70,72)           122.498          estimate D2E/DX2                !
 ! A220  A(69,71,72)           119.4583         estimate D2E/DX2                !
 ! A221  A(69,71,73)           108.1671         estimate D2E/DX2                !
 ! A222  A(72,71,73)           120.2061         estimate D2E/DX2                !
 ! A223  A(70,72,71)           119.7561         estimate D2E/DX2                !
 ! A224  A(70,72,74)           108.4565         estimate D2E/DX2                !
 ! A225  A(71,72,74)           119.6338         estimate D2E/DX2                !
 ! A226  A(33,73,71)           108.1506         estimate D2E/DX2                !
 ! A227  A(33,73,75)           119.6185         estimate D2E/DX2                !
 ! A228  A(71,73,75)           120.252          estimate D2E/DX2                !
 ! A229  A(34,74,72)           108.5581         estimate D2E/DX2                !
 ! A230  A(34,74,76)           118.8431         estimate D2E/DX2                !
 ! A231  A(72,74,76)           120.4535         estimate D2E/DX2                !
 ! A232  A(73,75,76)           119.9298         estimate D2E/DX2                !
 ! A233  A(73,75,77)           119.3102         estimate D2E/DX2                !
 ! A234  A(76,75,77)           108.7434         estimate D2E/DX2                !
 ! A235  A(74,76,75)           119.4909         estimate D2E/DX2                !
 ! A236  A(74,76,78)           119.9416         estimate D2E/DX2                !
 ! A237  A(75,76,78)           108.3703         estimate D2E/DX2                !
 ! A238  A(37,77,75)           122.2363         estimate D2E/DX2                !
 ! A239  A(37,77,81)           121.5699         estimate D2E/DX2                !
 ! A240  A(75,77,81)           106.5491         estimate D2E/DX2                !
 ! A241  A(38,78,76)           122.0901         estimate D2E/DX2                !
 ! A242  A(38,78,81)           119.7254         estimate D2E/DX2                !
 ! A243  A(76,78,81)           106.4297         estimate D2E/DX2                !
 ! A244  A(39,79,40)           120.1357         estimate D2E/DX2                !
 ! A245  A(39,79,82)           121.5804         estimate D2E/DX2                !
 ! A246  A(40,79,82)           107.725          estimate D2E/DX2                !
 ! A247  A(41,80,42)           111.0585         estimate D2E/DX2                !
 ! A248  A(41,80,82)           100.4825         estimate D2E/DX2                !
 ! A249  A(41,80,87)           111.3747         estimate D2E/DX2                !
 ! A250  A(42,80,82)           111.5967         estimate D2E/DX2                !
 ! A251  A(42,80,87)           109.5051         estimate D2E/DX2                !
 ! A252  A(82,80,87)           112.5971         estimate D2E/DX2                !
 ! A253  A(77,81,78)           108.7003         estimate D2E/DX2                !
 ! A254  A(77,81,82)           120.655          estimate D2E/DX2                !
 ! A255  A(78,81,82)           121.1205         estimate D2E/DX2                !
 ! A256  A(79,82,80)           111.784          estimate D2E/DX2                !
 ! A257  A(79,82,81)           119.1304         estimate D2E/DX2                !
 ! A258  A(80,82,81)           121.6231         estimate D2E/DX2                !
 ! A259  A(53,83,57)           122.8396         estimate D2E/DX2                !
 ! A260  A(53,83,84)           107.5459         estimate D2E/DX2                !
 ! A261  A(57,83,84)           120.1105         estimate D2E/DX2                !
 ! A262  A(54,84,58)           119.4915         estimate D2E/DX2                !
 ! A263  A(54,84,83)           109.3949         estimate D2E/DX2                !
 ! A264  A(58,84,83)           120.4541         estimate D2E/DX2                !
 ! D1    D(17,1,5,9)             4.1511         estimate D2E/DX2                !
 ! D2    D(17,1,5,29)         -149.7969         estimate D2E/DX2                !
 ! D3    D(23,1,5,9)           143.919          estimate D2E/DX2                !
 ! D4    D(23,1,5,29)          -10.029          estimate D2E/DX2                !
 ! D5    D(5,1,17,15)           -5.098          estimate D2E/DX2                !
 ! D6    D(5,1,17,19)          139.2888         estimate D2E/DX2                !
 ! D7    D(23,1,17,15)        -150.4825         estimate D2E/DX2                !
 ! D8    D(23,1,17,19)          -6.0957         estimate D2E/DX2                !
 ! D9    D(5,1,23,21)         -138.7846         estimate D2E/DX2                !
 ! D10   D(5,1,23,25)            5.7428         estimate D2E/DX2                !
 ! D11   D(17,1,23,21)           6.3805         estimate D2E/DX2                !
 ! D12   D(17,1,23,25)         150.9079         estimate D2E/DX2                !
 ! D13   D(43,2,6,10)         -135.7444         estimate D2E/DX2                !
 ! D14   D(43,2,6,15)           17.3328         estimate D2E/DX2                !
 ! D15   D(44,2,6,10)          -17.0791         estimate D2E/DX2                !
 ! D16   D(44,2,6,15)          135.9981         estimate D2E/DX2                !
 ! D17   D(86,2,6,10)          106.27           estimate D2E/DX2                !
 ! D18   D(86,2,6,15)         -100.6528         estimate D2E/DX2                !
 ! D19   D(6,2,43,13)          -13.7717         estimate D2E/DX2                !
 ! D20   D(6,2,43,39)          141.4739         estimate D2E/DX2                !
 ! D21   D(44,2,43,13)        -132.0118         estimate D2E/DX2                !
 ! D22   D(44,2,43,39)          23.2338         estimate D2E/DX2                !
 ! D23   D(86,2,43,13)         104.267          estimate D2E/DX2                !
 ! D24   D(86,2,43,39)        -100.4874         estimate D2E/DX2                !
 ! D25   D(6,2,44,40)         -137.8865         estimate D2E/DX2                !
 ! D26   D(6,2,44,47)           20.6235         estimate D2E/DX2                !
 ! D27   D(43,2,44,40)         -25.2836         estimate D2E/DX2                !
 ! D28   D(43,2,44,47)         133.2264         estimate D2E/DX2                !
 ! D29   D(86,2,44,40)          98.5786         estimate D2E/DX2                !
 ! D30   D(86,2,44,47)        -102.9114         estimate D2E/DX2                !
 ! D31   D(18,3,7,12)            1.1981         estimate D2E/DX2                !
 ! D32   D(18,3,7,30)          145.8102         estimate D2E/DX2                !
 ! D33   D(26,3,7,12)         -144.1967         estimate D2E/DX2                !
 ! D34   D(26,3,7,30)            0.4155         estimate D2E/DX2                !
 ! D35   D(7,3,18,16)            7.9117         estimate D2E/DX2                !
 ! D36   D(7,3,18,20)         -144.5425         estimate D2E/DX2                !
 ! D37   D(26,3,18,16)         148.8676         estimate D2E/DX2                !
 ! D38   D(26,3,18,20)          -3.5865         estimate D2E/DX2                !
 ! D39   D(7,3,26,24)          149.8925         estimate D2E/DX2                !
 ! D40   D(7,3,26,28)            5.2569         estimate D2E/DX2                !
 ! D41   D(18,3,26,24)           3.7714         estimate D2E/DX2                !
 ! D42   D(18,3,26,28)        -140.8642         estimate D2E/DX2                !
 ! D43   D(45,4,8,11)           19.235          estimate D2E/DX2                !
 ! D44   D(45,4,8,16)         -135.3212         estimate D2E/DX2                !
 ! D45   D(46,4,8,11)          137.838          estimate D2E/DX2                !
 ! D46   D(46,4,8,16)          -16.7182         estimate D2E/DX2                !
 ! D47   D(88,4,8,11)         -104.9588         estimate D2E/DX2                !
 ! D48   D(88,4,8,16)          100.4851         estimate D2E/DX2                !
 ! D49   D(8,4,45,41)          136.2873         estimate D2E/DX2                !
 ! D50   D(8,4,45,48)          -21.8782         estimate D2E/DX2                !
 ! D51   D(46,4,45,41)          23.3499         estimate D2E/DX2                !
 ! D52   D(46,4,45,48)        -134.8156         estimate D2E/DX2                !
 ! D53   D(88,4,45,41)         -99.7656         estimate D2E/DX2                !
 ! D54   D(88,4,45,48)         102.0688         estimate D2E/DX2                !
 ! D55   D(8,4,46,14)           16.8207         estimate D2E/DX2                !
 ! D56   D(8,4,46,42)         -139.6131         estimate D2E/DX2                !
 ! D57   D(45,4,46,14)         136.2381         estimate D2E/DX2                !
 ! D58   D(45,4,46,42)         -20.1957         estimate D2E/DX2                !
 ! D59   D(88,4,46,14)        -100.3877         estimate D2E/DX2                !
 ! D60   D(88,4,46,42)         103.1784         estimate D2E/DX2                !
 ! D61   D(1,5,9,13)             0.0714         estimate D2E/DX2                !
 ! D62   D(1,5,9,35)          -156.2199         estimate D2E/DX2                !
 ! D63   D(29,5,9,13)          153.2737         estimate D2E/DX2                !
 ! D64   D(29,5,9,35)           -3.0176         estimate D2E/DX2                !
 ! D65   D(1,5,29,27)            7.9843         estimate D2E/DX2                !
 ! D66   D(1,5,29,31)          160.3116         estimate D2E/DX2                !
 ! D67   D(9,5,29,27)         -145.8494         estimate D2E/DX2                !
 ! D68   D(9,5,29,31)            6.4779         estimate D2E/DX2                !
 ! D69   D(2,6,10,49)           -7.6787         estimate D2E/DX2                !
 ! D70   D(2,6,10,51)          154.3813         estimate D2E/DX2                !
 ! D71   D(15,6,10,49)        -157.5795         estimate D2E/DX2                !
 ! D72   D(15,6,10,51)           4.4806         estimate D2E/DX2                !
 ! D73   D(2,6,15,13)          -15.6254         estimate D2E/DX2                !
 ! D74   D(2,6,15,17)         -162.13           estimate D2E/DX2                !
 ! D75   D(10,6,15,13)         139.3786         estimate D2E/DX2                !
 ! D76   D(10,6,15,17)          -7.1261         estimate D2E/DX2                !
 ! D77   D(3,7,12,14)           -9.3268         estimate D2E/DX2                !
 ! D78   D(3,7,12,36)          144.4408         estimate D2E/DX2                !
 ! D79   D(30,7,12,14)        -149.7862         estimate D2E/DX2                !
 ! D80   D(30,7,12,36)           3.9814         estimate D2E/DX2                !
 ! D81   D(3,7,30,28)           -6.0104         estimate D2E/DX2                !
 ! D82   D(3,7,30,32)         -150.5644         estimate D2E/DX2                !
 ! D83   D(12,7,30,28)         139.5563         estimate D2E/DX2                !
 ! D84   D(12,7,30,32)          -4.9977         estimate D2E/DX2                !
 ! D85   D(4,8,11,50)           -2.8113         estimate D2E/DX2                !
 ! D86   D(4,8,11,52)         -157.0306         estimate D2E/DX2                !
 ! D87   D(16,8,11,50)         148.9747         estimate D2E/DX2                !
 ! D88   D(16,8,11,52)          -5.2446         estimate D2E/DX2                !
 ! D89   D(4,8,16,14)           10.8368         estimate D2E/DX2                !
 ! D90   D(4,8,16,18)          161.9226         estimate D2E/DX2                !
 ! D91   D(11,8,16,14)        -145.0269         estimate D2E/DX2                !
 ! D92   D(11,8,16,18)           6.059          estimate D2E/DX2                !
 ! D93   D(5,9,13,15)           -3.4187         estimate D2E/DX2                !
 ! D94   D(5,9,13,43)         -149.9193         estimate D2E/DX2                !
 ! D95   D(35,9,13,15)         153.9724         estimate D2E/DX2                !
 ! D96   D(35,9,13,43)           7.4717         estimate D2E/DX2                !
 ! D97   D(5,9,35,33)           -6.0324         estimate D2E/DX2                !
 ! D98   D(5,9,35,37)          149.6813         estimate D2E/DX2                !
 ! D99   D(13,9,35,33)        -162.6273         estimate D2E/DX2                !
 ! D100  D(13,9,35,37)          -6.9136         estimate D2E/DX2                !
 ! D101  D(6,10,49,47)          27.1658         estimate D2E/DX2                !
 ! D102  D(6,10,49,56)         139.0401         estimate D2E/DX2                !
 ! D103  D(6,10,49,85)         -95.9977         estimate D2E/DX2                !
 ! D104  D(51,10,49,47)       -134.7997         estimate D2E/DX2                !
 ! D105  D(51,10,49,56)        -22.9254         estimate D2E/DX2                !
 ! D106  D(51,10,49,85)        102.0368         estimate D2E/DX2                !
 ! D107  D(6,10,51,19)           1.0672         estimate D2E/DX2                !
 ! D108  D(6,10,51,53)        -150.6725         estimate D2E/DX2                !
 ! D109  D(49,10,51,19)        162.7691         estimate D2E/DX2                !
 ! D110  D(49,10,51,53)         11.0293         estimate D2E/DX2                !
 ! D111  D(8,11,50,48)         -11.6282         estimate D2E/DX2                !
 ! D112  D(8,11,50,56)        -152.8219         estimate D2E/DX2                !
 ! D113  D(52,11,50,48)        142.6377         estimate D2E/DX2                !
 ! D114  D(52,11,50,56)          1.4441         estimate D2E/DX2                !
 ! D115  D(8,11,52,20)           1.6904         estimate D2E/DX2                !
 ! D116  D(8,11,52,54)         156.4514         estimate D2E/DX2                !
 ! D117  D(50,11,52,20)       -151.9465         estimate D2E/DX2                !
 ! D118  D(50,11,52,54)          2.8145         estimate D2E/DX2                !
 ! D119  D(7,12,14,16)           8.4687         estimate D2E/DX2                !
 ! D120  D(7,12,14,46)         156.3685         estimate D2E/DX2                !
 ! D121  D(36,12,14,16)       -145.9899         estimate D2E/DX2                !
 ! D122  D(36,12,14,46)          1.9099         estimate D2E/DX2                !
 ! D123  D(7,12,36,34)           3.4931         estimate D2E/DX2                !
 ! D124  D(7,12,36,38)        -151.0131         estimate D2E/DX2                !
 ! D125  D(14,12,36,34)        156.3358         estimate D2E/DX2                !
 ! D126  D(14,12,36,38)          1.8297         estimate D2E/DX2                !
 ! D127  D(9,13,15,6)         -144.3726         estimate D2E/DX2                !
 ! D128  D(9,13,15,17)           2.5698         estimate D2E/DX2                !
 ! D129  D(43,13,15,6)           6.6734         estimate D2E/DX2                !
 ! D130  D(43,13,15,17)        153.6157         estimate D2E/DX2                !
 ! D131  D(9,13,43,2)          155.5741         estimate D2E/DX2                !
 ! D132  D(9,13,43,39)          -0.7905         estimate D2E/DX2                !
 ! D133  D(15,13,43,2)           5.0663         estimate D2E/DX2                !
 ! D134  D(15,13,43,39)       -151.2983         estimate D2E/DX2                !
 ! D135  D(12,14,16,8)         151.7483         estimate D2E/DX2                !
 ! D136  D(12,14,16,18)          0.6098         estimate D2E/DX2                !
 ! D137  D(46,14,16,8)           0.3782         estimate D2E/DX2                !
 ! D138  D(46,14,16,18)       -150.7602         estimate D2E/DX2                !
 ! D139  D(12,14,46,4)        -163.0843         estimate D2E/DX2                !
 ! D140  D(12,14,46,42)         -5.2693         estimate D2E/DX2                !
 ! D141  D(16,14,46,4)         -11.3844         estimate D2E/DX2                !
 ! D142  D(16,14,46,42)        146.4305         estimate D2E/DX2                !
 ! D143  D(6,15,17,1)          144.9859         estimate D2E/DX2                !
 ! D144  D(6,15,17,19)           3.9414         estimate D2E/DX2                !
 ! D145  D(13,15,17,1)           1.683          estimate D2E/DX2                !
 ! D146  D(13,15,17,19)       -139.3615         estimate D2E/DX2                !
 ! D147  D(8,16,18,3)         -156.1354         estimate D2E/DX2                !
 ! D148  D(8,16,18,20)          -3.0066         estimate D2E/DX2                !
 ! D149  D(14,16,18,3)          -8.7784         estimate D2E/DX2                !
 ! D150  D(14,16,18,20)        144.3504         estimate D2E/DX2                !
 ! D151  D(1,17,19,21)           3.5105         estimate D2E/DX2                !
 ! D152  D(1,17,19,51)        -142.789          estimate D2E/DX2                !
 ! D153  D(15,17,19,21)        147.9632         estimate D2E/DX2                !
 ! D154  D(15,17,19,51)          1.6638         estimate D2E/DX2                !
 ! D155  D(3,18,20,22)          -2.1583         estimate D2E/DX2                !
 ! D156  D(3,18,20,52)         150.9655         estimate D2E/DX2                !
 ! D157  D(16,18,20,22)       -153.6903         estimate D2E/DX2                !
 ! D158  D(16,18,20,52)         -0.5665         estimate D2E/DX2                !
 ! D159  D(17,19,21,23)          0.5384         estimate D2E/DX2                !
 ! D160  D(17,19,21,57)       -145.1041         estimate D2E/DX2                !
 ! D161  D(51,19,21,23)        145.6257         estimate D2E/DX2                !
 ! D162  D(51,19,21,57)         -0.0168         estimate D2E/DX2                !
 ! D163  D(17,19,51,10)         -4.1638         estimate D2E/DX2                !
 ! D164  D(17,19,51,53)        148.9581         estimate D2E/DX2                !
 ! D165  D(21,19,51,10)       -145.001          estimate D2E/DX2                !
 ! D166  D(21,19,51,53)          8.1209         estimate D2E/DX2                !
 ! D167  D(18,20,22,24)          7.7867         estimate D2E/DX2                !
 ! D168  D(18,20,22,58)        146.6816         estimate D2E/DX2                !
 ! D169  D(52,20,22,24)       -145.6436         estimate D2E/DX2                !
 ! D170  D(52,20,22,58)         -6.7487         estimate D2E/DX2                !
 ! D171  D(18,20,52,11)          1.2018         estimate D2E/DX2                !
 ! D172  D(18,20,52,54)       -153.226          estimate D2E/DX2                !
 ! D173  D(22,20,52,11)        153.9636         estimate D2E/DX2                !
 ! D174  D(22,20,52,54)         -0.4642         estimate D2E/DX2                !
 ! D175  D(19,21,23,1)          -4.3696         estimate D2E/DX2                !
 ! D176  D(19,21,23,25)       -148.9459         estimate D2E/DX2                !
 ! D177  D(57,21,23,1)         141.6336         estimate D2E/DX2                !
 ! D178  D(57,21,23,25)         -2.9427         estimate D2E/DX2                !
 ! D179  D(19,21,57,59)        143.4801         estimate D2E/DX2                !
 ! D180  D(19,21,57,83)         -7.4637         estimate D2E/DX2                !
 ! D181  D(23,21,57,59)          2.2682         estimate D2E/DX2                !
 ! D182  D(23,21,57,83)       -148.6755         estimate D2E/DX2                !
 ! D183  D(20,22,24,26)         -7.838          estimate D2E/DX2                !
 ! D184  D(20,22,24,62)        136.9544         estimate D2E/DX2                !
 ! D185  D(58,22,24,26)       -152.4363         estimate D2E/DX2                !
 ! D186  D(58,22,24,62)         -7.6439         estimate D2E/DX2                !
 ! D187  D(20,22,58,60)       -137.3775         estimate D2E/DX2                !
 ! D188  D(20,22,58,84)          7.5092         estimate D2E/DX2                !
 ! D189  D(24,22,58,60)          7.0286         estimate D2E/DX2                !
 ! D190  D(24,22,58,84)        151.9153         estimate D2E/DX2                !
 ! D191  D(1,23,25,27)           1.0116         estimate D2E/DX2                !
 ! D192  D(1,23,25,61)        -139.001          estimate D2E/DX2                !
 ! D193  D(21,23,25,27)        141.7574         estimate D2E/DX2                !
 ! D194  D(21,23,25,61)          1.7448         estimate D2E/DX2                !
 ! D195  D(22,24,26,3)           1.81           estimate D2E/DX2                !
 ! D196  D(22,24,26,28)        142.4953         estimate D2E/DX2                !
 ! D197  D(62,24,26,3)        -139.7166         estimate D2E/DX2                !
 ! D198  D(62,24,26,28)          0.9687         estimate D2E/DX2                !
 ! D199  D(22,24,62,60)          5.3618         estimate D2E/DX2                !
 ! D200  D(22,24,62,64)       -140.2771         estimate D2E/DX2                !
 ! D201  D(26,24,62,60)        150.6828         estimate D2E/DX2                !
 ! D202  D(26,24,62,64)          5.0439         estimate D2E/DX2                !
 ! D203  D(23,25,27,29)         -2.8901         estimate D2E/DX2                !
 ! D204  D(23,25,27,65)       -147.9308         estimate D2E/DX2                !
 ! D205  D(61,25,27,29)        141.204          estimate D2E/DX2                !
 ! D206  D(61,25,27,65)         -3.8366         estimate D2E/DX2                !
 ! D207  D(23,25,61,59)          0.0513         estimate D2E/DX2                !
 ! D208  D(23,25,61,63)        146.326          estimate D2E/DX2                !
 ! D209  D(27,25,61,59)       -143.5261         estimate D2E/DX2                !
 ! D210  D(27,25,61,63)          2.7486         estimate D2E/DX2                !
 ! D211  D(3,26,28,30)          -8.7804         estimate D2E/DX2                !
 ! D212  D(3,26,28,66)         135.7941         estimate D2E/DX2                !
 ! D213  D(24,26,28,30)       -152.888          estimate D2E/DX2                !
 ! D214  D(24,26,28,66)         -8.3135         estimate D2E/DX2                !
 ! D215  D(25,27,29,5)          -1.7558         estimate D2E/DX2                !
 ! D216  D(25,27,29,31)       -154.864          estimate D2E/DX2                !
 ! D217  D(65,27,29,5)         138.3538         estimate D2E/DX2                !
 ! D218  D(65,27,29,31)        -14.7544         estimate D2E/DX2                !
 ! D219  D(25,27,65,63)          3.4256         estimate D2E/DX2                !
 ! D220  D(25,27,65,67)        152.9815         estimate D2E/DX2                !
 ! D221  D(29,27,65,63)       -141.401          estimate D2E/DX2                !
 ! D222  D(29,27,65,67)          8.1549         estimate D2E/DX2                !
 ! D223  D(26,28,30,7)           9.0268         estimate D2E/DX2                !
 ! D224  D(26,28,30,32)        153.3702         estimate D2E/DX2                !
 ! D225  D(66,28,30,7)        -135.5815         estimate D2E/DX2                !
 ! D226  D(66,28,30,32)          8.7619         estimate D2E/DX2                !
 ! D227  D(26,28,66,64)          9.0153         estimate D2E/DX2                !
 ! D228  D(26,28,66,68)       -145.9373         estimate D2E/DX2                !
 ! D229  D(30,28,66,64)        147.9523         estimate D2E/DX2                !
 ! D230  D(30,28,66,68)         -7.0003         estimate D2E/DX2                !
 ! D231  D(5,29,31,33)          -0.8865         estimate D2E/DX2                !
 ! D232  D(5,29,31,69)        -147.4822         estimate D2E/DX2                !
 ! D233  D(27,29,31,33)        152.7906         estimate D2E/DX2                !
 ! D234  D(27,29,31,69)          6.1949         estimate D2E/DX2                !
 ! D235  D(7,30,32,34)          -1.5037         estimate D2E/DX2                !
 ! D236  D(7,30,32,70)         139.6588         estimate D2E/DX2                !
 ! D237  D(28,30,32,34)       -142.2971         estimate D2E/DX2                !
 ! D238  D(28,30,32,70)         -1.1347         estimate D2E/DX2                !
 ! D239  D(29,31,33,35)         -8.6149         estimate D2E/DX2                !
 ! D240  D(29,31,33,73)       -155.8187         estimate D2E/DX2                !
 ! D241  D(69,31,33,35)        141.7487         estimate D2E/DX2                !
 ! D242  D(69,31,33,73)         -5.4551         estimate D2E/DX2                !
 ! D243  D(29,31,69,67)          9.5            estimate D2E/DX2                !
 ! D244  D(29,31,69,71)        154.71           estimate D2E/DX2                !
 ! D245  D(33,31,69,67)       -140.7019         estimate D2E/DX2                !
 ! D246  D(33,31,69,71)          4.5081         estimate D2E/DX2                !
 ! D247  D(30,32,34,36)          9.3019         estimate D2E/DX2                !
 ! D248  D(30,32,34,74)        154.3479         estimate D2E/DX2                !
 ! D249  D(70,32,34,36)       -135.165          estimate D2E/DX2                !
 ! D250  D(70,32,34,74)          9.881          estimate D2E/DX2                !
 ! D251  D(30,32,70,68)         -8.038          estimate D2E/DX2                !
 ! D252  D(30,32,70,72)       -153.9917         estimate D2E/DX2                !
 ! D253  D(34,32,70,68)        136.9841         estimate D2E/DX2                !
 ! D254  D(34,32,70,72)         -8.9697         estimate D2E/DX2                !
 ! D255  D(31,33,35,9)          11.8015         estimate D2E/DX2                !
 ! D256  D(31,33,35,37)       -144.4662         estimate D2E/DX2                !
 ! D257  D(73,33,35,9)         154.0513         estimate D2E/DX2                !
 ! D258  D(73,33,35,37)         -2.2164         estimate D2E/DX2                !
 ! D259  D(31,33,73,71)          4.2715         estimate D2E/DX2                !
 ! D260  D(31,33,73,75)        147.0447         estimate D2E/DX2                !
 ! D261  D(35,33,73,71)       -142.5183         estimate D2E/DX2                !
 ! D262  D(35,33,73,75)          0.2549         estimate D2E/DX2                !
 ! D263  D(32,34,36,12)        -10.0308         estimate D2E/DX2                !
 ! D264  D(32,34,36,38)        144.5814         estimate D2E/DX2                !
 ! D265  D(74,34,36,12)       -149.6453         estimate D2E/DX2                !
 ! D266  D(74,34,36,38)          4.9669         estimate D2E/DX2                !
 ! D267  D(32,34,74,72)         -6.7885         estimate D2E/DX2                !
 ! D268  D(32,34,74,76)       -149.4677         estimate D2E/DX2                !
 ! D269  D(36,34,74,72)        137.7751         estimate D2E/DX2                !
 ! D270  D(36,34,74,76)         -4.904          estimate D2E/DX2                !
 ! D271  D(9,35,37,39)           0.0945         estimate D2E/DX2                !
 ! D272  D(9,35,37,77)        -153.7225         estimate D2E/DX2                !
 ! D273  D(33,35,37,39)        155.6048         estimate D2E/DX2                !
 ! D274  D(33,35,37,77)          1.7878         estimate D2E/DX2                !
 ! D275  D(12,36,38,42)         -2.4357         estimate D2E/DX2                !
 ! D276  D(12,36,38,78)        154.6962         estimate D2E/DX2                !
 ! D277  D(34,36,38,42)       -156.5302         estimate D2E/DX2                !
 ! D278  D(34,36,38,78)          0.6016         estimate D2E/DX2                !
 ! D279  D(35,37,39,43)          6.6844         estimate D2E/DX2                !
 ! D280  D(35,37,39,79)       -147.4197         estimate D2E/DX2                !
 ! D281  D(77,37,39,43)        160.999          estimate D2E/DX2                !
 ! D282  D(77,37,39,79)          6.8949         estimate D2E/DX2                !
 ! D283  D(35,37,77,75)          0.5125         estimate D2E/DX2                !
 ! D284  D(35,37,77,81)        142.0247         estimate D2E/DX2                !
 ! D285  D(39,37,77,75)       -154.2015         estimate D2E/DX2                !
 ! D286  D(39,37,77,81)        -12.6892         estimate D2E/DX2                !
 ! D287  D(36,38,42,46)         -0.761          estimate D2E/DX2                !
 ! D288  D(36,38,42,80)        163.8577         estimate D2E/DX2                !
 ! D289  D(78,38,42,46)       -157.807          estimate D2E/DX2                !
 ! D290  D(78,38,42,80)          6.8118         estimate D2E/DX2                !
 ! D291  D(36,38,78,76)         -6.2902         estimate D2E/DX2                !
 ! D292  D(36,38,78,81)       -144.2322         estimate D2E/DX2                !
 ! D293  D(42,38,78,76)        151.1682         estimate D2E/DX2                !
 ! D294  D(42,38,78,81)         13.2261         estimate D2E/DX2                !
 ! D295  D(37,39,43,2)        -159.2698         estimate D2E/DX2                !
 ! D296  D(37,39,43,13)         -6.4063         estimate D2E/DX2                !
 ! D297  D(79,39,43,2)          -4.5025         estimate D2E/DX2                !
 ! D298  D(79,39,43,13)        148.361          estimate D2E/DX2                !
 ! D299  D(37,39,79,40)        141.4942         estimate D2E/DX2                !
 ! D300  D(37,39,79,82)          1.1327         estimate D2E/DX2                !
 ! D301  D(43,39,79,40)        -13.0561         estimate D2E/DX2                !
 ! D302  D(43,39,79,82)       -153.4177         estimate D2E/DX2                !
 ! D303  D(44,40,41,45)         -4.8244         estimate D2E/DX2                !
 ! D304  D(44,40,41,80)       -160.5294         estimate D2E/DX2                !
 ! D305  D(79,40,41,45)        146.3312         estimate D2E/DX2                !
 ! D306  D(79,40,41,80)         -9.3738         estimate D2E/DX2                !
 ! D307  D(41,40,44,2)         157.9102         estimate D2E/DX2                !
 ! D308  D(41,40,44,47)         -1.1173         estimate D2E/DX2                !
 ! D309  D(79,40,44,2)          10.7508         estimate D2E/DX2                !
 ! D310  D(79,40,44,47)       -148.2767         estimate D2E/DX2                !
 ! D311  D(41,40,79,39)       -140.6773         estimate D2E/DX2                !
 ! D312  D(41,40,79,82)          4.5341         estimate D2E/DX2                !
 ! D313  D(44,40,79,39)         10.1365         estimate D2E/DX2                !
 ! D314  D(44,40,79,82)        155.3479         estimate D2E/DX2                !
 ! D315  D(40,41,45,4)        -152.7675         estimate D2E/DX2                !
 ! D316  D(40,41,45,48)          5.5628         estimate D2E/DX2                !
 ! D317  D(80,41,45,4)          -0.5977         estimate D2E/DX2                !
 ! D318  D(80,41,45,48)        157.7326         estimate D2E/DX2                !
 ! D319  D(40,41,80,42)        128.0131         estimate D2E/DX2                !
 ! D320  D(40,41,80,82)          9.8264         estimate D2E/DX2                !
 ! D321  D(40,41,80,87)       -109.649          estimate D2E/DX2                !
 ! D322  D(45,41,80,42)        -26.5216         estimate D2E/DX2                !
 ! D323  D(45,41,80,82)       -144.7083         estimate D2E/DX2                !
 ! D324  D(45,41,80,87)         95.8163         estimate D2E/DX2                !
 ! D325  D(38,42,46,4)         158.2301         estimate D2E/DX2                !
 ! D326  D(38,42,46,14)          4.5696         estimate D2E/DX2                !
 ! D327  D(80,42,46,4)          -6.9653         estimate D2E/DX2                !
 ! D328  D(80,42,46,14)       -160.6257         estimate D2E/DX2                !
 ! D329  D(38,42,80,41)       -135.8432         estimate D2E/DX2                !
 ! D330  D(38,42,80,82)        -24.6142         estimate D2E/DX2                !
 ! D331  D(38,42,80,87)        100.7409         estimate D2E/DX2                !
 ! D332  D(46,42,80,41)         29.0933         estimate D2E/DX2                !
 ! D333  D(46,42,80,82)        140.3223         estimate D2E/DX2                !
 ! D334  D(46,42,80,87)        -94.3226         estimate D2E/DX2                !
 ! D335  D(2,44,47,48)        -152.6633         estimate D2E/DX2                !
 ! D336  D(2,44,47,49)          -0.3916         estimate D2E/DX2                !
[...]
 Alpha virt. eigenvalues --    1.17898   1.18076   1.18212   1.18641   1.18885
 Alpha virt. eigenvalues --    1.19022   1.19330   1.19885   1.19961   1.20362
 Alpha virt. eigenvalues --    1.20657   1.20975   1.21269   1.21526   1.21700
 Alpha virt. eigenvalues --    1.22038   1.22380   1.22731   1.23051   1.23327
 Alpha virt. eigenvalues --    1.23520   1.23869   1.24034   1.24527   1.24816
 Alpha virt. eigenvalues --    1.24881   1.25375   1.25644   1.25995   1.26235
 Alpha virt. eigenvalues --    1.26478   1.26639   1.27041   1.27633   1.27968
 Alpha virt. eigenvalues --    1.28271   1.28477   1.28738   1.28930   1.29051
 Alpha virt. eigenvalues --    1.29480   1.30001   1.30069   1.30697   1.30841
 Alpha virt. eigenvalues --    1.31182   1.31307   1.31654   1.32002   1.32219
 Alpha virt. eigenvalues --    1.32903   1.33135   1.33677   1.33818   1.34098
 Alpha virt. eigenvalues --    1.34822   1.35169   1.35367   1.36026   1.36133
 Alpha virt. eigenvalues --    1.36775   1.37153   1.37674   1.37928   1.38573
 Alpha virt. eigenvalues --    1.38975   1.39541   1.39876   1.40940   1.41209
 Alpha virt. eigenvalues --    1.42012   1.42679   1.43047   1.43518   1.43991
 Alpha virt. eigenvalues --    1.44728   1.44989   1.45391   1.45688   1.46449
 Alpha virt. eigenvalues --    1.47185   1.47671   1.48133   1.48582   1.49048
 Alpha virt. eigenvalues --    1.49547   1.50294   1.50581   1.51023   1.51751
 Alpha virt. eigenvalues --    1.51842   1.52348   1.52865   1.53609   1.53970
 Alpha virt. eigenvalues --    1.54711   1.55365   1.55706   1.55928   1.56626
 Alpha virt. eigenvalues --    1.56752   1.57072   1.57750   1.58411   1.58781
 Alpha virt. eigenvalues --    1.59402   1.59551   1.60355   1.60591   1.61581
 Alpha virt. eigenvalues --    1.61897   1.62727   1.62872   1.63201   1.63708
 Alpha virt. eigenvalues --    1.64163   1.64259   1.64630   1.64895   1.65151
 Alpha virt. eigenvalues --    1.65239   1.65436   1.66135   1.66266   1.66342
 Alpha virt. eigenvalues --    1.66520   1.66944   1.67144   1.67557   1.67959
 Alpha virt. eigenvalues --    1.68084   1.68531   1.68602   1.68835   1.69030
 Alpha virt. eigenvalues --    1.69301   1.69558   1.69998   1.70352   1.70581
 Alpha virt. eigenvalues --    1.70753   1.70964   1.71013   1.71134   1.71657
 Alpha virt. eigenvalues --    1.71736   1.72287   1.72465   1.72730   1.73127
 Alpha virt. eigenvalues --    1.73282   1.73517   1.73758   1.73816   1.73943
 Alpha virt. eigenvalues --    1.74062   1.74341   1.74626   1.74873   1.74956
 Alpha virt. eigenvalues --    1.75308   1.75491   1.75766   1.75905   1.76056
 Alpha virt. eigenvalues --    1.76131   1.76548   1.76742   1.76905   1.77107
 Alpha virt. eigenvalues --    1.77351   1.77560   1.77852   1.78229   1.78532
 Alpha virt. eigenvalues --    1.78776   1.79226   1.79784   1.79876   1.80051
 Alpha virt. eigenvalues --    1.80415   1.80697   1.81591   1.82157   1.82255
 Alpha virt. eigenvalues --    1.82396   1.82793   1.83708   1.84017   1.84540
 Alpha virt. eigenvalues --    1.84904   1.85015   1.85762   1.86052   1.86732
 Alpha virt. eigenvalues --    1.86824   1.86981   1.87641   1.89087   1.89446
 Alpha virt. eigenvalues --    1.90125   1.90569   1.90929   1.91081   1.91323
 Alpha virt. eigenvalues --    1.91493   1.92138   1.92325   1.92802   1.93358
 Alpha virt. eigenvalues --    1.93799   1.94301   1.94408   1.94739   1.94816
 Alpha virt. eigenvalues --    1.95177   1.95730   1.95946   1.96180   1.96493
 Alpha virt. eigenvalues --    1.96695   1.96941   1.97335   1.97675   1.97853
 Alpha virt. eigenvalues --    1.98045   1.98470   1.98592   1.98926   1.99181
 Alpha virt. eigenvalues --    1.99388   1.99801   1.99862   2.00212   2.00278
 Alpha virt. eigenvalues --    2.00460   2.00633   2.00953   2.01209   2.01396
 Alpha virt. eigenvalues --    2.01479   2.01870   2.02077   2.02481   2.02666
 Alpha virt. eigenvalues --    2.02749   2.02862   2.03278   2.03483   2.03744
 Alpha virt. eigenvalues --    2.04085   2.04342   2.04668   2.04731   2.05154
 Alpha virt. eigenvalues --    2.05616   2.05816   2.06049   2.06097   2.06605
 Alpha virt. eigenvalues --    2.06797   2.07648   2.08416   2.08969   2.09571
 Alpha virt. eigenvalues --    2.10515   2.10793   2.10867   2.11116   2.11531
 Alpha virt. eigenvalues --    2.11954   2.12325   2.12756   2.12915   2.13587
 Alpha virt. eigenvalues --    2.13698   2.14008   2.14269   2.15022   2.15671
 Alpha virt. eigenvalues --    2.15774   2.16404   2.17116   2.17627   2.17747
 Alpha virt. eigenvalues --    2.18096   2.18784   2.19534   2.19910   2.20467
 Alpha virt. eigenvalues --    2.20853   2.21026   2.21813   2.22044   2.22274
 Alpha virt. eigenvalues --    2.22464   2.22922   2.23681   2.23974   2.24309
 Alpha virt. eigenvalues --    2.24538   2.24987   2.25196   2.25435   2.25637
 Alpha virt. eigenvalues --    2.25926   2.26882   2.27044   2.27337   2.27942
 Alpha virt. eigenvalues --    2.28147   2.28518   2.28963   2.29157   2.29607
 Alpha virt. eigenvalues --    2.30059   2.30512   2.30696   2.30999   2.31248
 Alpha virt. eigenvalues --    2.31793   2.32214   2.32743   2.33068   2.33944
 Alpha virt. eigenvalues --    2.34067   2.35374   2.36303   2.36754   2.37347
 Alpha virt. eigenvalues --    2.37908   2.38578   2.38930   2.39757   2.40392
 Alpha virt. eigenvalues --    2.40462   2.41404   2.41696   2.42452   2.42644
 Alpha virt. eigenvalues --    2.42790   2.43153   2.43913   2.44349   2.45322
 Alpha virt. eigenvalues --    2.45656   2.46079   2.46263   2.46881   2.46992
 Alpha virt. eigenvalues --    2.47716   2.49226   2.49959   2.50465   2.50648
 Alpha virt. eigenvalues --    2.51150   2.51322   2.51676   2.52215   2.52398
 Alpha virt. eigenvalues --    2.53294   2.54022   2.54477   2.54495   2.54755
 Alpha virt. eigenvalues --    2.55032   2.55139   2.55651   2.56301   2.56388
 Alpha virt. eigenvalues --    2.56842   2.56912   2.57391   2.57784   2.57929
 Alpha virt. eigenvalues --    2.58268   2.58577   2.58983   2.59154   2.59469
 Alpha virt. eigenvalues --    2.59724   2.59866   2.60602   2.60968   2.61086
 Alpha virt. eigenvalues --    2.61280   2.61691   2.61884   2.62148   2.62519
 Alpha virt. eigenvalues --    2.62749   2.63125   2.63494   2.63860   2.64357
 Alpha virt. eigenvalues --    2.64634   2.64898   2.65297   2.65653   2.65834
 Alpha virt. eigenvalues --    2.66257   2.66452   2.66861   2.66989   2.67256
 Alpha virt. eigenvalues --    2.67455   2.67939   2.68327   2.68495   2.68923
 Alpha virt. eigenvalues --    2.69112   2.70197   2.70575   2.71109   2.71409
 Alpha virt. eigenvalues --    2.71651   2.71852   2.72401   2.72747   2.73535
 Alpha virt. eigenvalues --    2.73836   2.74064   2.74693   2.75195   2.76111
 Alpha virt. eigenvalues --    2.76838   2.77064   2.77684   2.78425   2.78659
 Alpha virt. eigenvalues --    2.78834   2.79336   2.79818   2.80486   2.81044
 Alpha virt. eigenvalues --    2.81460   2.81760   2.82096   2.82311   2.82430
 Alpha virt. eigenvalues --    2.82744   2.83788   2.84112   2.84494   2.84866
 Alpha virt. eigenvalues --    2.85117   2.85287   2.85915   2.86326   2.86666
 Alpha virt. eigenvalues --    2.87493   2.87910   2.88406   2.89055   2.89685
 Alpha virt. eigenvalues --    2.89842   2.90118   2.90675   2.90864   2.91392
 Alpha virt. eigenvalues --    2.91544   2.91862   2.92048   2.93091   2.93516
 Alpha virt. eigenvalues --    2.93896   2.94040   2.94471   2.95328   2.95948
 Alpha virt. eigenvalues --    2.96183   2.96786   2.97677   2.98406   2.99497
 Alpha virt. eigenvalues --    3.00145   3.01535   3.01997   3.02565   3.04246
 Alpha virt. eigenvalues --    3.05602   3.06281   3.06883   3.08253   3.08861
 Alpha virt. eigenvalues --    3.10445   3.12310   3.13952   3.15332   3.16802
 Alpha virt. eigenvalues --    3.18542   3.19167   3.20268   3.22239   3.24560
 Alpha virt. eigenvalues --    3.26250   3.27042   3.28268   3.29046   3.30526
 Alpha virt. eigenvalues --    3.31535   3.32584   3.35076   3.37330   3.39773
 Alpha virt. eigenvalues --    3.41407   3.42113   3.42874   3.45258   3.45674
 Alpha virt. eigenvalues --    3.46474   3.49653   3.50559   3.54261   3.55278
 Alpha virt. eigenvalues --    3.55745   3.60504   4.01261   4.01589   4.01866
 Alpha virt. eigenvalues --    4.02125   4.02680   4.03843   4.04438   4.05112
 Alpha virt. eigenvalues --    4.05279   4.06254   4.06519   4.06574   4.07454
 Alpha virt. eigenvalues --    4.07717   4.08666   4.08770   4.09865   4.10324
 Alpha virt. eigenvalues --    4.11666   4.11811   4.12633   4.13363   4.13534
 Alpha virt. eigenvalues --    4.14589   4.16554   4.17452   4.17882   4.19402
 Alpha virt. eigenvalues --    4.19638   4.20393   4.20756   4.21430   4.21831
 Alpha virt. eigenvalues --    4.22203   4.24014   4.24345   4.26430   4.27656
 Alpha virt. eigenvalues --    4.27724   4.28535   4.28973   4.29888   4.30974
 Alpha virt. eigenvalues --    4.31219   4.31700   4.32507   4.34354   4.37561
 Alpha virt. eigenvalues --    4.38463   4.39792   4.40283   4.42165   4.43471
 Alpha virt. eigenvalues --    4.45415   4.46416   4.47244   4.48649   4.50739
 Alpha virt. eigenvalues --    4.50954   4.52724   4.53256   4.55705   4.56762
 Alpha virt. eigenvalues --    4.58687   4.59115   4.62393   4.64403   4.65529
 Alpha virt. eigenvalues --    4.67531   4.68237   4.68820   4.72904   4.79460
 Alpha virt. eigenvalues --    4.80116   4.82871   4.83890   4.85351   4.87907
 Alpha virt. eigenvalues --    4.92998   4.94089   4.97950   5.00234   5.05619
 Alpha virt. eigenvalues --    5.11844   5.15026   5.16509   5.22181   5.23997
          Condensed to atoms (all electrons):
 Mulliken charges:
               1
     1  C   -0.021646
     2  C   -0.364909
     3  C   -0.017062
     4  C   -0.371769
     5  C    0.051991
     6  C    0.081144
     7  C   -0.017766
     8  C    0.048586
     9  C    0.029863
    10  C    0.121518
    11  C    0.061486
    12  C    0.049833
    13  C    0.020268
    14  C    0.007340
    15  C    0.019977
    16  C    0.016576
    17  C   -0.020165
    18  C    0.044696
    19  C   -0.025617
    20  C    0.042635
    21  C   -0.021709
    22  C   -0.021752
    23  C    0.000102
    24  C   -0.010766
    25  C   -0.021818
    26  C   -0.012055
    27  C   -0.023941
    28  C   -0.021367
    29  C    0.052216
    30  C   -0.015808
    31  C   -0.031834
    32  C   -0.008985
    33  C   -0.026226
    34  C   -0.021575
    35  C    0.036218
    36  C    0.041767
    37  C    0.042904
    38  C    0.070408
    39  C    0.057220
    40  C    0.035125
    41  C    0.078575
    42  C    0.118152
    43  C    0.047859
    44  C    0.143863
    45  C    0.144315
    46  C    0.080837
    47  C    0.078459
    48  C    0.036477
    49  C   -0.365781
    50  C   -0.012066
    51  C    0.085726
    52  C    0.044885
    53  C   -0.037743
    54  C   -0.024169
    55  C    0.003546
    56  C    0.081017
    57  C    0.056373
    58  C   -0.010684
    59  C    0.059283
    60  C   -0.023945
    61  C   -0.025729
    62  C   -0.022985
    63  C   -0.029786
    64  C    0.052229
    65  C   -0.030360
    66  C    0.047709
    67  C    0.052000
    68  C    0.047000
    69  C   -0.027141
    70  C   -0.024407
    71  C   -0.009455
    72  C    0.003499
    73  C   -0.012240
    74  C   -0.009762
    75  C   -0.000735
    76  C    0.000794
    77  C   -0.021318
    78  C   -0.039744
    79  C   -0.007957
    80  C   -0.364799
    81  C    0.005431
    82  C    0.078385
    83  C   -0.017371
    84  C   -0.015389
    85  Cl  -0.008141
    86  Cl  -0.029846
    87  Cl  -0.010070
    88  Cl  -0.019892
 Sum of Mulliken charges =  -0.00000
 Mulliken charges with hydrogens summed into heavy atoms:
               1
     1  C   -0.021646
     2  C   -0.364909
     3  C   -0.017062
     4  C   -0.371769
     5  C    0.051991
     6  C    0.081144
     7  C   -0.017766
     8  C    0.048586
     9  C    0.029863
    10  C    0.121518
    11  C    0.061486
    12  C    0.049833
    13  C    0.020268
    14  C    0.007340
    15  C    0.019977
    16  C    0.016576
    17  C   -0.020165
    18  C    0.044696
    19  C   -0.025617
    20  C    0.042635
    21  C   -0.021709
    22  C   -0.021752
    23  C    0.000102
    24  C   -0.010766
    25  C   -0.021818
    26  C   -0.012055
    27  C   -0.023941
    28  C   -0.021367
    29  C    0.052216
    30  C   -0.015808
    31  C   -0.031834
    32  C   -0.008985
    33  C   -0.026226
    34  C   -0.021575
    35  C    0.036218
    36  C    0.041767
    37  C    0.042904
    38  C    0.070408
    39  C    0.057220
    40  C    0.035125
    41  C    0.078575
    42  C    0.118152
    43  C    0.047859
    44  C    0.143863
    45  C    0.144315
    46  C    0.080837
    47  C    0.078459
    48  C    0.036477
    49  C   -0.365781
    50  C   -0.012066
    51  C    0.085726
    52  C    0.044885
    53  C   -0.037743
    54  C   -0.024169
    55  C    0.003546
    56  C    0.081017
    57  C    0.056373
    58  C   -0.010684
    59  C    0.059283
    60  C   -0.023945
    61  C   -0.025729
    62  C   -0.022985
    63  C   -0.029786
    64  C    0.052229
    65  C   -0.030360
    66  C    0.047709
    67  C    0.052000
    68  C    0.047000
    69  C   -0.027141
    70  C   -0.024407
    71  C   -0.009455
    72  C    0.003499
    73  C   -0.012240
    74  C   -0.009762
    75  C   -0.000735
    76  C    0.000794
    77  C   -0.021318
    78  C   -0.039744
    79  C   -0.007957
    80  C   -0.364799
    81  C    0.005431
    82  C    0.078385
    83  C   -0.017371
    84  C   -0.015389
    85  Cl  -0.008141
    86  Cl  -0.029846
    87  Cl  -0.010070
    88  Cl  -0.019892
 Electronic spatial extent (au):  <R**2>=          42143.5202
 Charge=             -0.0000 electrons
 Dipole moment (field-independent basis, Debye):
    X=             -4.7422    Y=             -0.3927    Z=              0.1101  Tot=              4.7597
 Quadrupole moment (field-independent basis, Debye-Ang):
   XX=           -529.7358   YY=           -513.5947   ZZ=           -506.1786
   XY=             -3.2900   XZ=             -0.3351   YZ=             -2.8811
 Traceless Quadrupole moment (field-independent basis, Debye-Ang):
   XX=            -13.2327   YY=              2.9083   ZZ=             10.3244
   XY=             -3.2900   XZ=             -0.3351   YZ=             -2.8811
 Octapole moment (field-independent basis, Debye-Ang**2):
  XXX=              1.7572  YYY=            -12.7236  ZZZ=              3.7238  XYY=            -26.7955
  XXY=             21.1219  XXZ=             15.2652  XZZ=              7.6642  YZZ=              3.8790
  YYZ=             -9.2219  XYZ=            -19.8366
 Hexadecapole moment (field-independent basis, Debye-Ang**3):
 XXXX=         -23934.4530 YYYY=         -20717.9226 ZZZZ=         -17332.1320 XXXY=             80.4241
 XXXZ=             32.1565 YYYX=            -81.3721 YYYZ=             78.9334 ZZZX=             -0.4089
 ZZZY=             35.4153 XXYY=          -7590.2508 XXZZ=          -6940.1628 YYZZ=          -6341.2523
 XXYZ=            -40.9151 YYXZ=            -31.0037 ZZXY=             -7.5668
 N-N= 1.713815207848D+04 E-N=-4.605429205508D+04  KE= 5.006192153141D+03
 No NMR shielding tensors so no spin-rotation constants.
 Leave Link  601 at Tue Jun 28 14:56:20 2022, MaxMem=  1342177280 cpu:              22.7 elap:               1.2
 (Enter /home/mkliu/g16/l9999.exe)
 1\1\GINC-NODE05\FOpt\RB3LYP\6-31G(d,p)\C84Cl4\MKLIU\28-Jun-2022\0\\#P 
 opt b3lyp/6-31G(d, p) empiricaldispersion=GD3\\force\\0,1\C,8.52112615
 86,18.9725062462,10.7976589926\C,12.6316354261,20.04172737,8.851961201
 4\C,8.2789142227,26.7926440957,10.5708124136\C,12.5056231934,25.684717
 734,8.866681827\C,8.0394820697,19.1573026612,9.4782733385\C,12.0739701
 528,19.7531470334,10.2389803654\C,7.9632749899,26.8045730249,9.1749432
 781\C,11.8507799156,25.9057280021,10.2248754884\C,9.0071180719,19.2543
 855185,8.3846539971\C,12.3066227236,20.4963519109,11.3722925806\C,12.0
 976944767,25.1383697037,11.3596855919\C,8.9522058636,26.5978866274,8.1
 7919456\C,10.3875575023,19.1636051848,8.7106874232\C,10.2866789202,26.
 5720737074,8.6468794697\C,10.8388337012,19.0426623258,10.0723737944\C,
 10.6088650126,26.5740105205,10.040720596\C,9.9251577661,18.9625138768,
 11.0945131242\C,9.6038369872,26.5878847794,11.0416480463\C,10.16998721
 03,19.6738223918,12.3246646585\C,9.8405267839,25.8440242193,12.2714356
 241\C,8.8899207337,20.0703011978,12.8456074415\C,8.6973637046,25.38547
 19623,12.9810545062\C,7.873034843,19.5814068874,11.9363347379\C,7.3680
 118275,25.499046673,12.415068262\C,6.6852613451,20.2645724371,11.78236
 28629\C,7.1583381182,26.1976638127,11.2569244544\C,6.0887105882,20.353
 6468388,10.4808283534\C,6.1932812093,25.7321643361,10.2769794397\C,6.7
 370497728,19.8006559945,9.3388001828\C,6.6427125022,26.2317538747,9.01
 44106977\C,6.4014365084,20.3758292181,8.0989009691\C,6.3221015311,25.5
 731280018,7.8543378211\C,7.3216682758,20.3664341386,6.9864364342\C,7.2
 839209988,25.4734897221,6.7646615377\C,8.6661761411,19.9286996752,7.14
 74711195\C,8.6326827067,25.8833846253,6.9477105275\C,9.7052648904,20.6
 055066768,6.3786501611\C,9.6882559033,25.1412738872,6.2664757334\C,11.
 0836752915,20.593161218,6.8539480562\C,12.8679440835,22.1793681126,7.5
 626411882\C,12.8794038567,23.6037990255,7.5597311431\C,11.0545224691,2
 5.1680839644,6.8026822388\C,11.3990096193,19.8185057082,7.9729773192\C
 ,13.1498957237,21.4463490813,8.7411379099\C,13.0831994655,24.309713673
 1,8.7267698662\C,11.3264517799,25.9052891493,7.9227606802\C,13.4682597
 897,22.1565100484,9.8791017326\C,13.3918847833,23.5798464949,9.8977235
 226\C,13.3317600705,21.6156020948,11.2958561173\C,12.9830374125,24.006
 1850633,11.2023293083\C,11.3231408738,20.478913182,12.4583841489\C,11.
 0877621673,25.1030560375,12.4257659953\C,11.183513765,21.6225418343,13
 .3018710575\C,11.0950311754,23.9781336643,13.2816705745\C,11.944014718
 ,22.8266153037,13.0260993453\C,12.8837232236,22.8656575762,12.03215188
 99\C,8.7159208106,21.2960494504,13.5323987672\C,8.7105022123,24.160693
 295,13.7117448705\C,7.4564483412,22.0358233874,13.353283919\C,7.464603
 8726,23.4478451308,13.4710447878\C,6.4597110933,21.4991840772,12.48986
 92531\C,6.630889888,24.2807376908,12.6591796201\C,5.6613748856,22.3305
 515687,11.640084116\C,5.779208736,23.7390288247,11.6501907345\C,5.4110
 846756,21.613791959,10.4073035273\C,5.5644534346,24.4717010601,10.3959
 537796\C,5.2129941281,22.2804008294,9.178760468\C,5.2515914649,23.7451
 532918,9.1581714529\C,5.5672914707,21.54703316,8.0078291836\C,5.550534
 0901,24.3634269845,7.9161810899\C,5.9124237621,22.2157082351,6.7891569
 741\C,5.8995778875,23.5969544435,6.7347845689\C,6.9810921372,21.467974
 7458,6.1429296427\C,6.9522092474,24.3036818405,6.0250025563\C,7.975643
 1814,22.1360874627,5.44453805\C,7.9690961128,23.5930173349,5.381566157
 2\C,9.3270342578,21.6854998451,5.5346854984\C,9.3124458246,24.04759006
 76,5.4511540484\C,11.9255549869,21.7287175826,6.5863879719\C,12.086239
 4736,24.1321218291,6.3705344607\C,10.168703648,22.8492932541,5.3926480
 89\C,11.4378784671,22.8575194888,5.8805348559\C,9.9169247366,22.019849
 3972,13.8133967814\C,9.8956601043,23.4705762226,13.8700559388\Cl,14.97
 16137137,21.024339647,11.9323123271\Cl,13.9746613739,18.8136861743,8.4
 089338156\Cl,13.2170782434,24.8583820852,5.0900600193\Cl,13.81752037,2
 6.986786425,8.5817811306\\Version=ES64L-G16RevA.03\State=1-A\HF=-5041.
 8001913\RMSD=3.884e-09\RMSF=9.135e-05\Dipole=-1.828149,0.1673572,0.369
 5801\Quadrupole=-9.3109177,3.6857646,5.6251531,0.3098091,4.0307626,2.9
 194067\PG=C01 [X(C84Cl4)]\\@


 OF ALL THE WONDERS OF THE UNIVERSE, THE GREATEST IS MAN.

                                    -- ARISTOTLE
 Job cpu time:       1 days  5 hours  5 minutes 59.4 seconds.
 Elapsed time:       0 days  1 hours 12 minutes 51.3 seconds.
 File lengths (MBytes):  RWF=   1098 Int=      0 D2E=      0 Chk=    138 Scr=      1
 Normal termination of Gaussian 16 at Tue Jun 28 14:56:22 2022.
