 Entering Gaussian System, Link 0=g16
 Input=4_addons_C84_11_mirror_Cl22_rank_3.gjf
 Output=4_addons_C84_11_mirror_Cl22_rank_3.log
 Initial command:
 /home/mkliu/g16/l1.exe "/data/scratch/Gau-198834.inp" -scrdir="/data/scratch/"
 Entering Link 1 = /home/mkliu/g16/l1.exe PID=    198835.
  
 Copyright (c) 1988,1990,1992,1993,1995,1998,2003,2009,2016,
            Gaussian, Inc.  All Rights Reserved.
  
 This is part of the Gaussian(R) 16 program.  It is based on
 the Gaussian(R) 09 system (copyright 2009, Gaussian, Inc.),
 the Gaussian(R) 03 system (copyright 2003, Gaussian, Inc.),
 the Gaussian(R) 98 system (copyright 1998, Gaussian, Inc.),
 the Gaussian(R) 94 system (copyright 1995, Gaussian, Inc.),
 the Gaussian 92(TM) system (copyright 1992, Gaussian, Inc.),
 the Gaussian 90(TM) system (copyright 1990, Gaussian, Inc.),
 the Gaussian 88(TM) system (copyright 1988, Gaussian, Inc.),
 the Gaussian 86(TM) system (copyright 1986, Carnegie Mellon
 University), and the Gaussian 82(TM) system (copyright 1983,
 Carnegie Mellon University). Gaussian is a federally registered
 trademark of Gaussian, Inc.
  
 This software contains proprietary and confidential information,
 including trade secrets, belonging to Gaussian, Inc.
  
 This software is provided under written license and may be
 used, copied, transmitted, or stored only in accord with that
 written license.
  
 The following legend is applicable only to US Government
 contracts under FAR:
  
                    RESTRICTED RIGHTS LEGEND
  
 Use, reproduction and disclosure by the US Government is
 subject to restrictions as set forth in subparagraphs (a)
 and (c) of the Commercial Computer Software - Restricted
 Rights clause in FAR 52.227-19.
  
 Gaussian, Inc.
 340 Quinnipiac St., Bldg. 40, Wallingford CT 06492
  
  
 ---------------------------------------------------------------
 Warning -- This program may not be used in any manner that
 competes with the business of Gaussian, Inc. or will provide
 assistance to any competitor of Gaussian, Inc.  The licensee
 of this program is prohibited from giving any competitor of
 Gaussian, Inc. access to this program.  By using this program,
 the user acknowledges that Gaussian, Inc. is engaged in the
 business of creating and licensing software in the field of
 computational chemistry and represents and warrants to the
 licensee that it is not a competitor of Gaussian, Inc. and that
 it will not use this program in any manner prohibited above.
 ---------------------------------------------------------------
  

 Cite this work as:
 Gaussian 16, Revision A.03,
 M. J. Frisch, G. W. Trucks, H. B. Schlegel, G. E. Scuseria, 
 M. A. Robb, J. R. Cheeseman, G. Scalmani, V. Barone, 
 G. A. Petersson, H. Nakatsuji, X. Li, M. Caricato, A. V. Marenich, 
 J. Bloino, B. G. Janesko, R. Gomperts, B. Mennucci, H. P. Hratchian, 
 J. V. Ortiz, A. F. Izmaylov, J. L. Sonnenberg, D. Williams-Young, 
 F. Ding, F. Lipparini, F. Egidi, J. Goings, B. Peng, A. Petrone, 
 T. Henderson, D. Ranasinghe, V. G. Zakrzewski, J. Gao, N. Rega, 
 G. Zheng, W. Liang, M. Hada, M. Ehara, K. Toyota, R. Fukuda, 
 J. Hasegawa, M. Ishida, T. Nakajima, Y. Honda, O. Kitao, H. Nakai, 
 T. Vreven, K. Throssell, J. A. Montgomery, Jr., J. E. Peralta, 
 F. Ogliaro, M. J. Bearpark, J. J. Heyd, E. N. Brothers, K. N. Kudin, 
 V. N. Staroverov, T. A. Keith, R. Kobayashi, J. Normand, 
 K. Raghavachari, A. P. Rendell, J. C. Burant, S. S. Iyengar, 
 J. Tomasi, M. Cossi, J. M. Millam, M. Klene, C. Adamo, R. Cammi, 
 J. W. Ochterski, R. L. Martin, K. Morokuma, O. Farkas, 
 J. B. Foresman, and D. J. Fox, Gaussian, Inc., Wallingford CT, 2016.
 
 ******************************************
 Gaussian 16:  ES64L-G16RevA.03 25-Dec-2016
                30-Jun-2022 
 ******************************************
 %mem=10GB
 %chk=4_addons_C84_11_mirror_Cl22_rank_3.chk
 %nprocshared=24
 Will use up to   24 processors via shared memory.
 ------------------------------------------------
 #P opt b3lyp/6-31G(d, p) empiricaldispersion=GD3
 ------------------------------------------------
 1/18=20,19=15,26=3,38=1/1,3;
 2/9=110,12=2,17=6,18=5,40=1/2;
 3/5=1,6=6,7=101,11=2,25=1,30=1,71=1,74=-5,124=31/1,2,3;
 4//1;
 5/5=2,38=5/2;
 6/7=2,8=2,9=2,10=2,28=1/1;
 7//1,2,3,16;
 1/18=20,19=15,26=3/3(2);
 2/9=110/2;
 99//99;
 2/9=110/2;
 3/5=1,6=6,7=101,11=2,25=1,30=1,71=1,74=-5,124=31/1,2,3;
 4/5=5,16=3,69=1/1;
 5/5=2,38=5/2;
 7//1,2,3,16;
 1/18=20,19=15,26=3/3(-5);
 2/9=110/2;
 6/7=2,8=2,9=2,10=2,19=2,28=1/1;
 99/9=1/99;
 Leave Link    1 at Thu Jun 30 02:52:07 2022, MaxMem=  1342177280 cpu:               0.7 elap:               0.1
 (Enter /home/mkliu/g16/l101.exe)
 -----
 force
 -----
 Symbolic Z-matrix:
 Charge =  0 Multiplicity = 1
 C                     8.5371    18.99923   10.7887 
 C                     12.62562   20.0746   8.85035 
 C                     8.29018   26.78075   10.5649 
 C                     12.28962   25.4999   8.93695 
 C                     8.05908   19.19385   9.47729 
 C                     12.07249   19.79886   10.23325 
 C                     7.98036   26.80468   9.17594 
 C                     11.83556   25.8975   10.22291 
 C                     9.01914   19.33492   8.40676 
 C                     12.29845   20.53108   11.37014 
 C                     12.08402   25.13217   11.38048 
 C                     8.96302   26.61432   8.1816 
 C                     10.38741   19.23941   8.72343 
 C                     10.28774   26.61233   8.65795 
 C                     10.84926   19.09211   10.06975 
 C                     10.60129   26.60338   10.05061 
 C                     9.93373   19.00484   11.08697 
 C                     9.6105    26.58454   11.04248 
 C                     10.17208   19.70839   12.30876 
 C                     9.85      25.83607   12.26058 
 C                     8.90293   20.08591   12.83411 
 C                     8.71377   25.37438   12.95246 
 C                     7.89749   19.59425   11.92386 
 C                     7.39518   25.48559   12.39978 
 C                     6.72265   20.28866   11.76365 
 C                     7.17666   26.18437   11.24258 
 C                     6.12978   20.37724   10.46596 
 C                     6.2204    25.7214   10.27829 
 C                     6.77321   19.82322   9.33945 
 C                     6.67734   26.22295   9.02272 
 C                     6.44455   20.40873   8.10458 
 C                     6.35607   25.56536   7.86565 
 C                     7.34118   20.40261   7.00128 
 C                     7.31642   25.4673   6.79208 
 C                     8.69858   20.01778   7.18452 
 C                     8.65132   25.88794   6.96693 
 C                     9.71973   20.6666   6.43488 
 C                     9.69206   25.14088   6.29615 
 C                     11.05386   20.65385   6.87618 
 C                     12.881    22.17972   7.56515 
 C                     12.81263   23.58195   7.57617 
 C                     11.03308   25.14383   6.81954 
 C                     11.384    19.90226   7.9913 
 C                     13.14616   21.46932   8.73495 
 C                     13.02407   24.31179   8.76142 
 C                     11.31481   25.90665   7.97381 
 C                     13.45645   22.17611   9.8884 
 C                     13.36661   23.58336   9.91541 
 C                     13.31709   21.63861   11.29402 
 C                     12.94772   24.01778   11.21478 
 C                     11.32847   20.50727   12.4422 
 C                     11.09053   25.10879   12.42623 
 C                     11.1725   21.62991   13.28878 
 C                     11.09295   23.97579   13.26765 
 C                     11.93093   22.83859   13.02523 
 C                     12.86649   22.8702   12.0337 
 C                     8.71972   21.29992   13.52024 
 C                     8.71837   24.14829   13.68205 
 C                     7.47801   22.03504   13.34012 
 C                     7.48497   23.43953   13.44808 
 C                     6.49236   21.51265   12.47457 
 C                     6.67127   24.2673   12.62805 
 C                     5.70773   22.33934   11.6245 
 C                     5.81706   23.73986   11.62635 
 C                     5.45977   21.62981   10.39714 
 C                     5.59925   24.46533   10.38895 
 C                     5.257     22.30334   9.18008 
 C                     5.28649   23.75254   9.16572 
 C                     5.61661   21.57471   8.0232 
 C                     5.58022   24.36683   7.9327 
 C                     5.93978   22.23425   6.79763 
 C                     5.91913   23.6114   6.75692 
 C                     6.98713   21.49547   6.14418 
 C                     6.97353   24.29986   6.06042 
 C                     7.95265   22.15118   5.41969 
 C                     7.97181   23.56958   5.42695 
 C                     9.34623   21.6103   5.30149 
 C                     9.32569   24.01751   5.518 
 C                     12.09107   21.64019   6.3935 
 C                     11.86733   24.02589   6.59144 
 C                     10.15991   22.87573   5.38362 
 C                     11.41716   22.88401   5.89424 
 C                     9.9131    22.01746   13.79137 
 C                     9.8949    23.46098   13.84139 
 Cl                    14.91172   21.03501   11.91344 
 Cl                    13.88773   18.8547   8.40722 
 Cl                    13.15601   20.86228   5.16329 
 Cl                    9.59386   20.72472   3.7397 
 
 ITRead=  0  0  0  0  0  0  0  0  0  0  0  0  0  0  0  0  0  0  0  0
 ITRead=  0  0  0  0  0  0  0  0  0  0  0  0  0  0  0  0  0  0  0  0
 ITRead=  0  0  0  0  0  0  0  0  0  0  0  0  0  0  0  0  0  0  0  0
 ITRead=  0  0  0  0  0  0  0  0  0  0  0  0  0  0  0  0  0  0  0  0
 ITRead=  0  0  0  0  0  0  0  0
 MicOpt= -1 -1 -1 -1 -1 -1 -1 -1 -1 -1 -1 -1 -1 -1 -1 -1 -1 -1 -1 -1
 MicOpt= -1 -1 -1 -1 -1 -1 -1 -1 -1 -1 -1 -1 -1 -1 -1 -1 -1 -1 -1 -1
 MicOpt= -1 -1 -1 -1 -1 -1 -1 -1 -1 -1 -1 -1 -1 -1 -1 -1 -1 -1 -1 -1
 MicOpt= -1 -1 -1 -1 -1 -1 -1 -1 -1 -1 -1 -1 -1 -1 -1 -1 -1 -1 -1 -1
 MicOpt= -1 -1 -1 -1 -1 -1 -1 -1
 NAtoms=     88 NQM=       88 NQMF=       0 NMMI=      0 NMMIF=      0
                NMic=       0 NMicF=      0.
                    Isotopes and Nuclear Properties:
 (Nuclear quadrupole moments (NQMom) in fm**2, nuclear magnetic moments (NMagM)
  in nuclear magnetons)

  Atom         1           2           3           4           5           6           7           8           9          10
 IAtWgt=          12          12          12          12          12          12          12          12          12          12
 AtmWgt=  12.0000000  12.0000000  12.0000000  12.0000000  12.0000000  12.0000000  12.0000000  12.0000000  12.0000000  12.0000000
 NucSpn=           0           0           0           0           0           0           0           0           0           0
 AtZEff=  -0.0000000  -0.0000000  -0.0000000  -0.0000000  -0.0000000  -0.0000000  -0.0000000  -0.0000000  -0.0000000  -0.0000000
 NQMom=    0.0000000   0.0000000   0.0000000   0.0000000   0.0000000   0.0000000   0.0000000   0.0000000   0.0000000   0.0000000
 NMagM=    0.0000000   0.0000000   0.0000000   0.0000000   0.0000000   0.0000000   0.0000000   0.0000000   0.0000000   0.0000000
 AtZNuc=   6.0000000   6.0000000   6.0000000   6.0000000   6.0000000   6.0000000   6.0000000   6.0000000   6.0000000   6.0000000

  Atom        11          12          13          14          15          16          17          18          19          20
 IAtWgt=          12          12          12          12          12          12          12          12          12          12
 AtmWgt=  12.0000000  12.0000000  12.0000000  12.0000000  12.0000000  12.0000000  12.0000000  12.0000000  12.0000000  12.0000000
 NucSpn=           0           0           0           0           0           0           0           0           0           0
 AtZEff=  -0.0000000  -0.0000000  -0.0000000  -0.0000000  -0.0000000  -0.0000000  -0.0000000  -0.0000000  -0.0000000  -0.0000000
 NQMom=    0.0000000   0.0000000   0.0000000   0.0000000   0.0000000   0.0000000   0.0000000   0.0000000   0.0000000   0.0000000
 NMagM=    0.0000000   0.0000000   0.0000000   0.0000000   0.0000000   0.0000000   0.0000000   0.0000000   0.0000000   0.0000000
 AtZNuc=   6.0000000   6.0000000   6.0000000   6.0000000   6.0000000   6.0000000   6.0000000   6.0000000   6.0000000   6.0000000

  Atom        21          22          23          24          25          26          27          28          29          30
 IAtWgt=          12          12          12          12          12          12          12          12          12          12
 AtmWgt=  12.0000000  12.0000000  12.0000000  12.0000000  12.0000000  12.0000000  12.0000000  12.0000000  12.0000000  12.0000000
 NucSpn=           0           0           0           0           0           0           0           0           0           0
 AtZEff=  -0.0000000  -0.0000000  -0.0000000  -0.0000000  -0.0000000  -0.0000000  -0.0000000  -0.0000000  -0.0000000  -0.0000000
 NQMom=    0.0000000   0.0000000   0.0000000   0.0000000   0.0000000   0.0000000   0.0000000   0.0000000   0.0000000   0.0000000
 NMagM=    0.0000000   0.0000000   0.0000000   0.0000000   0.0000000   0.0000000   0.0000000   0.0000000   0.0000000   0.0000000
 AtZNuc=   6.0000000   6.0000000   6.0000000   6.0000000   6.0000000   6.0000000   6.0000000   6.0000000   6.0000000   6.0000000

  Atom        31          32          33          34          35          36          37          38          39          40
 IAtWgt=          12          12          12          12          12          12          12          12          12          12
 AtmWgt=  12.0000000  12.0000000  12.0000000  12.0000000  12.0000000  12.0000000  12.0000000  12.0000000  12.0000000  12.0000000
 NucSpn=           0           0           0           0           0           0           0           0           0           0
 AtZEff=  -0.0000000  -0.0000000  -0.0000000  -0.0000000  -0.0000000  -0.0000000  -0.0000000  -0.0000000  -0.0000000  -0.0000000
 NQMom=    0.0000000   0.0000000   0.0000000   0.0000000   0.0000000   0.0000000   0.0000000   0.0000000   0.0000000   0.0000000
 NMagM=    0.0000000   0.0000000   0.0000000   0.0000000   0.0000000   0.0000000   0.0000000   0.0000000   0.0000000   0.0000000
 AtZNuc=   6.0000000   6.0000000   6.0000000   6.0000000   6.0000000   6.0000000   6.0000000   6.0000000   6.0000000   6.0000000

  Atom        41          42          43          44          45          46          47          48          49          50
 IAtWgt=          12          12          12          12          12          12          12          12          12          12
 AtmWgt=  12.0000000  12.0000000  12.0000000  12.0000000  12.0000000  12.0000000  12.0000000  12.0000000  12.0000000  12.0000000
 NucSpn=           0           0           0           0           0           0           0           0           0           0
 AtZEff=  -0.0000000  -0.0000000  -0.0000000  -0.0000000  -0.0000000  -0.0000000  -0.0000000  -0.0000000  -0.0000000  -0.0000000
 NQMom=    0.0000000   0.0000000   0.0000000   0.0000000   0.0000000   0.0000000   0.0000000   0.0000000   0.0000000   0.0000000
 NMagM=    0.0000000   0.0000000   0.0000000   0.0000000   0.0000000   0.0000000   0.0000000   0.0000000   0.0000000   0.0000000
 AtZNuc=   6.0000000   6.0000000   6.0000000   6.0000000   6.0000000   6.0000000   6.0000000   6.0000000   6.0000000   6.0000000

  Atom        51          52          53          54          55          56          57          58          59          60
 IAtWgt=          12          12          12          12          12          12          12          12          12          12
 AtmWgt=  12.0000000  12.0000000  12.0000000  12.0000000  12.0000000  12.0000000  12.0000000  12.0000000  12.0000000  12.0000000
 NucSpn=           0           0           0           0           0           0           0           0           0           0
 AtZEff=  -0.0000000  -0.0000000  -0.0000000  -0.0000000  -0.0000000  -0.0000000  -0.0000000  -0.0000000  -0.0000000  -0.0000000
 NQMom=    0.0000000   0.0000000   0.0000000   0.0000000   0.0000000   0.0000000   0.0000000   0.0000000   0.0000000   0.0000000
 NMagM=    0.0000000   0.0000000   0.0000000   0.0000000   0.0000000   0.0000000   0.0000000   0.0000000   0.0000000   0.0000000
 AtZNuc=   6.0000000   6.0000000   6.0000000   6.0000000   6.0000000   6.0000000   6.0000000   6.0000000   6.0000000   6.0000000

  Atom        61          62          63          64          65          66          67          68          69          70
 IAtWgt=          12          12          12          12          12          12          12          12          12          12
 AtmWgt=  12.0000000  12.0000000  12.0000000  12.0000000  12.0000000  12.0000000  12.0000000  12.0000000  12.0000000  12.0000000
 NucSpn=           0           0           0           0           0           0           0           0           0           0
 AtZEff=  -0.0000000  -0.0000000  -0.0000000  -0.0000000  -0.0000000  -0.0000000  -0.0000000  -0.0000000  -0.0000000  -0.0000000
 NQMom=    0.0000000   0.0000000   0.0000000   0.0000000   0.0000000   0.0000000   0.0000000   0.0000000   0.0000000   0.0000000
 NMagM=    0.0000000   0.0000000   0.0000000   0.0000000   0.0000000   0.0000000   0.0000000   0.0000000   0.0000000   0.0000000
 AtZNuc=   6.0000000   6.0000000   6.0000000   6.0000000   6.0000000   6.0000000   6.0000000   6.0000000   6.0000000   6.0000000

  Atom        71          72          73          74          75          76          77          78          79          80
 IAtWgt=          12          12          12          12          12          12          12          12          12          12
 AtmWgt=  12.0000000  12.0000000  12.0000000  12.0000000  12.0000000  12.0000000  12.0000000  12.0000000  12.0000000  12.0000000
 NucSpn=           0           0           0           0           0           0           0           0           0           0
 AtZEff=  -0.0000000  -0.0000000  -0.0000000  -0.0000000  -0.0000000  -0.0000000  -0.0000000  -0.0000000  -0.0000000  -0.0000000
 NQMom=    0.0000000   0.0000000   0.0000000   0.0000000   0.0000000   0.0000000   0.0000000   0.0000000   0.0000000   0.0000000
 NMagM=    0.0000000   0.0000000   0.0000000   0.0000000   0.0000000   0.0000000   0.0000000   0.0000000   0.0000000   0.0000000
 AtZNuc=   6.0000000   6.0000000   6.0000000   6.0000000   6.0000000   6.0000000   6.0000000   6.0000000   6.0000000   6.0000000

  Atom        81          82          83          84          85          86          87          88
 IAtWgt=          12          12          12          12          35          35          35          35
 AtmWgt=  12.0000000  12.0000000  12.0000000  12.0000000  34.9688527  34.9688527  34.9688527  34.9688527
 NucSpn=           0           0           0           0           3           3           3           3
 AtZEff=  -0.0000000  -0.0000000  -0.0000000  -0.0000000  -0.0000000  -0.0000000  -0.0000000  -0.0000000
 NQMom=    0.0000000   0.0000000   0.0000000   0.0000000  -8.1650000  -8.1650000  -8.1650000  -8.1650000
 NMagM=    0.0000000   0.0000000   0.0000000   0.0000000   0.8218740   0.8218740   0.8218740   0.8218740
 AtZNuc=   6.0000000   6.0000000   6.0000000   6.0000000  17.0000000  17.0000000  17.0000000  17.0000000
 Leave Link  101 at Thu Jun 30 02:52:07 2022, MaxMem=  1342177280 cpu:               6.5 elap:               0.3
 (Enter /home/mkliu/g16/l103.exe)

 GradGradGradGradGradGradGradGradGradGradGradGradGradGradGradGradGradGrad
 Berny optimization.
 Initialization pass.
                           ----------------------------
                           !    Initial Parameters    !
                           ! (Angstroms and Degrees)  !
 --------------------------                            --------------------------
 ! Name  Definition              Value          Derivative Info.                !
 --------------------------------------------------------------------------------
 ! R1    R(1,5)                  1.4093         estimate D2E/DX2                !
 ! R2    R(1,17)                 1.4281         estimate D2E/DX2                !
 ! R3    R(1,23)                 1.4324         estimate D2E/DX2                !
 ! R4    R(2,6)                  1.5147         estimate D2E/DX2                !
 ! R5    R(2,43)                 1.5196         estimate D2E/DX2                !
 ! R6    R(2,44)                 1.4932         estimate D2E/DX2                !
 ! R7    R(2,86)                 1.8104         estimate D2E/DX2                !
 ! R8    R(3,7)                  1.4233         estimate D2E/DX2                !
 ! R9    R(3,18)                 1.4177         estimate D2E/DX2                !
 ! R10   R(3,26)                 1.4335         estimate D2E/DX2                !
 ! R11   R(4,8)                  1.4205         estimate D2E/DX2                !
 ! R12   R(4,45)                 1.4078         estimate D2E/DX2                !
 ! R13   R(4,46)                 1.4294         estimate D2E/DX2                !
 ! R14   R(5,9)                  1.4449         estimate D2E/DX2                !
 ! R15   R(5,29)                 1.4383         estimate D2E/DX2                !
 ! R16   R(6,10)                 1.371          estimate D2E/DX2                !
 ! R17   R(6,15)                 1.4222         estimate D2E/DX2                !
 ! R18   R(7,12)                 1.4109         estimate D2E/DX2                !
 ! R19   R(7,30)                 1.4352         estimate D2E/DX2                !
 ! R20   R(8,11)                 1.4098         estimate D2E/DX2                !
 ! R21   R(8,16)                 1.4323         estimate D2E/DX2                !
 ! R22   R(9,13)                 1.4077         estimate D2E/DX2                !
 ! R23   R(9,35)                 1.4363         estimate D2E/DX2                !
 ! R24   R(10,49)                1.5067         estimate D2E/DX2                !
 ! R25   R(10,51)                1.4459         estimate D2E/DX2                !
 ! R26   R(11,50)                1.4196         estimate D2E/DX2                !
 ! R27   R(11,52)                1.4426         estimate D2E/DX2                !
 ! R28   R(12,14)                1.4078         estimate D2E/DX2                !
 ! R29   R(12,36)                1.4492         estimate D2E/DX2                !
 ! R30   R(13,15)                1.4309         estimate D2E/DX2                !
 ! R31   R(13,43)                1.4031         estimate D2E/DX2                !
 ! R32   R(14,16)                1.4275         estimate D2E/DX2                !
 ! R33   R(14,46)                1.4216         estimate D2E/DX2                !
 ! R34   R(15,17)                1.3713         estimate D2E/DX2                !
 ! R35   R(16,18)                1.4021         estimate D2E/DX2                !
 ! R36   R(17,19)                1.4299         estimate D2E/DX2                !
 ! R37   R(18,20)                1.4496         estimate D2E/DX2                !
 ! R38   R(19,21)                1.4245         estimate D2E/DX2                !
 ! R39   R(19,51)                1.4118         estimate D2E/DX2                !
 ! R40   R(20,22)                1.4081         estimate D2E/DX2                !
 ! R41   R(20,52)                1.4475         estimate D2E/DX2                !
 ! R42   R(21,23)                1.4426         estimate D2E/DX2                !
 ! R43   R(21,57)                1.4065         estimate D2E/DX2                !
 ! R44   R(22,24)                1.434          estimate D2E/DX2                !
 ! R45   R(22,58)                1.4268         estimate D2E/DX2                !
 ! R46   R(23,25)                1.3741         estimate D2E/DX2                !
 ! R47   R(24,26)                1.3694         estimate D2E/DX2                !
 ! R48   R(24,62)                1.4354         estimate D2E/DX2                !
 ! R49   R(25,27)                1.4295         estimate D2E/DX2                !
 ! R50   R(25,61)                1.4341         estimate D2E/DX2                !
 ! R51   R(26,28)                1.4348         estimate D2E/DX2                !
 ! R52   R(27,29)                1.4107         estimate D2E/DX2                !
 ! R53   R(27,65)                1.4222         estimate D2E/DX2                !
 ! R54   R(28,30)                1.4272         estimate D2E/DX2                !
 ! R55   R(28,66)                1.4056         estimate D2E/DX2                !
 ! R56   R(29,31)                1.4056         estimate D2E/DX2                !
 ! R57   R(30,32)                1.3691         estimate D2E/DX2                !
 ! R58   R(31,33)                1.4217         estimate D2E/DX2                !
 ! R59   R(31,69)                1.4324         estimate D2E/DX2                !
 ! R60   R(32,34)                1.4438         estimate D2E/DX2                !
 ! R61   R(32,70)                1.4293         estimate D2E/DX2                !
 ! R62   R(33,35)                1.4227         estimate D2E/DX2                !
 ! R63   R(33,73)                1.4333         estimate D2E/DX2                !
 ! R64   R(34,36)                1.4105         estimate D2E/DX2                !
 ! R65   R(34,74)                1.4198         estimate D2E/DX2                !
 ! R66   R(35,37)                1.4233         estimate D2E/DX2                !
 ! R67   R(36,38)                1.4461         estimate D2E/DX2                !
 ! R68   R(37,39)                1.4053         estimate D2E/DX2                !
 ! R69   R(37,77)                1.5214         estimate D2E/DX2                !
 ! R70   R(38,42)                1.4395         estimate D2E/DX2                !
 ! R71   R(38,78)                1.4148         estimate D2E/DX2                !
 ! R72   R(39,43)                1.3847         estimate D2E/DX2                !
 ! R73   R(39,79)                1.5105         estimate D2E/DX2                !
 ! R74   R(40,41)                1.4039         estimate D2E/DX2                !
 ! R75   R(40,44)                1.3941         estimate D2E/DX2                !
 ! R76   R(40,79)                1.5126         estimate D2E/DX2                !
 ! R77   R(41,45)                1.4079         estimate D2E/DX2                !
 ! R78   R(41,80)                1.4354         estimate D2E/DX2                !
 ! R79   R(42,46)                1.412          estimate D2E/DX2                !
 ! R80   R(42,80)                1.4134         estimate D2E/DX2                !
 ! R81   R(44,47)                1.3879         estimate D2E/DX2                !
 ! R82   R(45,48)                1.407          estimate D2E/DX2                !
 ! R83   R(47,48)                1.4104         estimate D2E/DX2                !
 ! R84   R(47,49)                1.5113         estimate D2E/DX2                !
 ! R85   R(48,50)                1.4327         estimate D2E/DX2                !
 ! R86   R(49,56)                1.5056         estimate D2E/DX2                !
 ! R87   R(49,85)                1.8141         estimate D2E/DX2                !
 ! R88   R(50,56)                1.4122         estimate D2E/DX2                !
 ! R89   R(51,53)                1.4147         estimate D2E/DX2                !
 ! R90   R(52,54)                1.4113         estimate D2E/DX2                !
 ! R91   R(53,55)                1.4511         estimate D2E/DX2                !
 ! R92   R(53,83)                1.4103         estimate D2E/DX2                !
 ! R93   R(54,55)                1.4332         estimate D2E/DX2                !
 ! R94   R(54,84)                1.4246         estimate D2E/DX2                !
 ! R95   R(55,56)                1.3636         estimate D2E/DX2                !
 ! R96   R(57,59)                1.4542         estimate D2E/DX2                !
 ! R97   R(57,83)                1.4186         estimate D2E/DX2                !
 ! R98   R(58,60)                1.4416         estimate D2E/DX2                !
 ! R99   R(58,84)                1.3719         estimate D2E/DX2                !
 ! R100  R(59,60)                1.4087         estimate D2E/DX2                !
 ! R101  R(59,61)                1.4119         estimate D2E/DX2                !
 ! R102  R(60,62)                1.4212         estimate D2E/DX2                !
 ! R103  R(61,63)                1.4219         estimate D2E/DX2                !
 ! R104  R(62,64)                1.4182         estimate D2E/DX2                !
 ! R105  R(63,64)                1.4048         estimate D2E/DX2                !
 ! R106  R(63,65)                1.4392         estimate D2E/DX2                !
 ! R107  R(64,66)                1.4508         estimate D2E/DX2                !
 ! R108  R(65,67)                1.4057         estimate D2E/DX2                !
 ! R109  R(66,68)                1.4499         estimate D2E/DX2                !
 ! R110  R(67,68)                1.4496         estimate D2E/DX2                !
 ! R111  R(67,69)                1.4137         estimate D2E/DX2                !
 ! R112  R(68,70)                1.4085         estimate D2E/DX2                !
 ! R113  R(69,71)                1.4288         estimate D2E/DX2                !
 ! R114  R(70,72)                1.438          estimate D2E/DX2                !
 ! R115  R(71,72)                1.3779         estimate D2E/DX2                !
 ! R116  R(71,73)                1.4387         estimate D2E/DX2                !
 ! R117  R(72,74)                1.439          estimate D2E/DX2                !
 ! R118  R(73,75)                1.3737         estimate D2E/DX2                !
 ! R119  R(74,76)                1.3897         estimate D2E/DX2                !
 ! R120  R(75,76)                1.4185         estimate D2E/DX2                !
 ! R121  R(75,77)                1.4995         estimate D2E/DX2                !
 ! R122  R(76,78)                1.429          estimate D2E/DX2                !
 ! R123  R(77,81)                1.5067         estimate D2E/DX2                !
 ! R124  R(77,88)                1.8124         estimate D2E/DX2                !
 ! R125  R(78,81)                1.4204         estimate D2E/DX2                !
 ! R126  R(79,82)                1.5002         estimate D2E/DX2                !
 ! R127  R(79,87)                1.8035         estimate D2E/DX2                !
 ! R128  R(80,82)                1.4116         estimate D2E/DX2                !
 ! R129  R(81,82)                1.357          estimate D2E/DX2                !
 ! R130  R(83,84)                1.4445         estimate D2E/DX2                !
 ! A1    A(5,1,17)             121.702          estimate D2E/DX2                !
 ! A2    A(5,1,23)             121.9119         estimate D2E/DX2                !
 ! A3    A(17,1,23)            105.6369         estimate D2E/DX2                !
 ! A4    A(6,2,43)             101.3669         estimate D2E/DX2                !
 ! A5    A(6,2,44)             111.5861         estimate D2E/DX2                !
 ! A6    A(6,2,86)             110.8168         estimate D2E/DX2                !
 ! A7    A(43,2,44)            110.3093         estimate D2E/DX2                !
 ! A8    A(43,2,86)            110.7823         estimate D2E/DX2                !
 ! A9    A(44,2,86)            111.5594         estimate D2E/DX2                !
 ! A10   A(7,3,18)             122.2623         estimate D2E/DX2                !
 ! A11   A(7,3,26)             107.4127         estimate D2E/DX2                !
 ! A12   A(18,3,26)            120.4384         estimate D2E/DX2                !
 ! A13   A(8,4,45)             121.0545         estimate D2E/DX2                !
 ! A14   A(8,4,46)             108.1994         estimate D2E/DX2                !
 ! A15   A(45,4,46)            120.7915         estimate D2E/DX2                !
 ! A16   A(1,5,9)              118.5255         estimate D2E/DX2                !
 ! A17   A(1,5,29)             116.9268         estimate D2E/DX2                !
 ! A18   A(9,5,29)             118.7071         estimate D2E/DX2                !
 ! A19   A(2,6,10)             126.8444         estimate D2E/DX2                !
 ! A20   A(2,6,15)             107.4333         estimate D2E/DX2                !
 ! A21   A(10,6,15)            120.1659         estimate D2E/DX2                !
 ! A22   A(3,7,12)             122.2691         estimate D2E/DX2                !
 ! A23   A(3,7,30)             107.1576         estimate D2E/DX2                !
 ! A24   A(12,7,30)            120.16           estimate D2E/DX2                !
 ! A25   A(4,8,11)             122.3461         estimate D2E/DX2                !
 ! A26   A(4,8,16)             107.7277         estimate D2E/DX2                !
 ! A27   A(11,8,16)            121.2124         estimate D2E/DX2                !
 ! A28   A(5,9,13)             118.2003         estimate D2E/DX2                !
 ! A29   A(5,9,35)             121.9124         estimate D2E/DX2                !
 ! A30   A(13,9,35)            116.1443         estimate D2E/DX2                !
 ! A31   A(6,10,49)            117.5242         estimate D2E/DX2                !
 ! A32   A(6,10,51)            119.6993         estimate D2E/DX2                !
 ! A33   A(49,10,51)           120.2057         estimate D2E/DX2                !
 ! A34   A(8,11,50)            115.9472         estimate D2E/DX2                !
 ! A35   A(8,11,52)            118.8581         estimate D2E/DX2                !
 ! A36   A(50,11,52)           119.3987         estimate D2E/DX2                !
 ! A37   A(7,12,14)            114.6523         estimate D2E/DX2                !
 ! A38   A(7,12,36)            120.5668         estimate D2E/DX2                !
 ! A39   A(14,12,36)           119.032          estimate D2E/DX2                !
 ! A40   A(9,13,15)            122.1657         estimate D2E/DX2                !
 ! A41   A(9,13,43)            122.7495         estimate D2E/DX2                !
 ! A42   A(15,13,43)           108.0789         estimate D2E/DX2                !
 ! A43   A(12,14,16)           122.4662         estimate D2E/DX2                !
 ! A44   A(12,14,46)           121.1795         estimate D2E/DX2                !
 ! A45   A(16,14,46)           107.9196         estimate D2E/DX2                !
 ! A46   A(6,15,13)            109.5502         estimate D2E/DX2                !
 ! A47   A(6,15,17)            121.3711         estimate D2E/DX2                !
 ! A48   A(13,15,17)           119.274          estimate D2E/DX2                !
 ! A49   A(8,16,14)            108.0432         estimate D2E/DX2                !
 ! A50   A(8,16,18)            121.148          estimate D2E/DX2                !
 ! A51   A(14,16,18)           122.3443         estimate D2E/DX2                !
 ! A52   A(1,17,15)            119.8821         estimate D2E/DX2                !
 ! A53   A(1,17,19)            110.0842         estimate D2E/DX2                !
 ! A54   A(15,17,19)           119.4215         estimate D2E/DX2                !
 ! A55   A(3,18,16)            114.7058         estimate D2E/DX2                !
 ! A56   A(3,18,20)            120.5575         estimate D2E/DX2                !
 ! A57   A(16,18,20)           118.9887         estimate D2E/DX2                !
 ! A58   A(17,19,21)           107.278          estimate D2E/DX2                !
 ! A59   A(17,19,51)           119.7164         estimate D2E/DX2                !
 ! A60   A(21,19,51)           123.0196         estimate D2E/DX2                !
 ! A61   A(18,20,22)           116.6699         estimate D2E/DX2                !
 ! A62   A(18,20,52)           119.813          estimate D2E/DX2                !
 ! A63   A(22,20,52)           118.0709         estimate D2E/DX2                !
 ! A64   A(19,21,23)           107.3329         estimate D2E/DX2                !
 ! A65   A(19,21,57)           121.649          estimate D2E/DX2                !
 ! A66   A(23,21,57)           120.7432         estimate D2E/DX2                !
 ! A67   A(20,22,24)           121.8129         estimate D2E/DX2                !
 ! A68   A(20,22,58)           122.0332         estimate D2E/DX2                !
 ! A69   A(24,22,58)           105.4672         estimate D2E/DX2                !
 ! A70   A(1,23,21)            109.2926         estimate D2E/DX2                !
 ! A71   A(1,23,25)            119.9546         estimate D2E/DX2                !
 ! A72   A(21,23,25)           119.8168         estimate D2E/DX2                !
 ! A73   A(22,24,26)           120.7965         estimate D2E/DX2                !
 ! A74   A(22,24,62)           109.6704         estimate D2E/DX2                !
 ! A75   A(26,24,62)           119.1449         estimate D2E/DX2                !
 ! A76   A(23,25,27)           119.4574         estimate D2E/DX2                !
 ! A77   A(23,25,61)           120.7186         estimate D2E/DX2                !
 ! A78   A(27,25,61)           109.3018         estimate D2E/DX2                !
 ! A79   A(3,26,24)            119.1993         estimate D2E/DX2                !
 ! A80   A(3,26,28)            109.5264         estimate D2E/DX2                !
 ! A81   A(24,26,28)           120.6403         estimate D2E/DX2                !
 ! A82   A(25,27,29)           120.7601         estimate D2E/DX2                !
 ! A83   A(25,27,65)           107.0919         estimate D2E/DX2                !
 ! A84   A(29,27,65)           121.4761         estimate D2E/DX2                !
 ! A85   A(26,28,30)           105.336          estimate D2E/DX2                !
 ! A86   A(26,28,66)           122.0022         estimate D2E/DX2                !
 ! A87   A(30,28,66)           121.6542         estimate D2E/DX2                !
 ! A88   A(5,29,27)            120.2069         estimate D2E/DX2                !
 ! A89   A(5,29,31)            118.393          estimate D2E/DX2                !
 ! A90   A(27,29,31)           115.5517         estimate D2E/DX2                !
 ! A91   A(7,30,28)            109.829          estimate D2E/DX2                !
 ! A92   A(7,30,32)            119.8649         estimate D2E/DX2                !
 ! A93   A(28,30,32)           119.9727         estimate D2E/DX2                !
 ! A94   A(29,31,33)           122.1761         estimate D2E/DX2                !
 ! A95   A(29,31,69)           121.6113         estimate D2E/DX2                !
 ! A96   A(33,31,69)           108.9022         estimate D2E/DX2                !
 ! A97   A(30,32,34)           120.3297         estimate D2E/DX2                !
 ! A98   A(30,32,70)           119.3726         estimate D2E/DX2                !
 ! A99   A(34,32,70)           109.8151         estimate D2E/DX2                !
 ! A100  A(31,33,35)           120.193          estimate D2E/DX2                !
 ! A101  A(31,33,73)           107.7582         estimate D2E/DX2                !
 ! A102  A(35,33,73)           121.261          estimate D2E/DX2                !
 ! A103  A(32,34,36)           121.137          estimate D2E/DX2                !
 ! A104  A(32,34,74)           106.1651         estimate D2E/DX2                !
 ! A105  A(36,34,74)           122.5249         estimate D2E/DX2                !
 ! A106  A(9,35,33)            116.8164         estimate D2E/DX2                !
 ! A107  A(9,35,37)            120.3192         estimate D2E/DX2                !
 ! A108  A(33,35,37)           119.5626         estimate D2E/DX2                !
 ! A109  A(12,36,34)           117.1894         estimate D2E/DX2                !
 ! A110  A(12,36,38)           119.5334         estimate D2E/DX2                !
 ! A111  A(34,36,38)           118.0057         estimate D2E/DX2                !
 ! A112  A(35,37,39)           120.7709         estimate D2E/DX2                !
 ! A113  A(35,37,77)           119.9346         estimate D2E/DX2                !
 ! A114  A(39,37,77)           118.2057         estimate D2E/DX2                !
 ! A115  A(36,38,42)           120.0484         estimate D2E/DX2                !
 ! A116  A(36,38,78)           118.6161         estimate D2E/DX2                !
 ! A117  A(42,38,78)           116.2842         estimate D2E/DX2                !
 ! A118  A(37,39,43)           118.958          estimate D2E/DX2                !
 ! A119  A(37,39,79)           123.0669         estimate D2E/DX2                !
 ! A120  A(43,39,79)           116.6191         estimate D2E/DX2                !
 ! A121  A(41,40,44)           120.7731         estimate D2E/DX2                !
 ! A122  A(41,40,79)           109.689          estimate D2E/DX2                !
 ! A123  A(44,40,79)           124.5808         estimate D2E/DX2                !
 ! A124  A(40,41,45)           121.1352         estimate D2E/DX2                !
 ! A125  A(40,41,80)           109.608          estimate D2E/DX2                !
 ! A126  A(45,41,80)           121.072          estimate D2E/DX2                !
 ! A127  A(38,42,46)           118.9609         estimate D2E/DX2                !
 ! A128  A(38,42,80)           119.3107         estimate D2E/DX2                !
 ! A129  A(46,42,80)           116.1975         estimate D2E/DX2                !
 ! A130  A(2,43,13)            109.813          estimate D2E/DX2                !
 ! A131  A(2,43,39)            126.0498         estimate D2E/DX2                !
 ! A132  A(13,43,39)           120.4844         estimate D2E/DX2                !
 ! A133  A(2,44,40)            118.3289         estimate D2E/DX2                !
 ! A134  A(2,44,47)            119.3006         estimate D2E/DX2                !
 ! A135  A(40,44,47)           118.7113         estimate D2E/DX2                !
 ! A136  A(4,45,41)            117.6535         estimate D2E/DX2                !
 ! A137  A(4,45,48)            117.4956         estimate D2E/DX2                !
 ! A138  A(41,45,48)           117.3            estimate D2E/DX2                !
 ! A139  A(4,46,14)            108.0406         estimate D2E/DX2                !
 ! A140  A(4,46,42)            122.2189         estimate D2E/DX2                !
 ! A141  A(14,46,42)           121.1611         estimate D2E/DX2                !
 ! A142  A(44,47,48)           120.6498         estimate D2E/DX2                !
 ! A143  A(44,47,49)           124.8348         estimate D2E/DX2                !
 ! A144  A(48,47,49)           109.3407         estimate D2E/DX2                !
 ! A145  A(45,48,47)           121.0898         estimate D2E/DX2                !
 ! A146  A(45,48,50)           121.0446         estimate D2E/DX2                !
 ! A147  A(47,48,50)           109.7879         estimate D2E/DX2                !
 ! A148  A(10,49,47)           111.7631         estimate D2E/DX2                !
 ! A149  A(10,49,56)           111.971          estimate D2E/DX2                !
 ! A150  A(10,49,85)           109.4187         estimate D2E/DX2                !
 ! A151  A(47,49,56)           101.1622         estimate D2E/DX2                !
 ! A152  A(47,49,85)           110.784          estimate D2E/DX2                !
 ! A153  A(56,49,85)           111.5607         estimate D2E/DX2                !
 ! A154  A(11,50,48)           121.4514         estimate D2E/DX2                !
 ! A155  A(11,50,56)           122.3601         estimate D2E/DX2                !
 ! A156  A(48,50,56)           107.2389         estimate D2E/DX2                !
 ! A157  A(10,51,19)           119.2555         estimate D2E/DX2                !
 ! A158  A(10,51,53)           120.3033         estimate D2E/DX2                !
 ! A159  A(19,51,53)           114.5375         estimate D2E/DX2                !
 ! A160  A(11,52,20)           119.9406         estimate D2E/DX2                !
 ! A161  A(11,52,54)           116.3607         estimate D2E/DX2                !
 ! A162  A(20,52,54)           118.2332         estimate D2E/DX2                !
 ! A163  A(51,53,55)           119.6493         estimate D2E/DX2                !
 ! A164  A(51,53,83)           121.9915         estimate D2E/DX2                !
 ! A165  A(55,53,83)           107.6125         estimate D2E/DX2                !
 ! A166  A(52,54,55)           122.4901         estimate D2E/DX2                !
 ! A167  A(52,54,84)           121.9235         estimate D2E/DX2                !
 ! A168  A(55,54,84)           105.848          estimate D2E/DX2                !
 ! A169  A(53,55,54)           108.9411         estimate D2E/DX2                !
 ! A170  A(53,55,56)           120.6625         estimate D2E/DX2                !
 ! A171  A(54,55,56)           120.3803         estimate D2E/DX2                !
 ! A172  A(49,56,50)           111.2616         estimate D2E/DX2                !
 ! A173  A(49,56,55)           122.9281         estimate D2E/DX2                !
 ! A174  A(50,56,55)           118.6839         estimate D2E/DX2                !
 ! A175  A(21,57,59)           119.153          estimate D2E/DX2                !
 ! A176  A(21,57,83)           114.8498         estimate D2E/DX2                !
 ! A177  A(59,57,83)           119.0964         estimate D2E/DX2                !
 ! A178  A(22,58,60)           109.6781         estimate D2E/DX2                !
 ! A179  A(22,58,84)           119.518          estimate D2E/DX2                !
 ! A180  A(60,58,84)           120.4159         estimate D2E/DX2                !
 ! A181  A(57,59,60)           119.3608         estimate D2E/DX2                !
 ! A182  A(57,59,61)           119.0108         estimate D2E/DX2                !
 ! A183  A(60,59,61)           114.792          estimate D2E/DX2                !
 ! A184  A(58,60,59)           120.454          estimate D2E/DX2                !
 ! A185  A(58,60,62)           107.2858         estimate D2E/DX2                !
 ! A186  A(59,60,62)           122.2542         estimate D2E/DX2                !
 ! A187  A(25,61,59)           120.5026         estimate D2E/DX2                !
 ! A188  A(25,61,63)           106.7665         estimate D2E/DX2                !
 ! A189  A(59,61,63)           122.4534         estimate D2E/DX2                !
 ! A190  A(24,62,60)           107.2993         estimate D2E/DX2                !
 ! A191  A(24,62,64)           120.4705         estimate D2E/DX2                !
 ! A192  A(60,62,64)           122.3977         estimate D2E/DX2                !
 ! A193  A(61,63,64)           122.406          estimate D2E/DX2                !
 ! A194  A(61,63,65)           108.5601         estimate D2E/DX2                !
 ! A195  A(64,63,65)           120.3998         estimate D2E/DX2                !
 ! A196  A(62,64,63)           114.7454         estimate D2E/DX2                !
 ! A197  A(62,64,66)           120.4556         estimate D2E/DX2                !
 ! A198  A(63,64,66)           119.0595         estimate D2E/DX2                !
 ! A199  A(27,65,63)           108.1656         estimate D2E/DX2                !
 ! A200  A(27,65,67)           122.1307         estimate D2E/DX2                !
 ! A201  A(63,65,67)           121.8028         estimate D2E/DX2                !
 ! A202  A(28,66,64)           116.5923         estimate D2E/DX2                !
 ! A203  A(28,66,68)           117.9185         estimate D2E/DX2                !
 ! A204  A(64,66,68)           120.4053         estimate D2E/DX2                !
 ! A205  A(65,67,68)           118.9901         estimate D2E/DX2                !
 ! A206  A(65,67,69)           115.1424         estimate D2E/DX2                !
 ! A207  A(68,67,69)           120.1317         estimate D2E/DX2                !
 ! A208  A(66,68,67)           119.178          estimate D2E/DX2                !
 ! A209  A(66,68,70)           118.6301         estimate D2E/DX2                !
 ! A210  A(67,68,70)           116.6743         estimate D2E/DX2                !
 ! A211  A(31,69,67)           121.3386         estimate D2E/DX2                !
 ! A212  A(31,69,71)           107.083          estimate D2E/DX2                !
 ! A213  A(67,69,71)           121.4367         estimate D2E/DX2                !
 ! A214  A(32,70,68)           121.3299         estimate D2E/DX2                !
 ! A215  A(32,70,72)           105.9155         estimate D2E/DX2                !
 ! A216  A(68,70,72)           122.3973         estimate D2E/DX2                !
 ! A217  A(69,71,72)           118.9012         estimate D2E/DX2                !
 ! A218  A(69,71,73)           108.4951         estimate D2E/DX2                !
 ! A219  A(72,71,73)           120.7127         estimate D2E/DX2                !
 ! A220  A(70,72,71)           120.2918         estimate D2E/DX2                !
 ! A221  A(70,72,74)           108.4871         estimate D2E/DX2                !
 ! A222  A(71,72,74)           118.7812         estimate D2E/DX2                !
 ! A223  A(33,73,71)           107.4439         estimate D2E/DX2                !
 ! A224  A(33,73,75)           120.3791         estimate D2E/DX2                !
 ! A225  A(71,73,75)           120.4052         estimate D2E/DX2                !
 ! A226  A(34,74,72)           108.7182         estimate D2E/DX2                !
 ! A227  A(34,74,76)           119.5726         estimate D2E/DX2                !
 ! A228  A(72,74,76)           119.7073         estimate D2E/DX2                !
 ! A229  A(73,75,76)           118.9518         estimate D2E/DX2                !
 ! A230  A(73,75,77)           121.5063         estimate D2E/DX2                !
 ! A231  A(76,75,77)           110.3964         estimate D2E/DX2                !
 ! A232  A(74,76,75)           121.204          estimate D2E/DX2                !
 ! A233  A(74,76,78)           119.1332         estimate D2E/DX2                !
 ! A234  A(75,76,78)           109.06           estimate D2E/DX2                !
 ! A235  A(37,77,75)           113.1518         estimate D2E/DX2                !
 ! A236  A(37,77,81)           110.3513         estimate D2E/DX2                !
 ! A237  A(37,77,88)           107.7779         estimate D2E/DX2                !
 ! A238  A(75,77,81)           101.2238         estimate D2E/DX2                !
 ! A239  A(75,77,88)           111.7865         estimate D2E/DX2                !
 ! A240  A(81,77,88)           112.5552         estimate D2E/DX2                !
 ! A241  A(38,78,76)           121.9574         estimate D2E/DX2                !
 ! A242  A(38,78,81)           122.5607         estimate D2E/DX2                !
 ! A243  A(76,78,81)           107.3638         estimate D2E/DX2                !
 ! A244  A(39,79,40)           110.1207         estimate D2E/DX2                !
 ! A245  A(39,79,82)           109.8338         estimate D2E/DX2                !
 ! A246  A(39,79,87)           109.9851         estimate D2E/DX2                !
 ! A247  A(40,79,82)           101.341          estimate D2E/DX2                !
 ! A248  A(40,79,87)           111.9533         estimate D2E/DX2                !
 ! A249  A(82,79,87)           113.3205         estimate D2E/DX2                !
 ! A250  A(41,80,42)           121.5077         estimate D2E/DX2                !
 ! A251  A(41,80,82)           107.3781         estimate D2E/DX2                !
 ! A252  A(42,80,82)           122.0923         estimate D2E/DX2                !
 ! A253  A(77,81,78)           111.291          estimate D2E/DX2                !
 ! A254  A(77,81,82)           121.7337         estimate D2E/DX2                !
 ! A255  A(78,81,82)           120.2395         estimate D2E/DX2                !
 ! A256  A(79,82,80)           111.2886         estimate D2E/DX2                !
 ! A257  A(79,82,81)           122.4365         estimate D2E/DX2                !
 ! A258  A(80,82,81)           119.0941         estimate D2E/DX2                !
 ! A259  A(53,83,57)           122.9642         estimate D2E/DX2                !
 ! A260  A(53,83,84)           107.35           estimate D2E/DX2                !
 ! A261  A(57,83,84)           120.0977         estimate D2E/DX2                !
 ! A262  A(54,84,58)           119.5647         estimate D2E/DX2                !
 ! A263  A(54,84,83)           109.6685         estimate D2E/DX2                !
 ! A264  A(58,84,83)           120.4937         estimate D2E/DX2                !
 ! D1    D(17,1,5,9)             3.1212         estimate D2E/DX2                !
 ! D2    D(17,1,5,29)         -149.6574         estimate D2E/DX2                !
 ! D3    D(23,1,5,9)           142.3968         estimate D2E/DX2                !
 ! D4    D(23,1,5,29)          -10.3819         estimate D2E/DX2                !
 ! D5    D(5,1,17,15)           -5.4023         estimate D2E/DX2                !
 ! D6    D(5,1,17,19)          139.0206         estimate D2E/DX2                !
 ! D7    D(23,1,17,15)        -150.2956         estimate D2E/DX2                !
 ! D8    D(23,1,17,19)          -5.8727         estimate D2E/DX2                !
 ! D9    D(5,1,23,21)         -138.6896         estimate D2E/DX2                !
 ! D10   D(5,1,23,25)            5.3833         estimate D2E/DX2                !
 ! D11   D(17,1,23,21)           6.112          estimate D2E/DX2                !
 ! D12   D(17,1,23,25)         150.185          estimate D2E/DX2                !
 ! D13   D(43,2,6,10)         -134.0811         estimate D2E/DX2                !
 ! D14   D(43,2,6,15)           19.2289         estimate D2E/DX2                !
 ! D15   D(44,2,6,10)          -16.6764         estimate D2E/DX2                !
 ! D16   D(44,2,6,15)          136.6336         estimate D2E/DX2                !
 ! D17   D(86,2,6,10)          108.2975         estimate D2E/DX2                !
 ! D18   D(86,2,6,15)          -98.3925         estimate D2E/DX2                !
 ! D19   D(6,2,43,13)          -15.5515         estimate D2E/DX2                !
 ! D20   D(6,2,43,39)          142.7553         estimate D2E/DX2                !
 ! D21   D(44,2,43,13)        -133.8807         estimate D2E/DX2                !
 ! D22   D(44,2,43,39)          24.4262         estimate D2E/DX2                !
 ! D23   D(86,2,43,13)         102.0948         estimate D2E/DX2                !
 ! D24   D(86,2,43,39)         -99.5983         estimate D2E/DX2                !
 ! D25   D(6,2,44,40)         -138.6913         estimate D2E/DX2                !
 ! D26   D(6,2,44,47)           19.4887         estimate D2E/DX2                !
 ! D27   D(43,2,44,40)         -26.8255         estimate D2E/DX2                !
 ! D28   D(43,2,44,47)         131.3545         estimate D2E/DX2                !
 ! D29   D(86,2,44,40)          96.7495         estimate D2E/DX2                !
 ! D30   D(86,2,44,47)        -105.0706         estimate D2E/DX2                !
 ! D31   D(18,3,7,12)            0.9944         estimate D2E/DX2                !
 ! D32   D(18,3,7,30)          145.761          estimate D2E/DX2                !
 ! D33   D(26,3,7,12)         -144.6809         estimate D2E/DX2                !
 ! D34   D(26,3,7,30)            0.0857         estimate D2E/DX2                !
 ! D35   D(7,3,18,16)            8.4514         estimate D2E/DX2                !
 ! D36   D(7,3,18,20)         -144.5641         estimate D2E/DX2                !
 ! D37   D(26,3,18,16)         149.8387         estimate D2E/DX2                !
 ! D38   D(26,3,18,20)          -3.1768         estimate D2E/DX2                !
 ! D39   D(7,3,26,24)          150.0923         estimate D2E/DX2                !
 ! D40   D(7,3,26,28)            5.2414         estimate D2E/DX2                !
 ! D41   D(18,3,26,24)           3.6689         estimate D2E/DX2                !
 ! D42   D(18,3,26,28)        -141.182          estimate D2E/DX2                !
 ! D43   D(45,4,8,11)           -0.3683         estimate D2E/DX2                !
 ! D44   D(45,4,8,16)         -148.1929         estimate D2E/DX2                !
 ! D45   D(46,4,8,11)          145.4234         estimate D2E/DX2                !
 ! D46   D(46,4,8,16)           -2.4012         estimate D2E/DX2                !
 ! D47   D(8,4,45,41)          144.7608         estimate D2E/DX2                !
 ! D48   D(8,4,45,48)           -4.1591         estimate D2E/DX2                !
 ! D49   D(46,4,45,41)           3.2025         estimate D2E/DX2                !
 ! D50   D(46,4,45,48)        -145.7174         estimate D2E/DX2                !
 ! D51   D(8,4,46,14)            2.7231         estimate D2E/DX2                !
 ! D52   D(8,4,46,42)         -145.3264         estimate D2E/DX2                !
 ! D53   D(45,4,46,14)         148.6218         estimate D2E/DX2                !
 ! D54   D(45,4,46,42)           0.5722         estimate D2E/DX2                !
 ! D55   D(1,5,9,13)             1.4636         estimate D2E/DX2                !
 ! D56   D(1,5,9,35)          -155.8934         estimate D2E/DX2                !
 ! D57   D(29,5,9,13)          153.754          estimate D2E/DX2                !
 ! D58   D(29,5,9,35)           -3.603          estimate D2E/DX2                !
 ! D59   D(1,5,29,27)            8.5337         estimate D2E/DX2                !
 ! D60   D(1,5,29,31)          160.4222         estimate D2E/DX2                !
 ! D61   D(9,5,29,27)         -144.194          estimate D2E/DX2                !
 ! D62   D(9,5,29,31)            7.6945         estimate D2E/DX2                !
 ! D63   D(2,6,10,49)           -7.2997         estimate D2E/DX2                !
 ! D64   D(2,6,10,51)          154.5667         estimate D2E/DX2                !
 ! D65   D(15,6,10,49)        -157.5867         estimate D2E/DX2                !
 ! D66   D(15,6,10,51)           4.2797         estimate D2E/DX2                !
 ! D67   D(2,6,15,13)          -16.9272         estimate D2E/DX2                !
 ! D68   D(2,6,15,17)         -162.4406         estimate D2E/DX2                !
 ! D69   D(10,6,15,13)         138.506          estimate D2E/DX2                !
 ! D70   D(10,6,15,17)          -7.0074         estimate D2E/DX2                !
 ! D71   D(3,7,12,14)           -9.5806         estimate D2E/DX2                !
 ! D72   D(3,7,12,36)          143.4442         estimate D2E/DX2                !
 ! D73   D(30,7,12,14)        -149.9719         estimate D2E/DX2                !
 ! D74   D(30,7,12,36)           3.0528         estimate D2E/DX2                !
 ! D75   D(3,7,30,28)           -5.4224         estimate D2E/DX2                !
 ! D76   D(3,7,30,32)         -150.453          estimate D2E/DX2                !
 ! D77   D(12,7,30,28)         140.2322         estimate D2E/DX2                !
 ! D78   D(12,7,30,32)          -4.7983         estimate D2E/DX2                !
 ! D79   D(4,8,11,50)            7.0363         estimate D2E/DX2                !
 ! D80   D(4,8,11,52)         -146.0217         estimate D2E/DX2                !
 ! D81   D(16,8,11,50)         150.661          estimate D2E/DX2                !
 ! D82   D(16,8,11,52)          -2.397          estimate D2E/DX2                !
 ! D83   D(4,8,16,14)            1.1786         estimate D2E/DX2                !
 ! D84   D(4,8,16,18)          149.8653         estimate D2E/DX2                !
 ! D85   D(11,8,16,14)        -147.0841         estimate D2E/DX2                !
 ! D86   D(11,8,16,18)           1.6026         estimate D2E/DX2                !
 ! D87   D(5,9,13,15)           -3.9456         estimate D2E/DX2                !
 ! D88   D(5,9,13,43)         -151.1272         estimate D2E/DX2                !
 ! D89   D(35,9,13,15)         154.7054         estimate D2E/DX2                !
 ! D90   D(35,9,13,43)           7.5238         estimate D2E/DX2                !
 ! D91   D(5,9,35,33)           -7.7854         estimate D2E/DX2                !
 ! D92   D(5,9,35,37)          151.6104         estimate D2E/DX2                !
 ! D93   D(13,9,35,33)        -165.578          estimate D2E/DX2                !
 ! D94   D(13,9,35,37)          -6.1821         estimate D2E/DX2                !
 ! D95   D(6,10,49,47)          26.4457         estimate D2E/DX2                !
 ! D96   D(6,10,49,56)         139.141          estimate D2E/DX2                !
 ! D97   D(6,10,49,85)         -96.6378         estimate D2E/DX2                !
 ! D98   D(51,10,49,47)       -135.3249         estimate D2E/DX2                !
 ! D99   D(51,10,49,56)        -22.6295         estimate D2E/DX2                !
 ! D100  D(51,10,49,85)        101.5916         estimate D2E/DX2                !
 ! D101  D(6,10,51,19)           1.1181         estimate D2E/DX2                !
 ! D102  D(6,10,51,53)        -150.3683         estimate D2E/DX2                !
 ! D103  D(49,10,51,19)        162.4932         estimate D2E/DX2                !
 ! D104  D(49,10,51,53)         11.0068         estimate D2E/DX2                !
 ! D105  D(8,11,50,48)          -9.3646         estimate D2E/DX2                !
 ! D106  D(8,11,50,56)        -152.3824         estimate D2E/DX2                !
 ! D107  D(52,11,50,48)        143.5398         estimate D2E/DX2                !
 ! D108  D(52,11,50,56)          0.522          estimate D2E/DX2                !
 ! D109  D(8,11,52,20)           1.5602         estimate D2E/DX2                !
 ! D110  D(8,11,52,54)         155.0292         estimate D2E/DX2                !
 ! D111  D(50,11,52,20)       -150.5589         estimate D2E/DX2                !
 ! D112  D(50,11,52,54)          2.9101         estimate D2E/DX2                !
 ! D113  D(7,12,14,16)           8.8749         estimate D2E/DX2                !
 ! D114  D(7,12,14,46)         153.0941         estimate D2E/DX2                !
 ! D115  D(36,12,14,16)       -144.593          estimate D2E/DX2                !
 ! D116  D(36,12,14,46)         -0.3738         estimate D2E/DX2                !
 ! D117  D(7,12,36,34)           4.1079         estimate D2E/DX2                !
 ! D118  D(7,12,36,38)        -149.7565         estimate D2E/DX2                !
 ! D119  D(14,12,36,34)        155.9757         estimate D2E/DX2                !
 ! D120  D(14,12,36,38)          2.1113         estimate D2E/DX2                !
 ! D121  D(9,13,15,6)         -144.5758         estimate D2E/DX2                !
 ! D122  D(9,13,15,17)           1.7672         estimate D2E/DX2                !
 ! D123  D(43,13,15,6)           6.7714         estimate D2E/DX2                !
 ! D124  D(43,13,15,17)        153.1144         estimate D2E/DX2                !
 ! D125  D(9,13,43,2)          157.3611         estimate D2E/DX2                !
 ! D126  D(9,13,43,39)          -2.3477         estimate D2E/DX2                !
 ! D127  D(15,13,43,2)           6.2177         estimate D2E/DX2                !
 ! D128  D(15,13,43,39)       -153.4912         estimate D2E/DX2                !
 ! D129  D(12,14,16,8)         148.7825         estimate D2E/DX2                !
 ! D130  D(12,14,16,18)          0.5502         estimate D2E/DX2                !
 ! D131  D(46,14,16,8)           0.5            estimate D2E/DX2                !
 ! D132  D(46,14,16,18)       -147.7323         estimate D2E/DX2                !
 ! D133  D(12,14,46,4)        -150.7514         estimate D2E/DX2                !
 ! D134  D(12,14,46,42)         -2.2977         estimate D2E/DX2                !
 ! D135  D(16,14,46,4)          -1.98           estimate D2E/DX2                !
 ! D136  D(16,14,46,42)        146.4737         estimate D2E/DX2                !
 ! D137  D(6,15,17,1)          145.1806         estimate D2E/DX2                !
 ! D138  D(6,15,17,19)           4.0336         estimate D2E/DX2                !
 ! D139  D(13,15,17,1)           2.8923         estimate D2E/DX2                !
 ! D140  D(13,15,17,19)       -138.2547         estimate D2E/DX2                !
 ! D141  D(8,16,18,3)         -153.3875         estimate D2E/DX2                !
 ! D142  D(8,16,18,20)           0.0805         estimate D2E/DX2                !
 ! D143  D(14,16,18,3)          -9.1841         estimate D2E/DX2                !
 ! D144  D(14,16,18,20)        144.2839         estimate D2E/DX2                !
 ! D145  D(1,17,19,21)           3.4233         estimate D2E/DX2                !
 ! D146  D(1,17,19,51)        -143.1536         estimate D2E/DX2                !
 ! D147  D(15,17,19,21)        148.0332         estimate D2E/DX2                !
 ! D148  D(15,17,19,51)          1.4562         estimate D2E/DX2                !
 ! D149  D(3,18,20,22)          -2.4728         estimate D2E/DX2                !
 ! D150  D(3,18,20,52)         151.0005         estimate D2E/DX2                !
 ! D151  D(16,18,20,22)       -154.3568         estimate D2E/DX2                !
 ! D152  D(16,18,20,52)         -0.8835         estimate D2E/DX2                !
 ! D153  D(17,19,21,23)          0.4578         estimate D2E/DX2                !
 ! D154  D(17,19,21,57)       -144.7708         estimate D2E/DX2                !
 ! D155  D(51,19,21,23)        145.6707         estimate D2E/DX2                !
 ! D156  D(51,19,21,57)          0.4421         estimate D2E/DX2                !
 ! D157  D(17,19,51,10)         -4.0118         estimate D2E/DX2                !
 ! D158  D(17,19,51,53)        149.0481         estimate D2E/DX2                !
 ! D159  D(21,19,51,10)       -145.1624         estimate D2E/DX2                !
 ! D160  D(21,19,51,53)          7.8975         estimate D2E/DX2                !
 ! D161  D(18,20,22,24)          7.7579         estimate D2E/DX2                !
 ! D162  D(18,20,22,58)        147.075          estimate D2E/DX2                !
 ! D163  D(52,20,22,24)       -146.1913         estimate D2E/DX2                !
 ! D164  D(52,20,22,58)         -6.8742         estimate D2E/DX2                !
 ! D165  D(18,20,52,11)          0.0635         estimate D2E/DX2                !
 ! D166  D(18,20,52,54)       -152.9178         estimate D2E/DX2                !
 ! D167  D(22,20,52,11)        153.1719         estimate D2E/DX2                !
 ! D168  D(22,20,52,54)          0.1906         estimate D2E/DX2                !
 ! D169  D(19,21,23,1)          -4.1534         estimate D2E/DX2                !
 ! D170  D(19,21,23,25)       -148.2836         estimate D2E/DX2                !
 ! D171  D(57,21,23,1)         141.4533         estimate D2E/DX2                !
 ! D172  D(57,21,23,25)         -2.6769         estimate D2E/DX2                !
 ! D173  D(19,21,57,59)        142.9603         estimate D2E/DX2                !
 ! D174  D(19,21,57,83)         -7.7271         estimate D2E/DX2                !
 ! D175  D(23,21,57,59)          2.2634         estimate D2E/DX2                !
 ! D176  D(23,21,57,83)       -148.424          estimate D2E/DX2                !
 ! D177  D(20,22,24,26)         -7.531          estimate D2E/DX2                !
 ! D178  D(20,22,24,62)        137.073          estimate D2E/DX2                !
 ! D179  D(58,22,24,26)       -152.5444         estimate D2E/DX2                !
 ! D180  D(58,22,24,62)         -7.9404         estimate D2E/DX2                !
 ! D181  D(20,22,58,60)       -137.9979         estimate D2E/DX2                !
 ! D182  D(20,22,58,84)          7.1222         estimate D2E/DX2                !
 ! D183  D(24,22,58,60)          6.9193         estimate D2E/DX2                !
 ! D184  D(24,22,58,84)        152.0394         estimate D2E/DX2                !
 ! D185  D(1,23,25,27)           1.778          estimate D2E/DX2                !
 ! D186  D(1,23,25,61)        -139.2248         estimate D2E/DX2                !
 ! D187  D(21,23,25,27)        142.1126         estimate D2E/DX2                !
 ! D188  D(21,23,25,61)          1.1098         estimate D2E/DX2                !
 ! D189  D(22,24,26,3)           1.5391         estimate D2E/DX2                !
 ! D190  D(22,24,26,28)        142.4415         estimate D2E/DX2                !
 ! D191  D(62,24,26,3)        -139.8161         estimate D2E/DX2                !
 ! D192  D(62,24,26,28)          1.0863         estimate D2E/DX2                !
 ! D193  D(22,24,62,60)          6.0186         estimate D2E/DX2                !
 ! D194  D(22,24,62,64)       -140.5291         estimate D2E/DX2                !
 ! D195  D(26,24,62,60)        151.291          estimate D2E/DX2                !
 ! D196  D(26,24,62,64)          4.7433         estimate D2E/DX2                !
 ! D197  D(23,25,27,29)         -3.4622         estimate D2E/DX2                !
 ! D198  D(23,25,27,65)       -148.4182         estimate D2E/DX2                !
 ! D199  D(61,25,27,29)        141.5637         estimate D2E/DX2                !
 ! D200  D(61,25,27,65)         -3.3922         estimate D2E/DX2                !
 ! D201  D(23,25,61,59)          0.8122         estimate D2E/DX2                !
 ! D202  D(23,25,61,63)        146.7003         estimate D2E/DX2                !
 ! D203  D(27,25,61,59)       -143.6977         estimate D2E/DX2                !
 ! D204  D(27,25,61,63)          2.1905         estimate D2E/DX2                !
 ! D205  D(3,26,28,30)          -8.3763         estimate D2E/DX2                !
 ! D206  D(3,26,28,66)         136.0205         estimate D2E/DX2                !
 ! D207  D(24,26,28,30)       -152.6369         estimate D2E/DX2                !
 ! D208  D(24,26,28,66)         -8.2401         estimate D2E/DX2                !
 ! D209  D(25,27,29,5)          -1.8495         estimate D2E/DX2                !
 ! D210  D(25,27,29,31)       -154.4984         estimate D2E/DX2                !
 ! D211  D(65,27,29,5)         138.0944         estimate D2E/DX2                !
 ! D212  D(65,27,29,31)        -14.5545         estimate D2E/DX2                !
 ! D213  D(25,27,65,63)          3.2554         estimate D2E/DX2                !
 ! D214  D(25,27,65,67)        152.6878         estimate D2E/DX2                !
 ! D215  D(29,27,65,63)       -141.3956         estimate D2E/DX2                !
 ! D216  D(29,27,65,67)          8.0367         estimate D2E/DX2                !
 ! D217  D(26,28,30,7)           8.4503         estimate D2E/DX2                !
 ! D218  D(26,28,30,32)        153.4374         estimate D2E/DX2                !
 ! D219  D(66,28,30,7)        -136.1008         estimate D2E/DX2                !
 ! D220  D(66,28,30,32)          8.8863         estimate D2E/DX2                !
 ! D221  D(26,28,66,64)          8.9224         estimate D2E/DX2                !
 ! D222  D(26,28,66,68)       -146.0079         estimate D2E/DX2                !
 ! D223  D(30,28,66,64)        147.6562         estimate D2E/DX2                !
 ! D224  D(30,28,66,68)         -7.2742         estimate D2E/DX2                !
 ! D225  D(5,29,31,33)          -0.338          estimate D2E/DX2                !
 ! D226  D(5,29,31,69)        -147.1256         estimate D2E/DX2                !
 ! D227  D(27,29,31,33)        152.8315         estimate D2E/DX2                !
 ! D228  D(27,29,31,69)          6.0439         estimate D2E/DX2                !
 ! D229  D(7,30,32,34)          -0.7173         estimate D2E/DX2                !
 ! D230  D(7,30,32,70)         140.5399         estimate D2E/DX2                !
 ! D231  D(28,30,32,34)       -142.2261         estimate D2E/DX2                !
 ! D232  D(28,30,32,70)         -0.9689         estimate D2E/DX2                !
 ! D233  D(29,31,33,35)        -11.5734         estimate D2E/DX2                !
 ! D234  D(29,31,33,73)       -156.3362         estimate D2E/DX2                !
 ! D235  D(69,31,33,35)        138.8846         estimate D2E/DX2                !
 ! D236  D(69,31,33,73)         -5.8782         estimate D2E/DX2                !
 ! D237  D(29,31,69,67)          9.5169         estimate D2E/DX2                !
 ! D238  D(29,31,69,71)        155.2032         estimate D2E/DX2                !
 ! D239  D(33,31,69,67)       -141.1395         estimate D2E/DX2                !
 ! D240  D(33,31,69,71)          4.5468         estimate D2E/DX2                !
 ! D241  D(30,32,34,36)          8.2164         estimate D2E/DX2                !
 ! D242  D(30,32,34,74)        154.2263         estimate D2E/DX2                !
 ! D243  D(70,32,34,36)       -136.3543         estimate D2E/DX2                !
 ! D244  D(70,32,34,74)          9.6556         estimate D2E/DX2                !
 ! D245  D(30,32,70,68)         -8.3706         estimate D2E/DX2                !
 ! D246  D(30,32,70,72)       -154.0431         estimate D2E/DX2                !
 ! D247  D(34,32,70,68)        136.5881         estimate D2E/DX2                !
 ! D248  D(34,32,70,72)         -9.0844         estimate D2E/DX2                !
 ! D249  D(31,33,35,9)          15.1792         estimate D2E/DX2                !
 ! D250  D(31,33,35,37)       -144.3798         estimate D2E/DX2                !
 ! D251  D(73,33,35,9)         155.1784         estimate D2E/DX2                !
 ! D252  D(73,33,35,37)         -4.3806         estimate D2E/DX2                !
 ! D253  D(31,33,73,71)          4.8868         estimate D2E/DX2                !
 ! D254  D(31,33,73,75)        147.9349         estimate D2E/DX2                !
 ! D255  D(35,33,73,71)       -139.4238         estimate D2E/DX2                !
 ! D256  D(35,33,73,75)          3.6243         estimate D2E/DX2                !
 ! D257  D(32,34,36,12)         -9.6813         estimate D2E/DX2                !
 ! D258  D(32,34,36,38)        144.591          estimate D2E/DX2                !
 ! D259  D(74,34,36,12)       -150.1256         estimate D2E/DX2                !
 ! D260  D(74,34,36,38)          4.1467         estimate D2E/DX2                !
 ! D261  D(32,34,74,72)         -6.3249         estimate D2E/DX2                !
 ! D262  D(32,34,74,76)       -148.8752         estimate D2E/DX2                !
 ! D263  D(36,34,74,72)        139.0976         estimate D2E/DX2                !
 ! D264  D(36,34,74,76)         -3.4526         estimate D2E/DX2                !
 ! D265  D(9,35,37,39)          -0.1471         estimate D2E/DX2                !
 ! D266  D(9,35,37,77)        -168.0039         estimate D2E/DX2                !
 ! D267  D(33,35,37,39)        158.6871         estimate D2E/DX2                !
 ! D268  D(33,35,37,77)         -9.1697         estimate D2E/DX2                !
 ! D269  D(12,36,38,42)         -1.2679         estimate D2E/DX2                !
 ! D270  D(12,36,38,78)        152.6769         estimate D2E/DX2                !
 ! D271  D(34,36,38,42)       -154.9219         estimate D2E/DX2                !
 ! D272  D(34,36,38,78)         -0.9771         estimate D2E/DX2                !
 ! D273  D(35,37,39,43)          5.5662         estimate D2E/DX2                !
 ! D274  D(35,37,39,79)       -160.6781         estimate D2E/DX2                !
 ! D275  D(77,37,39,43)        173.628          estimate D2E/DX2                !
 ! D276  D(77,37,39,79)          7.3837         estimate D2E/DX2                !
 ! D277  D(35,37,77,75)         21.7545         estimate D2E/DX2                !
 ! D278  D(35,37,77,81)        134.3607         estimate D2E/DX2                !
 ! D279  D(35,37,77,88)       -102.3709         estimate D2E/DX2                !
 ! D280  D(39,37,77,75)       -146.4104         estimate D2E/DX2                !
 ! D281  D(39,37,77,81)        -33.8042         estimate D2E/DX2                !
 ! D282  D(39,37,77,88)         89.4642         estimate D2E/DX2                !
 ! D283  D(36,38,42,46)         -1.3231         estimate D2E/DX2                !
 ! D284  D(36,38,42,80)        151.4672         estimate D2E/DX2                !
 ! D285  D(78,38,42,46)       -155.8527         estimate D2E/DX2                !
 ! D286  D(78,38,42,80)         -3.0623         estimate D2E/DX2                !
 ! D287  D(36,38,78,76)         -2.8511         estimate D2E/DX2                !
 ! D288  D(36,38,78,81)       -147.5079         estimate D2E/DX2                !
 ! D289  D(42,38,78,76)        152.0586         estimate D2E/DX2                !
 ! D290  D(42,38,78,81)          7.4017         estimate D2E/DX2                !
 ! D291  D(37,39,43,2)        -160.5982         estimate D2E/DX2                !
 ! D292  D(37,39,43,13)         -4.3976         estimate D2E/DX2                !
 ! D293  D(79,39,43,2)           6.5227         estimate D2E/DX2                !
 ! D294  D(79,39,43,13)        162.7232         estimate D2E/DX2                !
 ! D295  D(37,39,79,40)        134.153          estimate D2E/DX2                !
 ! D296  D(37,39,79,82)         23.3732         estimate D2E/DX2                !
 ! D297  D(37,39,79,87)       -102.0056         estimate D2E/DX2                !
 ! D298  D(43,39,79,40)        -32.3897         estimate D2E/DX2                !
 ! D299  D(43,39,79,82)       -143.1695         estimate D2E/DX2                !
 ! D300  D(43,39,79,87)         91.4518         estimate D2E/DX2                !
 ! D301  D(44,40,41,45)          0.7311         estimate D2E/DX2                !
 ! D302  D(44,40,41,80)       -148.0604         estimate D2E/DX2                !
 ! D303  D(79,40,41,45)        156.8916         estimate D2E/DX2                !
 ! D304  D(79,40,41,80)          8.1001         estimate D2E/DX2                !
 ! D305  D(41,40,44,2)         152.7832         estimate D2E/DX2                !
 ! D306  D(41,40,44,47)         -5.5272         estimate D2E/DX2                !
 ! D307  D(79,40,44,2)           0.3127         estimate D2E/DX2                !
 ! D308  D(79,40,44,47)       -157.9977         estimate D2E/DX2                !
 ! D309  D(41,40,79,39)       -124.4688         estimate D2E/DX2                !
 ! D310  D(41,40,79,82)         -8.2359         estimate D2E/DX2                !
 ! D311  D(41,40,79,87)        112.8396         estimate D2E/DX2                !
 ! D312  D(44,40,79,39)         30.5838         estimate D2E/DX2                !
 ! D313  D(44,40,79,82)        146.8167         estimate D2E/DX2                !
 ! D314  D(44,40,79,87)        -92.1078         estimate D2E/DX2                !
 ! D315  D(40,41,45,4)        -146.106          estimate D2E/DX2                !
 ! D316  D(40,41,45,48)          2.8749         estimate D2E/DX2                !
 ! D317  D(80,41,45,4)          -0.8473         estimate D2E/DX2                !
 ! D318  D(80,41,45,48)        148.1336         estimate D2E/DX2                !
 ! D319  D(40,41,80,42)        143.3806         estimate D2E/DX2                !
 ! D320  D(40,41,80,82)         -4.2702         estimate D2E/DX2                !
 ! D321  D(45,41,80,42)         -5.434          estimate D2E/DX2                !
 ! D322  D(45,41,80,82)       -153.0847         estimate D2E/DX2                !
 ! D323  D(38,42,46,4)         147.0999         estimate D2E/DX2                !
 ! D324  D(38,42,46,14)          3.1158         estimate D2E/DX2                !
 ! D325  D(80,42,46,4)          -6.5181         estimate D2E/DX2                !
 ! D326  D(80,42,46,14)       -150.5021         estimate D2E/DX2                !
 ! D327  D(38,42,80,41)       -144.6615         estimate D2E/DX2                !
 ! D328  D(38,42,80,82)         -1.7294         estimate D2E/DX2                !
 ! D329  D(46,42,80,41)          8.8595         estimate D2E/DX2                !
 ! D330  D(46,42,80,82)        151.7916         estimate D2E/DX2                !
 ! D331  D(2,44,47,48)        -151.4217         estimate D2E/DX2                !
 ! D332  D(2,44,47,49)           0.3892         estimate D2E/DX2                !
 ! D333  D(40,44,47,48)          6.6749         estimate D2E/DX2                !
 ! D334  D(40,44,47,49)        158.4858         estimate D2E/DX2                !
 ! D335  D(4,45,48,47)         147.3104         estimate D2E/DX2                !
 ! D336  D(4,45,48,50)           1.7858         estimate D2E/DX2                !
[...]
 Alpha virt. eigenvalues --    1.17829   1.18006   1.18236   1.18776   1.18929
 Alpha virt. eigenvalues --    1.19140   1.19621   1.19699   1.20142   1.20382
 Alpha virt. eigenvalues --    1.20696   1.21350   1.21627   1.21825   1.21948
 Alpha virt. eigenvalues --    1.22827   1.23032   1.23146   1.23497   1.23530
 Alpha virt. eigenvalues --    1.23731   1.24116   1.24307   1.24512   1.24871
 Alpha virt. eigenvalues --    1.25134   1.25498   1.25771   1.25906   1.26174
 Alpha virt. eigenvalues --    1.26627   1.26716   1.26804   1.27104   1.27659
 Alpha virt. eigenvalues --    1.28059   1.28281   1.28544   1.28653   1.29311
 Alpha virt. eigenvalues --    1.29573   1.30025   1.30436   1.30588   1.30973
 Alpha virt. eigenvalues --    1.31383   1.31544   1.31947   1.32259   1.32480
 Alpha virt. eigenvalues --    1.32884   1.33480   1.33917   1.34139   1.34708
 Alpha virt. eigenvalues --    1.35064   1.35177   1.35841   1.36082   1.36735
 Alpha virt. eigenvalues --    1.36902   1.37150   1.37938   1.38200   1.38512
 Alpha virt. eigenvalues --    1.38734   1.39807   1.39971   1.40680   1.41778
 Alpha virt. eigenvalues --    1.42211   1.42525   1.43228   1.43807   1.44216
 Alpha virt. eigenvalues --    1.44359   1.44580   1.45448   1.45736   1.46126
 Alpha virt. eigenvalues --    1.47195   1.47736   1.48319   1.48715   1.48989
 Alpha virt. eigenvalues --    1.49591   1.49930   1.50351   1.50408   1.51940
 Alpha virt. eigenvalues --    1.52103   1.52993   1.53664   1.53975   1.54178
 Alpha virt. eigenvalues --    1.54945   1.55617   1.55904   1.56217   1.56489
 Alpha virt. eigenvalues --    1.56882   1.57169   1.57397   1.58191   1.58784
 Alpha virt. eigenvalues --    1.58972   1.59765   1.60202   1.60837   1.61374
 Alpha virt. eigenvalues --    1.61632   1.62232   1.62786   1.63013   1.63568
 Alpha virt. eigenvalues --    1.63816   1.64509   1.65020   1.65180   1.65487
 Alpha virt. eigenvalues --    1.65611   1.65902   1.66087   1.66236   1.66647
 Alpha virt. eigenvalues --    1.66819   1.67266   1.67476   1.68074   1.68165
 Alpha virt. eigenvalues --    1.68307   1.68702   1.68976   1.69265   1.69689
 Alpha virt. eigenvalues --    1.69772   1.70180   1.70245   1.70421   1.70632
 Alpha virt. eigenvalues --    1.70880   1.70941   1.71368   1.71528   1.71842
 Alpha virt. eigenvalues --    1.72149   1.72264   1.72458   1.72748   1.72917
 Alpha virt. eigenvalues --    1.73101   1.73390   1.73496   1.73789   1.73929
 Alpha virt. eigenvalues --    1.74304   1.74523   1.74654   1.74841   1.75069
 Alpha virt. eigenvalues --    1.75318   1.75568   1.75874   1.75943   1.76134
 Alpha virt. eigenvalues --    1.76259   1.76446   1.76706   1.76945   1.77093
 Alpha virt. eigenvalues --    1.77518   1.77632   1.78009   1.78130   1.78513
 Alpha virt. eigenvalues --    1.79021   1.79142   1.79528   1.79705   1.80156
 Alpha virt. eigenvalues --    1.80782   1.81174   1.81605   1.82045   1.82362
 Alpha virt. eigenvalues --    1.82592   1.83057   1.83491   1.83916   1.84142
 Alpha virt. eigenvalues --    1.84535   1.85061   1.85691   1.86161   1.86885
 Alpha virt. eigenvalues --    1.87147   1.87778   1.88663   1.88790   1.89563
 Alpha virt. eigenvalues --    1.89956   1.90402   1.90796   1.90945   1.91601
 Alpha virt. eigenvalues --    1.91718   1.92236   1.92600   1.93260   1.93765
 Alpha virt. eigenvalues --    1.93975   1.94201   1.94456   1.95067   1.95300
 Alpha virt. eigenvalues --    1.95657   1.95877   1.96026   1.96151   1.96621
 Alpha virt. eigenvalues --    1.96919   1.97245   1.97590   1.97722   1.98091
 Alpha virt. eigenvalues --    1.98194   1.98379   1.98871   1.99149   1.99262
 Alpha virt. eigenvalues --    1.99577   1.99835   2.00003   2.00223   2.00457
 Alpha virt. eigenvalues --    2.00645   2.00719   2.00942   2.01105   2.01427
 Alpha virt. eigenvalues --    2.01729   2.01836   2.01987   2.02518   2.02710
 Alpha virt. eigenvalues --    2.02959   2.03142   2.03378   2.03397   2.03719
 Alpha virt. eigenvalues --    2.03978   2.04330   2.04620   2.04738   2.05034
 Alpha virt. eigenvalues --    2.05237   2.05471   2.06490   2.06813   2.06889
 Alpha virt. eigenvalues --    2.07541   2.07690   2.07991   2.08846   2.09602
 Alpha virt. eigenvalues --    2.10278   2.10538   2.11093   2.11292   2.11568
 Alpha virt. eigenvalues --    2.11796   2.12471   2.13151   2.13709   2.13763
 Alpha virt. eigenvalues --    2.14204   2.14616   2.14856   2.15048   2.16215
 Alpha virt. eigenvalues --    2.16546   2.16880   2.17352   2.17749   2.18333
 Alpha virt. eigenvalues --    2.18599   2.18899   2.19600   2.20217   2.20381
 Alpha virt. eigenvalues --    2.20479   2.21152   2.21441   2.21696   2.22106
 Alpha virt. eigenvalues --    2.22238   2.22799   2.23367   2.23740   2.24358
 Alpha virt. eigenvalues --    2.24546   2.24845   2.25621   2.25759   2.26111
 Alpha virt. eigenvalues --    2.26437   2.26703   2.27034   2.27401   2.28185
 Alpha virt. eigenvalues --    2.28370   2.28694   2.29144   2.29253   2.29736
 Alpha virt. eigenvalues --    2.30236   2.30453   2.30633   2.31419   2.31573
 Alpha virt. eigenvalues --    2.32049   2.32303   2.32582   2.33946   2.34301
 Alpha virt. eigenvalues --    2.34990   2.35472   2.35843   2.36694   2.37548
 Alpha virt. eigenvalues --    2.38338   2.38646   2.39063   2.39828   2.40118
 Alpha virt. eigenvalues --    2.40497   2.40861   2.41533   2.41624   2.42630
 Alpha virt. eigenvalues --    2.42798   2.43139   2.43542   2.43961   2.44581
 Alpha virt. eigenvalues --    2.44979   2.45493   2.45918   2.47045   2.47346
 Alpha virt. eigenvalues --    2.47861   2.48554   2.50052   2.50410   2.50840
 Alpha virt. eigenvalues --    2.51644   2.52318   2.52592   2.52903   2.53110
 Alpha virt. eigenvalues --    2.53691   2.53952   2.54061   2.54444   2.54573
 Alpha virt. eigenvalues --    2.55160   2.55447   2.55568   2.56048   2.56391
 Alpha virt. eigenvalues --    2.56692   2.56982   2.57230   2.57610   2.57883
 Alpha virt. eigenvalues --    2.58225   2.58461   2.58730   2.59194   2.59393
 Alpha virt. eigenvalues --    2.59671   2.60093   2.60253   2.60542   2.61013
 Alpha virt. eigenvalues --    2.61380   2.61772   2.61888   2.62197   2.62796
 Alpha virt. eigenvalues --    2.62981   2.63224   2.63459   2.63639   2.64039
 Alpha virt. eigenvalues --    2.64762   2.64989   2.65267   2.65576   2.65786
 Alpha virt. eigenvalues --    2.66566   2.66981   2.67138   2.67482   2.67753
 Alpha virt. eigenvalues --    2.67839   2.68107   2.68726   2.69044   2.69684
 Alpha virt. eigenvalues --    2.70243   2.70336   2.70575   2.70755   2.71122
 Alpha virt. eigenvalues --    2.72110   2.72336   2.72698   2.73518   2.73783
 Alpha virt. eigenvalues --    2.74232   2.75094   2.75434   2.75900   2.76214
 Alpha virt. eigenvalues --    2.76689   2.77382   2.77834   2.78060   2.78350
 Alpha virt. eigenvalues --    2.79007   2.79614   2.80039   2.80312   2.80623
 Alpha virt. eigenvalues --    2.80923   2.81815   2.82278   2.82577   2.83019
 Alpha virt. eigenvalues --    2.83549   2.83842   2.84003   2.84505   2.84819
 Alpha virt. eigenvalues --    2.85189   2.85465   2.86252   2.86841   2.87017
 Alpha virt. eigenvalues --    2.87762   2.87945   2.88627   2.88909   2.89621
 Alpha virt. eigenvalues --    2.89809   2.89933   2.90597   2.91015   2.91376
 Alpha virt. eigenvalues --    2.91944   2.92106   2.92444   2.92631   2.93207
 Alpha virt. eigenvalues --    2.93607   2.94468   2.94849   2.96020   2.96165
 Alpha virt. eigenvalues --    2.96729   2.97017   2.97742   2.98175   2.99863
 Alpha virt. eigenvalues --    3.00688   3.01458   3.02217   3.03030   3.03293
 Alpha virt. eigenvalues --    3.05021   3.05444   3.07164   3.07881   3.10592
 Alpha virt. eigenvalues --    3.11503   3.13022   3.14350   3.15372   3.17539
 Alpha virt. eigenvalues --    3.18363   3.18739   3.20241   3.21142   3.24027
 Alpha virt. eigenvalues --    3.25976   3.28021   3.28750   3.29950   3.30902
 Alpha virt. eigenvalues --    3.32808   3.35088   3.35662   3.37096   3.39006
 Alpha virt. eigenvalues --    3.39884   3.42349   3.43246   3.44447   3.47474
 Alpha virt. eigenvalues --    3.47534   3.48963   3.51451   3.54660   3.55602
 Alpha virt. eigenvalues --    3.56049   3.60263   4.01122   4.01539   4.01974
 Alpha virt. eigenvalues --    4.02099   4.02664   4.04292   4.04477   4.05142
 Alpha virt. eigenvalues --    4.05155   4.06333   4.06545   4.06726   4.07010
 Alpha virt. eigenvalues --    4.08388   4.08674   4.08757   4.09615   4.10716
 Alpha virt. eigenvalues --    4.11414   4.11852   4.12016   4.13306   4.13682
 Alpha virt. eigenvalues --    4.15219   4.16250   4.17318   4.17778   4.19406
 Alpha virt. eigenvalues --    4.19514   4.19978   4.20588   4.21280   4.21935
 Alpha virt. eigenvalues --    4.22509   4.23910   4.24469   4.27009   4.27633
 Alpha virt. eigenvalues --    4.28217   4.28464   4.29004   4.29791   4.30001
 Alpha virt. eigenvalues --    4.30409   4.31756   4.34119   4.34615   4.37855
 Alpha virt. eigenvalues --    4.38413   4.39060   4.40240   4.43005   4.44191
 Alpha virt. eigenvalues --    4.45665   4.46631   4.47644   4.49327   4.50368
 Alpha virt. eigenvalues --    4.51372   4.52734   4.53258   4.55827   4.57700
 Alpha virt. eigenvalues --    4.57901   4.60463   4.62409   4.64217   4.65088
 Alpha virt. eigenvalues --    4.66575   4.68818   4.69896   4.72534   4.79183
 Alpha virt. eigenvalues --    4.81445   4.82467   4.84374   4.85810   4.87700
 Alpha virt. eigenvalues --    4.93044   4.94034   4.99500   5.03363   5.05095
 Alpha virt. eigenvalues --    5.10835   5.14609   5.18331   5.22134   5.23908
          Condensed to atoms (all electrons):
 Mulliken charges:
               1
     1  C   -0.023677
     2  C   -0.380341
     3  C   -0.019377
     4  C   -0.027842
     5  C    0.053896
     6  C    0.076495
     7  C   -0.023028
     8  C   -0.031829
     9  C    0.033353
    10  C    0.122970
    11  C    0.050447
    12  C    0.055325
    13  C    0.015564
    14  C   -0.036077
    15  C    0.022580
    16  C   -0.039801
    17  C   -0.019024
    18  C    0.062122
    19  C   -0.021617
    20  C    0.041386
    21  C   -0.028600
    22  C   -0.024303
    23  C   -0.004956
    24  C   -0.013646
    25  C   -0.009527
    26  C   -0.014188
    27  C   -0.020330
    28  C   -0.021809
    29  C    0.045366
    30  C   -0.015930
    31  C   -0.024741
    32  C   -0.010488
    33  C   -0.041495
    34  C   -0.015115
    35  C    0.062900
    36  C    0.050562
    37  C    0.093613
    38  C    0.029830
    39  C    0.151643
    40  C    0.071764
    41  C    0.003417
    42  C    0.054404
    43  C    0.080177
    44  C    0.171247
    45  C    0.060529
    46  C   -0.025190
    47  C    0.070174
    48  C    0.001530
    49  C   -0.362493
    50  C    0.014617
    51  C    0.084172
    52  C    0.038235
    53  C   -0.039653
    54  C   -0.020139
    55  C    0.002887
    56  C    0.073750
    57  C    0.060779
    58  C   -0.012339
    59  C    0.060345
    60  C   -0.027238
    61  C   -0.027788
    62  C   -0.019836
    63  C   -0.031485
    64  C    0.057936
    65  C   -0.027653
    66  C    0.045421
    67  C    0.053587
    68  C    0.043419
    69  C   -0.014520
    70  C   -0.022950
    71  C   -0.011056
    72  C    0.004687
    73  C    0.006772
    74  C   -0.013138
    75  C    0.078777
    76  C    0.023678
    77  C   -0.361692
    78  C    0.001373
    79  C   -0.377398
    80  C   -0.002095
    81  C    0.091165
    82  C    0.088455
    83  C   -0.015950
    84  C   -0.009037
    85  Cl  -0.016796
    86  Cl  -0.004747
    87  Cl   0.004341
    88  Cl  -0.004755
 Sum of Mulliken charges =  -0.00000
 Mulliken charges with hydrogens summed into heavy atoms:
               1
     1  C   -0.023677
     2  C   -0.380341
     3  C   -0.019377
     4  C   -0.027842
     5  C    0.053896
     6  C    0.076495
     7  C   -0.023028
     8  C   -0.031829
     9  C    0.033353
    10  C    0.122970
    11  C    0.050447
    12  C    0.055325
    13  C    0.015564
    14  C   -0.036077
    15  C    0.022580
    16  C   -0.039801
    17  C   -0.019024
    18  C    0.062122
    19  C   -0.021617
    20  C    0.041386
    21  C   -0.028600
    22  C   -0.024303
    23  C   -0.004956
    24  C   -0.013646
    25  C   -0.009527
    26  C   -0.014188
    27  C   -0.020330
    28  C   -0.021809
    29  C    0.045366
    30  C   -0.015930
    31  C   -0.024741
    32  C   -0.010488
    33  C   -0.041495
    34  C   -0.015115
    35  C    0.062900
    36  C    0.050562
    37  C    0.093613
    38  C    0.029830
    39  C    0.151643
    40  C    0.071764
    41  C    0.003417
    42  C    0.054404
    43  C    0.080177
    44  C    0.171247
    45  C    0.060529
    46  C   -0.025190
    47  C    0.070174
    48  C    0.001530
    49  C   -0.362493
    50  C    0.014617
    51  C    0.084172
    52  C    0.038235
    53  C   -0.039653
    54  C   -0.020139
    55  C    0.002887
    56  C    0.073750
    57  C    0.060779
    58  C   -0.012339
    59  C    0.060345
    60  C   -0.027238
    61  C   -0.027788
    62  C   -0.019836
    63  C   -0.031485
    64  C    0.057936
    65  C   -0.027653
    66  C    0.045421
    67  C    0.053587
    68  C    0.043419
    69  C   -0.014520
    70  C   -0.022950
    71  C   -0.011056
    72  C    0.004687
    73  C    0.006772
    74  C   -0.013138
    75  C    0.078777
    76  C    0.023678
    77  C   -0.361692
    78  C    0.001373
    79  C   -0.377398
    80  C   -0.002095
    81  C    0.091165
    82  C    0.088455
    83  C   -0.015950
    84  C   -0.009037
    85  Cl  -0.016796
    86  Cl  -0.004747
    87  Cl   0.004341
    88  Cl  -0.004755
 Electronic spatial extent (au):  <R**2>=          42173.5400
 Charge=             -0.0000 electrons
 Dipole moment (field-independent basis, Debye):
    X=             -5.1502    Y=              0.5495    Z=             -0.1762  Tot=              5.1825
 Quadrupole moment (field-independent basis, Debye-Ang):
   XX=           -528.7484   YY=           -516.0304   ZZ=           -500.0500
   XY=             -2.1662   XZ=              1.5672   YZ=              2.6170
 Traceless Quadrupole moment (field-independent basis, Debye-Ang):
   XX=            -13.8055   YY=             -1.0875   ZZ=             14.8929
   XY=             -2.1662   XZ=              1.5672   YZ=              2.6170
 Octapole moment (field-independent basis, Debye-Ang**2):
  XXX=            -10.8489  YYY=             13.8053  ZZZ=            -16.9594  XYY=            -37.1331
  XXY=             12.1565  XXZ=              2.3972  XZZ=             46.2303  YZZ=              5.9448
  YYZ=              2.8975  XYZ=              3.9523
 Hexadecapole moment (field-independent basis, Debye-Ang**3):
 XXXX=         -24353.1339 YYYY=         -22388.6178 ZZZZ=         -15482.9925 XXXY=             23.6311
 XXXZ=             -5.6555 YYYX=             -1.8595 YYYZ=             50.3510 ZZZX=            -20.1064
 ZZZY=            -22.6686 XXYY=          -7875.0761 XXZZ=          -6555.4816 YYZZ=          -6237.2595
 XXYZ=            -20.4316 YYXZ=            -10.3464 ZZXY=              0.9251
 N-N= 1.715612849924D+04 E-N=-4.609085225608D+04  KE= 5.006192608308D+03
 No NMR shielding tensors so no spin-rotation constants.
 Leave Link  601 at Thu Jun 30 04:09:29 2022, MaxMem=  1342177280 cpu:              22.7 elap:               1.2
 (Enter /home/mkliu/g16/l9999.exe)
 1\1\GINC-NODE04\FOpt\RB3LYP\6-31G(d,p)\C84Cl4\MKLIU\30-Jun-2022\0\\#P 
 opt b3lyp/6-31G(d, p) empiricaldispersion=GD3\\force\\0,1\C,8.52744673
 4,18.977449843,10.7984334318\C,12.6422718317,20.0659567114,8.854996985
 2\C,8.2819975267,26.7989828545,10.5626314053\C,12.3126932142,25.522579
 9918,8.9387604891\C,8.044728683,19.1729674517,9.4781029695\C,12.079119
 1921,19.7797132509,10.2472979167\C,7.9662174679,26.8307834418,9.167221
 6336\C,11.8655369046,25.933562324,10.2259691912\C,9.0161824175,19.3130
 617642,8.3955861154\C,12.3142185077,20.511977747,11.3889336785\C,12.10
 77122457,25.1513086605,11.3896286638\C,8.962324218,26.6358226617,8.173
 3235083\C,10.3930409133,19.2182939562,8.7208439475\C,10.3031386523,26.
 6497176759,8.6403315118\C,10.8499196506,19.0688923728,10.0798636401\C,
 10.6217620754,26.6371963453,10.0512508829\C,9.9347214006,18.9759695967
 ,11.0979979589\C,9.6214315896,26.6053221029,11.0382663335\C,10.1731701
 139,19.6790645037,12.3328597307\C,9.8570315448,25.8542739757,12.276886
 7444\C,8.8982946114,20.0630171182,12.8588675563\C,8.7119212092,25.3915
 578504,12.9755786731\C,7.8817384635,19.5739288919,11.9371236187\C,7.38
 73755302,25.5022964632,12.4140775775\C,6.7074343812,20.2759548298,11.7
 752441321\C,7.1681435567,26.2017437276,11.2530020488\C,6.1013528624,20
 .3596977062,10.4729759652\C,6.2041417535,25.7386477273,10.2816954831\C
 ,6.7478991348,19.8051691779,9.3328013172\C,6.6567998993,26.2387561271,
 9.0143165211\C,6.4162401422,20.385540137,8.0896207833\C,6.3262897626,2
 5.5810442986,7.8580149084\C,7.3213651,20.3911307228,6.9765741133\C,7.2
 9427348,25.4748873796,6.771788331\C,8.6885824557,19.9973754462,7.16307
 79027\C,8.6430037619,25.9034212089,6.9478143479\C,9.7218950823,20.6523
 752009,6.4112902578\C,9.6942523232,25.1531360861,6.2689238378\C,11.062
 3157917,20.636384436,6.858242918\C,12.9009575831,22.1849477363,7.55974
 72721\C,12.8337996337,23.5872805629,7.5676732649\C,11.0469426374,25.16
 01398657,6.7995778124\C,11.390458145,19.8824203039,7.9850278245\C,13.1
 770130151,21.4636257898,8.737448622\C,13.0414789449,24.321940361,8.762
 022834\C,11.3233344185,25.9336224743,7.9650661786\C,13.4926556246,22.1
 720682437,9.8929272641\C,13.393310851,23.5872798103,9.9211725533\C,13.
 3391055226,21.6308097361,11.3109389562\C,12.9690990462,24.0229554815,1
 1.2259700779\C,11.3347099934,20.4861852525,12.4744622861\C,11.11029459
 46,25.1244436532,12.4484856526\C,11.186990322,21.6189289812,13.3232689
 414\C,11.1107021246,23.9825045529,13.300860104\C,11.9551250189,22.8396
 87871,13.0546544779\C,12.8845283783,22.874119241,12.0572465236\C,8.722
 8305553,21.2877893406,13.5438389459\C,8.7234616699,24.1588699961,13.70
 72466944\C,7.4654133754,22.0345474848,13.3603016208\C,7.4772602426,23.
 4455294979,13.4814754735\C,6.4664980325,21.499059008,12.5005042181\C,6
 .6612479818,24.2773528582,12.6529722849\C,5.6780506093,22.3312192771,1
 1.6453773375\C,5.7997911745,23.7371441713,11.6459826982\C,5.4261545929
 ,21.6147568453,10.4051362117\C,5.5760348347,24.4765460092,10.395646894
 4\C,5.2248940071,22.2899494011,9.1792579997\C,5.2540615582,23.75588032
 28,9.1614349727\C,5.5882222108,21.5633129179,8.0107197254\C,5.54944475
 15,24.3756300804,7.9210137393\C,5.9135731039,22.2305071326,6.778692796
 4\C,5.8957975616,23.6097268128,6.7400403741\C,6.9663258808,21.48440886
 46,6.1163869869\C,6.9565339975,24.3085072882,6.0355795062\C,7.93815778
 12,22.153267625,5.3995858865\C,7.9609220553,23.5724832744,5.3987667589
 \C,9.3447332487,21.609074099,5.2710597867\C,9.3260361286,24.0219053934
 ,5.4783498721\C,12.1012232933,21.6408636039,6.3773083198\C,11.88287892
 05,24.0350946912,6.568436975\C,10.1737064378,22.8874524728,5.336520420
 8\C,11.4297799879,22.8963714454,5.860510294\C,9.9232483228,22.01189972
 55,13.8255918396\C,9.9048615275,23.4711740346,13.8693048315\Cl,14.9699
 902905,21.0300280635,11.9735292138\Cl,13.9315739519,18.8052343174,8.41
 61042597\Cl,13.2073684571,20.8701218173,5.1160479595\Cl,9.5543191208,2
 0.7312375276,3.6503711993\\Version=ES64L-G16RevA.03\State=1-A\HF=-5041
 .801924\RMSD=7.012e-09\RMSF=6.862e-05\Dipole=-1.7062028,0.9084602,0.64
 87073\Quadrupole=-2.9731526,5.6900769,-2.7169243,7.682201,2.0861522,-5
 .862766\PG=C01 [X(C84Cl4)]\\@


 NO MATTER HOW THIN YOU SLICE IT, IT'S STILL BALONEY

                                   -- ALFRED E. SMITH
 Job cpu time:       1 days  6 hours 46 minutes 23.0 seconds.
 Elapsed time:       0 days  1 hours 17 minutes  2.5 seconds.
 File lengths (MBytes):  RWF=   1098 Int=      0 D2E=      0 Chk=    138 Scr=      1
 Normal termination of Gaussian 16 at Thu Jun 30 04:09:30 2022.
