 Entering Gaussian System, Link 0=g16
 Input=4_addons_C84_11_mirror_Cl22_rank_2.gjf
 Output=4_addons_C84_11_mirror_Cl22_rank_2.log
 Initial command:
 /home/mkliu/g16/l1.exe "/data/scratch/Gau-123459.inp" -scrdir="/data/scratch/"
 Entering Link 1 = /home/mkliu/g16/l1.exe PID=    123460.
  
 Copyright (c) 1988,1990,1992,1993,1995,1998,2003,2009,2016,
            Gaussian, Inc.  All Rights Reserved.
  
 This is part of the Gaussian(R) 16 program.  It is based on
 the Gaussian(R) 09 system (copyright 2009, Gaussian, Inc.),
 the Gaussian(R) 03 system (copyright 2003, Gaussian, Inc.),
 the Gaussian(R) 98 system (copyright 1998, Gaussian, Inc.),
 the Gaussian(R) 94 system (copyright 1995, Gaussian, Inc.),
 the Gaussian 92(TM) system (copyright 1992, Gaussian, Inc.),
 the Gaussian 90(TM) system (copyright 1990, Gaussian, Inc.),
 the Gaussian 88(TM) system (copyright 1988, Gaussian, Inc.),
 the Gaussian 86(TM) system (copyright 1986, Carnegie Mellon
 University), and the Gaussian 82(TM) system (copyright 1983,
 Carnegie Mellon University). Gaussian is a federally registered
 trademark of Gaussian, Inc.
  
 This software contains proprietary and confidential information,
 including trade secrets, belonging to Gaussian, Inc.
  
 This software is provided under written license and may be
 used, copied, transmitted, or stored only in accord with that
 written license.
  
 The following legend is applicable only to US Government
 contracts under FAR:
  
                    RESTRICTED RIGHTS LEGEND
  
 Use, reproduction and disclosure by the US Government is
 subject to restrictions as set forth in subparagraphs (a)
 and (c) of the Commercial Computer Software - Restricted
 Rights clause in FAR 52.227-19.
  
 Gaussian, Inc.
 340 Quinnipiac St., Bldg. 40, Wallingford CT 06492
  
  
 ---------------------------------------------------------------
 Warning -- This program may not be used in any manner that
 competes with the business of Gaussian, Inc. or will provide
 assistance to any competitor of Gaussian, Inc.  The licensee
 of this program is prohibited from giving any competitor of
 Gaussian, Inc. access to this program.  By using this program,
 the user acknowledges that Gaussian, Inc. is engaged in the
 business of creating and licensing software in the field of
 computational chemistry and represents and warrants to the
 licensee that it is not a competitor of Gaussian, Inc. and that
 it will not use this program in any manner prohibited above.
 ---------------------------------------------------------------
  

 Cite this work as:
 Gaussian 16, Revision A.03,
 M. J. Frisch, G. W. Trucks, H. B. Schlegel, G. E. Scuseria, 
 M. A. Robb, J. R. Cheeseman, G. Scalmani, V. Barone, 
 G. A. Petersson, H. Nakatsuji, X. Li, M. Caricato, A. V. Marenich, 
 J. Bloino, B. G. Janesko, R. Gomperts, B. Mennucci, H. P. Hratchian, 
 J. V. Ortiz, A. F. Izmaylov, J. L. Sonnenberg, D. Williams-Young, 
 F. Ding, F. Lipparini, F. Egidi, J. Goings, B. Peng, A. Petrone, 
 T. Henderson, D. Ranasinghe, V. G. Zakrzewski, J. Gao, N. Rega, 
 G. Zheng, W. Liang, M. Hada, M. Ehara, K. Toyota, R. Fukuda, 
 J. Hasegawa, M. Ishida, T. Nakajima, Y. Honda, O. Kitao, H. Nakai, 
 T. Vreven, K. Throssell, J. A. Montgomery, Jr., J. E. Peralta, 
 F. Ogliaro, M. J. Bearpark, J. J. Heyd, E. N. Brothers, K. N. Kudin, 
 V. N. Staroverov, T. A. Keith, R. Kobayashi, J. Normand, 
 K. Raghavachari, A. P. Rendell, J. C. Burant, S. S. Iyengar, 
 J. Tomasi, M. Cossi, J. M. Millam, M. Klene, C. Adamo, R. Cammi, 
 J. W. Ochterski, R. L. Martin, K. Morokuma, O. Farkas, 
 J. B. Foresman, and D. J. Fox, Gaussian, Inc., Wallingford CT, 2016.
 
 ******************************************
 Gaussian 16:  ES64L-G16RevA.03 25-Dec-2016
                29-Jun-2022 
 ******************************************
 %mem=10GB
 %chk=4_addons_C84_11_mirror_Cl22_rank_2.chk
 %nprocshared=24
 Will use up to   24 processors via shared memory.
 ------------------------------------------------
 #P opt b3lyp/6-31G(d, p) empiricaldispersion=GD3
 ------------------------------------------------
 1/18=20,19=15,26=3,38=1/1,3;
 2/9=110,12=2,17=6,18=5,40=1/2;
 3/5=1,6=6,7=101,11=2,25=1,30=1,71=1,74=-5,124=31/1,2,3;
 4//1;
 5/5=2,38=5/2;
 6/7=2,8=2,9=2,10=2,28=1/1;
 7//1,2,3,16;
 1/18=20,19=15,26=3/3(2);
 2/9=110/2;
 99//99;
 2/9=110/2;
 3/5=1,6=6,7=101,11=2,25=1,30=1,71=1,74=-5,124=31/1,2,3;
 4/5=5,16=3,69=1/1;
 5/5=2,38=5/2;
 7//1,2,3,16;
 1/18=20,19=15,26=3/3(-5);
 2/9=110/2;
 6/7=2,8=2,9=2,10=2,19=2,28=1/1;
 99/9=1/99;
 Leave Link    1 at Wed Jun 29 04:53:08 2022, MaxMem=  1342177280 cpu:               0.7 elap:               0.1
 (Enter /home/mkliu/g16/l101.exe)
 -----
 force
 -----
 Symbolic Z-matrix:
 Charge =  0 Multiplicity = 1
 C                     8.54994   18.98524   10.78264 
 C                     12.43556   20.21923   8.89725 
 C                     8.31175   26.7237   10.54956 
 C                     12.34565   25.50227   8.9089 
 C                     8.07458   19.16075   9.46724 
 C                     12.07509   19.75767   10.1947 
 C                     8.0039    26.7473   9.15927 
 C                     11.87686   25.89056   10.19883 
 C                     9.03119   19.25239   8.38181 
 C                     12.33289   20.50588   11.35903 
 C                     12.13106   25.13116   11.34951 
 C                     8.99867   26.5811   8.17234 
 C                     10.38832   19.13128   8.70112 
 C                     10.32394   26.59544   8.64625 
 C                     10.84711   19.02161   10.04909 
 C                     10.63219   26.58449   10.02416 
 C                     9.94313   18.96658   11.07808 
 C                     9.63232   26.5483   11.0145 
 C                     10.19202   19.68585   12.30427 
 C                     9.87092   25.80098   12.21778 
 C                     8.93839   20.07392   12.82282 
 C                     8.72271   25.33611   12.88942 
 C                     7.91148   19.58365   11.91923 
 C                     7.39834   25.50014   12.38968 
 C                     6.73396   20.25504   11.77721 
 C                     7.19037   26.18895   11.24301 
 C                     6.1872    20.37753   10.47878 
 C                     6.05201   25.90351   10.30597 
 C                     6.80597   19.81849   9.34341 
 C                     6.6887    26.2372   8.9888 
 C                     6.46304   20.41145   8.11257 
 C                     6.38051   25.58844   7.84289 
 C                     7.37873   20.39166   6.99856 
 C                     7.35662   25.44373   6.81207 
 C                     8.70042   19.94766   7.1497 
 C                     8.69372   25.86787   6.96188 
 C                     9.7341    20.60651   6.37182 
 C                     9.73954   25.14027   6.27105 
 C                     11.10317   20.59079   6.83994 
 C                     12.90185   22.15078   7.5374 
 C                     12.8873   23.60108   7.53692 
 C                     11.09765   25.15735   6.7958 
 C                     11.40779   19.83368   7.97644 
 C                     13.14879   21.42917   8.72283 
 C                     13.09617   24.31802   8.73606 
 C                     11.37112   25.90628   7.94744 
 C                     13.48304   22.1474   9.89327 
 C                     13.43746   23.59862   9.90001 
 C                     13.10842   21.68218   11.17072 
 C                     13.01214   24.02739   11.17782 
 C                     11.36189   20.47785   12.44011 
 C                     11.12106   25.08722   12.39282 
 C                     11.21021   21.61585   13.25432 
 C                     11.12465   23.9688   13.24077 
 C                     11.95872   22.81959   12.99128 
 C                     12.88124   22.84799   11.98489 
 C                     8.75197   21.30991   13.48441 
 C                     8.73712   24.11932   13.62714 
 C                     7.51792   22.04715   13.32859 
 C                     7.5153    23.41178   13.43595 
 C                     6.33823   21.42282   12.63843 
 C                     6.51213   24.35616   12.80025 
 C                     5.76028   22.35882   11.59698 
 C                     5.88118   23.72662   11.5812 
 C                     5.55219   21.65509   10.39608 
 C                     5.68935   24.42744   10.35457 
 C                     5.34938   22.32171   9.17915 
 C                     5.38893   23.74726   9.1777 
 C                     5.65408   21.56157   8.02053 
 C                     5.39124   24.45605   7.83182 
 C                     5.97357   22.23248   6.785 
 C                     5.94565   23.59866   6.72231 
 C                     7.0258    21.48532   6.15358 
 C                     7.0136    24.279    6.0655 
 C                     8.01645   22.13859   5.44731 
 C                     8.01558   23.57915   5.41258 
 C                     9.35738   21.67884   5.53678 
 C                     9.36037   24.03693   5.48783 
 C                     11.95791   21.69834   6.58978 
 C                     11.95179   24.04263   6.57527 
 C                     10.18722   22.85257   5.41435 
 C                     11.44658   22.86449   5.93041 
 C                     9.94142   22.01677   13.75554 
 C                     9.92439   23.44881   13.80222 
 Cl                    5.08037   20.95708   13.85786 
 Cl                    5.22405   24.84042   13.97136 
 Cl                    4.58165   26.88568   10.6579 
 Cl                    3.7004    24.99364   7.4653 
 
 ITRead=  0  0  0  0  0  0  0  0  0  0  0  0  0  0  0  0  0  0  0  0
 ITRead=  0  0  0  0  0  0  0  0  0  0  0  0  0  0  0  0  0  0  0  0
 ITRead=  0  0  0  0  0  0  0  0  0  0  0  0  0  0  0  0  0  0  0  0
 ITRead=  0  0  0  0  0  0  0  0  0  0  0  0  0  0  0  0  0  0  0  0
 ITRead=  0  0  0  0  0  0  0  0
 MicOpt= -1 -1 -1 -1 -1 -1 -1 -1 -1 -1 -1 -1 -1 -1 -1 -1 -1 -1 -1 -1
 MicOpt= -1 -1 -1 -1 -1 -1 -1 -1 -1 -1 -1 -1 -1 -1 -1 -1 -1 -1 -1 -1
 MicOpt= -1 -1 -1 -1 -1 -1 -1 -1 -1 -1 -1 -1 -1 -1 -1 -1 -1 -1 -1 -1
 MicOpt= -1 -1 -1 -1 -1 -1 -1 -1 -1 -1 -1 -1 -1 -1 -1 -1 -1 -1 -1 -1
 MicOpt= -1 -1 -1 -1 -1 -1 -1 -1
 NAtoms=     88 NQM=       88 NQMF=       0 NMMI=      0 NMMIF=      0
                NMic=       0 NMicF=      0.
                    Isotopes and Nuclear Properties:
 (Nuclear quadrupole moments (NQMom) in fm**2, nuclear magnetic moments (NMagM)
  in nuclear magnetons)

  Atom         1           2           3           4           5           6           7           8           9          10
 IAtWgt=          12          12          12          12          12          12          12          12          12          12
 AtmWgt=  12.0000000  12.0000000  12.0000000  12.0000000  12.0000000  12.0000000  12.0000000  12.0000000  12.0000000  12.0000000
 NucSpn=           0           0           0           0           0           0           0           0           0           0
 AtZEff=  -0.0000000  -0.0000000  -0.0000000  -0.0000000  -0.0000000  -0.0000000  -0.0000000  -0.0000000  -0.0000000  -0.0000000
 NQMom=    0.0000000   0.0000000   0.0000000   0.0000000   0.0000000   0.0000000   0.0000000   0.0000000   0.0000000   0.0000000
 NMagM=    0.0000000   0.0000000   0.0000000   0.0000000   0.0000000   0.0000000   0.0000000   0.0000000   0.0000000   0.0000000
 AtZNuc=   6.0000000   6.0000000   6.0000000   6.0000000   6.0000000   6.0000000   6.0000000   6.0000000   6.0000000   6.0000000

  Atom        11          12          13          14          15          16          17          18          19          20
 IAtWgt=          12          12          12          12          12          12          12          12          12          12
 AtmWgt=  12.0000000  12.0000000  12.0000000  12.0000000  12.0000000  12.0000000  12.0000000  12.0000000  12.0000000  12.0000000
 NucSpn=           0           0           0           0           0           0           0           0           0           0
 AtZEff=  -0.0000000  -0.0000000  -0.0000000  -0.0000000  -0.0000000  -0.0000000  -0.0000000  -0.0000000  -0.0000000  -0.0000000
 NQMom=    0.0000000   0.0000000   0.0000000   0.0000000   0.0000000   0.0000000   0.0000000   0.0000000   0.0000000   0.0000000
 NMagM=    0.0000000   0.0000000   0.0000000   0.0000000   0.0000000   0.0000000   0.0000000   0.0000000   0.0000000   0.0000000
 AtZNuc=   6.0000000   6.0000000   6.0000000   6.0000000   6.0000000   6.0000000   6.0000000   6.0000000   6.0000000   6.0000000

  Atom        21          22          23          24          25          26          27          28          29          30
 IAtWgt=          12          12          12          12          12          12          12          12          12          12
 AtmWgt=  12.0000000  12.0000000  12.0000000  12.0000000  12.0000000  12.0000000  12.0000000  12.0000000  12.0000000  12.0000000
 NucSpn=           0           0           0           0           0           0           0           0           0           0
 AtZEff=  -0.0000000  -0.0000000  -0.0000000  -0.0000000  -0.0000000  -0.0000000  -0.0000000  -0.0000000  -0.0000000  -0.0000000
 NQMom=    0.0000000   0.0000000   0.0000000   0.0000000   0.0000000   0.0000000   0.0000000   0.0000000   0.0000000   0.0000000
 NMagM=    0.0000000   0.0000000   0.0000000   0.0000000   0.0000000   0.0000000   0.0000000   0.0000000   0.0000000   0.0000000
 AtZNuc=   6.0000000   6.0000000   6.0000000   6.0000000   6.0000000   6.0000000   6.0000000   6.0000000   6.0000000   6.0000000

  Atom        31          32          33          34          35          36          37          38          39          40
 IAtWgt=          12          12          12          12          12          12          12          12          12          12
 AtmWgt=  12.0000000  12.0000000  12.0000000  12.0000000  12.0000000  12.0000000  12.0000000  12.0000000  12.0000000  12.0000000
 NucSpn=           0           0           0           0           0           0           0           0           0           0
 AtZEff=  -0.0000000  -0.0000000  -0.0000000  -0.0000000  -0.0000000  -0.0000000  -0.0000000  -0.0000000  -0.0000000  -0.0000000
 NQMom=    0.0000000   0.0000000   0.0000000   0.0000000   0.0000000   0.0000000   0.0000000   0.0000000   0.0000000   0.0000000
 NMagM=    0.0000000   0.0000000   0.0000000   0.0000000   0.0000000   0.0000000   0.0000000   0.0000000   0.0000000   0.0000000
 AtZNuc=   6.0000000   6.0000000   6.0000000   6.0000000   6.0000000   6.0000000   6.0000000   6.0000000   6.0000000   6.0000000

  Atom        41          42          43          44          45          46          47          48          49          50
 IAtWgt=          12          12          12          12          12          12          12          12          12          12
 AtmWgt=  12.0000000  12.0000000  12.0000000  12.0000000  12.0000000  12.0000000  12.0000000  12.0000000  12.0000000  12.0000000
 NucSpn=           0           0           0           0           0           0           0           0           0           0
 AtZEff=  -0.0000000  -0.0000000  -0.0000000  -0.0000000  -0.0000000  -0.0000000  -0.0000000  -0.0000000  -0.0000000  -0.0000000
 NQMom=    0.0000000   0.0000000   0.0000000   0.0000000   0.0000000   0.0000000   0.0000000   0.0000000   0.0000000   0.0000000
 NMagM=    0.0000000   0.0000000   0.0000000   0.0000000   0.0000000   0.0000000   0.0000000   0.0000000   0.0000000   0.0000000
 AtZNuc=   6.0000000   6.0000000   6.0000000   6.0000000   6.0000000   6.0000000   6.0000000   6.0000000   6.0000000   6.0000000

  Atom        51          52          53          54          55          56          57          58          59          60
 IAtWgt=          12          12          12          12          12          12          12          12          12          12
 AtmWgt=  12.0000000  12.0000000  12.0000000  12.0000000  12.0000000  12.0000000  12.0000000  12.0000000  12.0000000  12.0000000
 NucSpn=           0           0           0           0           0           0           0           0           0           0
 AtZEff=  -0.0000000  -0.0000000  -0.0000000  -0.0000000  -0.0000000  -0.0000000  -0.0000000  -0.0000000  -0.0000000  -0.0000000
 NQMom=    0.0000000   0.0000000   0.0000000   0.0000000   0.0000000   0.0000000   0.0000000   0.0000000   0.0000000   0.0000000
 NMagM=    0.0000000   0.0000000   0.0000000   0.0000000   0.0000000   0.0000000   0.0000000   0.0000000   0.0000000   0.0000000
 AtZNuc=   6.0000000   6.0000000   6.0000000   6.0000000   6.0000000   6.0000000   6.0000000   6.0000000   6.0000000   6.0000000

  Atom        61          62          63          64          65          66          67          68          69          70
 IAtWgt=          12          12          12          12          12          12          12          12          12          12
 AtmWgt=  12.0000000  12.0000000  12.0000000  12.0000000  12.0000000  12.0000000  12.0000000  12.0000000  12.0000000  12.0000000
 NucSpn=           0           0           0           0           0           0           0           0           0           0
 AtZEff=  -0.0000000  -0.0000000  -0.0000000  -0.0000000  -0.0000000  -0.0000000  -0.0000000  -0.0000000  -0.0000000  -0.0000000
 NQMom=    0.0000000   0.0000000   0.0000000   0.0000000   0.0000000   0.0000000   0.0000000   0.0000000   0.0000000   0.0000000
 NMagM=    0.0000000   0.0000000   0.0000000   0.0000000   0.0000000   0.0000000   0.0000000   0.0000000   0.0000000   0.0000000
 AtZNuc=   6.0000000   6.0000000   6.0000000   6.0000000   6.0000000   6.0000000   6.0000000   6.0000000   6.0000000   6.0000000

  Atom        71          72          73          74          75          76          77          78          79          80
 IAtWgt=          12          12          12          12          12          12          12          12          12          12
 AtmWgt=  12.0000000  12.0000000  12.0000000  12.0000000  12.0000000  12.0000000  12.0000000  12.0000000  12.0000000  12.0000000
 NucSpn=           0           0           0           0           0           0           0           0           0           0
 AtZEff=  -0.0000000  -0.0000000  -0.0000000  -0.0000000  -0.0000000  -0.0000000  -0.0000000  -0.0000000  -0.0000000  -0.0000000
 NQMom=    0.0000000   0.0000000   0.0000000   0.0000000   0.0000000   0.0000000   0.0000000   0.0000000   0.0000000   0.0000000
 NMagM=    0.0000000   0.0000000   0.0000000   0.0000000   0.0000000   0.0000000   0.0000000   0.0000000   0.0000000   0.0000000
 AtZNuc=   6.0000000   6.0000000   6.0000000   6.0000000   6.0000000   6.0000000   6.0000000   6.0000000   6.0000000   6.0000000

  Atom        81          82          83          84          85          86          87          88
 IAtWgt=          12          12          12          12          35          35          35          35
 AtmWgt=  12.0000000  12.0000000  12.0000000  12.0000000  34.9688527  34.9688527  34.9688527  34.9688527
 NucSpn=           0           0           0           0           3           3           3           3
 AtZEff=  -0.0000000  -0.0000000  -0.0000000  -0.0000000  -0.0000000  -0.0000000  -0.0000000  -0.0000000
 NQMom=    0.0000000   0.0000000   0.0000000   0.0000000  -8.1650000  -8.1650000  -8.1650000  -8.1650000
 NMagM=    0.0000000   0.0000000   0.0000000   0.0000000   0.8218740   0.8218740   0.8218740   0.8218740
 AtZNuc=   6.0000000   6.0000000   6.0000000   6.0000000  17.0000000  17.0000000  17.0000000  17.0000000
 Leave Link  101 at Wed Jun 29 04:53:09 2022, MaxMem=  1342177280 cpu:               6.6 elap:               0.3
 (Enter /home/mkliu/g16/l103.exe)

 GradGradGradGradGradGradGradGradGradGradGradGradGradGradGradGradGradGrad
 Berny optimization.
 Initialization pass.
                           ----------------------------
                           !    Initial Parameters    !
                           ! (Angstroms and Degrees)  !
 --------------------------                            --------------------------
 ! Name  Definition              Value          Derivative Info.                !
 --------------------------------------------------------------------------------
 ! R1    R(1,5)                  1.4096         estimate D2E/DX2                !
 ! R2    R(1,17)                 1.4243         estimate D2E/DX2                !
 ! R3    R(1,23)                 1.4344         estimate D2E/DX2                !
 ! R4    R(2,6)                  1.4235         estimate D2E/DX2                !
 ! R5    R(2,43)                 1.4328         estimate D2E/DX2                !
 ! R6    R(2,44)                 1.4153         estimate D2E/DX2                !
 ! R7    R(3,7)                  1.4242         estimate D2E/DX2                !
 ! R8    R(3,18)                 1.411          estimate D2E/DX2                !
 ! R9    R(3,26)                 1.4228         estimate D2E/DX2                !
 ! R10   R(4,8)                  1.4263         estimate D2E/DX2                !
 ! R11   R(4,45)                 1.4127         estimate D2E/DX2                !
 ! R12   R(4,46)                 1.4274         estimate D2E/DX2                !
 ! R13   R(5,9)                  1.4497         estimate D2E/DX2                !
 ! R14   R(5,29)                 1.4343         estimate D2E/DX2                !
 ! R15   R(6,10)                 1.4078         estimate D2E/DX2                !
 ! R16   R(6,15)                 1.4391         estimate D2E/DX2                !
 ! R17   R(7,12)                 1.4111         estimate D2E/DX2                !
 ! R18   R(7,30)                 1.4209         estimate D2E/DX2                !
 ! R19   R(8,11)                 1.4019         estimate D2E/DX2                !
 ! R20   R(8,16)                 1.4357         estimate D2E/DX2                !
 ! R21   R(9,13)                 1.3994         estimate D2E/DX2                !
 ! R22   R(9,35)                 1.4529         estimate D2E/DX2                !
 ! R23   R(10,49)                1.4215         estimate D2E/DX2                !
 ! R24   R(10,51)                1.4534         estimate D2E/DX2                !
 ! R25   R(11,50)                1.4227         estimate D2E/DX2                !
 ! R26   R(11,52)                1.4528         estimate D2E/DX2                !
 ! R27   R(12,14)                1.4075         estimate D2E/DX2                !
 ! R28   R(12,36)                1.4377         estimate D2E/DX2                !
 ! R29   R(13,15)                1.4281         estimate D2E/DX2                !
 ! R30   R(13,43)                1.4345         estimate D2E/DX2                !
 ! R31   R(14,16)                1.412          estimate D2E/DX2                !
 ! R32   R(14,46)                1.4352         estimate D2E/DX2                !
 ! R33   R(15,17)                1.3708         estimate D2E/DX2                !
 ! R34   R(16,18)                1.4078         estimate D2E/DX2                !
 ! R35   R(17,19)                1.4432         estimate D2E/DX2                !
 ! R36   R(18,20)                1.4364         estimate D2E/DX2                !
 ! R37   R(19,21)                1.411          estimate D2E/DX2                !
 ! R38   R(19,51)                1.4193         estimate D2E/DX2                !
 ! R39   R(20,22)                1.4091         estimate D2E/DX2                !
 ! R40   R(20,52)                1.4501         estimate D2E/DX2                !
 ! R41   R(21,23)                1.4531         estimate D2E/DX2                !
 ! R42   R(21,57)                1.4143         estimate D2E/DX2                !
 ! R43   R(22,24)                1.425          estimate D2E/DX2                !
 ! R44   R(22,58)                1.423          estimate D2E/DX2                !
 ! R45   R(23,25)                1.3629         estimate D2E/DX2                !
 ! R46   R(24,26)                1.3537         estimate D2E/DX2                !
 ! R47   R(24,62)                1.5042         estimate D2E/DX2                !
 ! R48   R(25,27)                1.4142         estimate D2E/DX2                !
 ! R49   R(25,61)                1.504          estimate D2E/DX2                !
 ! R50   R(26,28)                1.5018         estimate D2E/DX2                !
 ! R51   R(27,29)                1.4087         estimate D2E/DX2                !
 ! R52   R(27,65)                1.4291         estimate D2E/DX2                !
 ! R53   R(28,30)                1.5006         estimate D2E/DX2                !
 ! R54   R(28,66)                1.5207         estimate D2E/DX2                !
 ! R55   R(28,87)                1.8029         estimate D2E/DX2                !
 ! R56   R(29,31)                1.4086         estimate D2E/DX2                !
 ! R57   R(30,32)                1.3524         estimate D2E/DX2                !
 ! R58   R(31,33)                1.4422         estimate D2E/DX2                !
 ! R59   R(31,69)                1.4091         estimate D2E/DX2                !
 ! R60   R(32,34)                1.427          estimate D2E/DX2                !
 ! R61   R(32,70)                1.5037         estimate D2E/DX2                !
 ! R62   R(33,35)                1.4024         estimate D2E/DX2                !
 ! R63   R(33,73)                1.4264         estimate D2E/DX2                !
 ! R64   R(34,36)                1.4107         estimate D2E/DX2                !
 ! R65   R(34,74)                1.4253         estimate D2E/DX2                !
 ! R66   R(35,37)                1.4518         estimate D2E/DX2                !
 ! R67   R(36,38)                1.4493         estimate D2E/DX2                !
 ! R68   R(37,39)                1.447          estimate D2E/DX2                !
 ! R69   R(37,77)                1.4104         estimate D2E/DX2                !
 ! R70   R(38,42)                1.4561         estimate D2E/DX2                !
 ! R71   R(38,78)                1.4052         estimate D2E/DX2                !
 ! R72   R(39,43)                1.3992         estimate D2E/DX2                !
 ! R73   R(39,79)                1.4212         estimate D2E/DX2                !
 ! R74   R(40,41)                1.4504         estimate D2E/DX2                !
 ! R75   R(40,44)                1.4096         estimate D2E/DX2                !
 ! R76   R(40,79)                1.412          estimate D2E/DX2                !
 ! R77   R(41,45)                1.4126         estimate D2E/DX2                !
 ! R78   R(41,80)                1.4124         estimate D2E/DX2                !
 ! R79   R(42,46)                1.4007         estimate D2E/DX2                !
 ! R80   R(42,80)                1.4215         estimate D2E/DX2                !
 ! R81   R(44,47)                1.4133         estimate D2E/DX2                !
 ! R82   R(45,48)                1.4102         estimate D2E/DX2                !
 ! R83   R(47,48)                1.4519         estimate D2E/DX2                !
 ! R84   R(47,49)                1.4102         estimate D2E/DX2                !
 ! R85   R(48,50)                1.4133         estimate D2E/DX2                !
 ! R86   R(49,56)                1.44           estimate D2E/DX2                !
 ! R87   R(50,56)                1.4351         estimate D2E/DX2                !
 ! R88   R(51,53)                1.4075         estimate D2E/DX2                !
 ! R89   R(52,54)                1.4035         estimate D2E/DX2                !
 ! R90   R(53,55)                1.4417         estimate D2E/DX2                !
 ! R91   R(53,83)                1.4219         estimate D2E/DX2                !
 ! R92   R(54,55)                1.4417         estimate D2E/DX2                !
 ! R93   R(54,84)                1.4235         estimate D2E/DX2                !
 ! R94   R(55,56)                1.3655         estimate D2E/DX2                !
 ! R95   R(57,59)                1.4459         estimate D2E/DX2                !
 ! R96   R(57,83)                1.4099         estimate D2E/DX2                !
 ! R97   R(58,60)                1.4248         estimate D2E/DX2                !
 ! R98   R(58,84)                1.3747         estimate D2E/DX2                !
 ! R99   R(59,60)                1.3688         estimate D2E/DX2                !
 ! R100  R(59,61)                1.5026         estimate D2E/DX2                !
 ! R101  R(60,62)                1.5173         estimate D2E/DX2                !
 ! R102  R(61,63)                1.5148         estimate D2E/DX2                !
 ! R103  R(61,85)                1.8128         estimate D2E/DX2                !
 ! R104  R(62,64)                1.5101         estimate D2E/DX2                !
 ! R105  R(62,86)                1.807          estimate D2E/DX2                !
 ! R106  R(63,64)                1.3732         estimate D2E/DX2                !
 ! R107  R(63,65)                1.4074         estimate D2E/DX2                !
 ! R108  R(64,66)                1.4257         estimate D2E/DX2                !
 ! R109  R(65,67)                1.4023         estimate D2E/DX2                !
 ! R110  R(66,68)                1.3921         estimate D2E/DX2                !
 ! R111  R(67,68)                1.4261         estimate D2E/DX2                !
 ! R112  R(67,69)                1.4188         estimate D2E/DX2                !
 ! R113  R(68,70)                1.5211         estimate D2E/DX2                !
 ! R114  R(69,71)                1.4418         estimate D2E/DX2                !
 ! R115  R(70,72)                1.5078         estimate D2E/DX2                !
 ! R116  R(70,88)                1.8117         estimate D2E/DX2                !
 ! R117  R(71,72)                1.3679         estimate D2E/DX2                !
 ! R118  R(71,73)                1.4367         estimate D2E/DX2                !
 ! R119  R(72,74)                1.4265         estimate D2E/DX2                !
 ! R120  R(73,75)                1.3809         estimate D2E/DX2                !
 ! R121  R(74,76)                1.3857         estimate D2E/DX2                !
 ! R122  R(75,76)                1.441          estimate D2E/DX2                !
 ! R123  R(75,77)                1.4204         estimate D2E/DX2                !
 ! R124  R(76,78)                1.4226         estimate D2E/DX2                !
 ! R125  R(77,81)                1.4427         estimate D2E/DX2                !
 ! R126  R(78,81)                1.4463         estimate D2E/DX2                !
 ! R127  R(79,82)                1.4339         estimate D2E/DX2                !
 ! R128  R(80,82)                1.4349         estimate D2E/DX2                !
 ! R129  R(81,82)                1.361          estimate D2E/DX2                !
 ! R130  R(83,84)                1.4329         estimate D2E/DX2                !
 ! A1    A(5,1,17)             121.6723         estimate D2E/DX2                !
 ! A2    A(5,1,23)             122.5042         estimate D2E/DX2                !
 ! A3    A(17,1,23)            106.0503         estimate D2E/DX2                !
 ! A4    A(6,2,43)             108.4736         estimate D2E/DX2                !
 ! A5    A(6,2,44)             121.14           estimate D2E/DX2                !
 ! A6    A(43,2,44)            120.82           estimate D2E/DX2                !
 ! A7    A(7,3,18)             121.7388         estimate D2E/DX2                !
 ! A8    A(7,3,26)             108.1589         estimate D2E/DX2                !
 ! A9    A(18,3,26)            122.0284         estimate D2E/DX2                !
 ! A10   A(8,4,45)             120.8956         estimate D2E/DX2                !
 ! A11   A(8,4,46)             107.9224         estimate D2E/DX2                !
 ! A12   A(45,4,46)            121.1716         estimate D2E/DX2                !
 ! A13   A(1,5,9)              118.9486         estimate D2E/DX2                !
 ! A14   A(1,5,29)             115.8437         estimate D2E/DX2                !
 ! A15   A(9,5,29)             119.3403         estimate D2E/DX2                !
 ! A16   A(2,6,10)             122.3521         estimate D2E/DX2                !
 ! A17   A(2,6,15)             106.8404         estimate D2E/DX2                !
 ! A18   A(10,6,15)            120.7823         estimate D2E/DX2                !
 ! A19   A(3,7,12)             121.8995         estimate D2E/DX2                !
 ! A20   A(3,7,30)             108.1346         estimate D2E/DX2                !
 ! A21   A(12,7,30)            121.7568         estimate D2E/DX2                !
 ! A22   A(4,8,11)             122.3601         estimate D2E/DX2                !
 ! A23   A(4,8,16)             107.8475         estimate D2E/DX2                !
 ! A24   A(11,8,16)            121.2565         estimate D2E/DX2                !
 ! A25   A(5,9,13)             117.6199         estimate D2E/DX2                !
 ! A26   A(5,9,35)             120.9952         estimate D2E/DX2                !
 ! A27   A(13,9,35)            117.1095         estimate D2E/DX2                !
 ! A28   A(6,10,49)            115.4767         estimate D2E/DX2                !
 ! A29   A(6,10,51)            118.8551         estimate D2E/DX2                !
 ! A30   A(49,10,51)           118.6197         estimate D2E/DX2                !
 ! A31   A(8,11,50)            115.6891         estimate D2E/DX2                !
 ! A32   A(8,11,52)            118.6709         estimate D2E/DX2                !
 ! A33   A(50,11,52)           119.588          estimate D2E/DX2                !
 ! A34   A(7,12,14)            115.282          estimate D2E/DX2                !
 ! A35   A(7,12,36)            119.8523         estimate D2E/DX2                !
 ! A36   A(14,12,36)           119.226          estimate D2E/DX2                !
 ! A37   A(9,13,15)            122.2461         estimate D2E/DX2                !
 ! A38   A(9,13,43)            122.1102         estimate D2E/DX2                !
 ! A39   A(15,13,43)           106.6253         estimate D2E/DX2                !
 ! A40   A(12,14,16)           122.2781         estimate D2E/DX2                !
 ! A41   A(12,14,46)           121.2091         estimate D2E/DX2                !
 ! A42   A(16,14,46)           108.188          estimate D2E/DX2                !
 ! A43   A(6,15,13)            109.2903         estimate D2E/DX2                !
 ! A44   A(6,15,17)            120.4851         estimate D2E/DX2                !
 ! A45   A(13,15,17)           119.9837         estimate D2E/DX2                !
 ! A46   A(8,16,14)            108.1633         estimate D2E/DX2                !
 ! A47   A(8,16,18)            121.1803         estimate D2E/DX2                !
 ! A48   A(14,16,18)           122.1163         estimate D2E/DX2                !
 ! A49   A(1,17,15)            119.2633         estimate D2E/DX2                !
 ! A50   A(1,17,19)            109.7795         estimate D2E/DX2                !
 ! A51   A(15,17,19)           120.2681         estimate D2E/DX2                !
 ! A52   A(3,18,16)            115.4514         estimate D2E/DX2                !
 ! A53   A(3,18,20)            119.7473         estimate D2E/DX2                !
 ! A54   A(16,18,20)           118.9926         estimate D2E/DX2                !
 ! A55   A(17,19,21)           107.2224         estimate D2E/DX2                !
 ! A56   A(17,19,51)           120.105          estimate D2E/DX2                !
 ! A57   A(21,19,51)           122.9342         estimate D2E/DX2                !
 ! A58   A(18,20,22)           115.821          estimate D2E/DX2                !
 ! A59   A(18,20,52)           120.0255         estimate D2E/DX2                !
 ! A60   A(22,20,52)           118.8519         estimate D2E/DX2                !
 ! A61   A(19,21,23)           107.8518         estimate D2E/DX2                !
 ! A62   A(19,21,57)           121.9632         estimate D2E/DX2                !
 ! A63   A(23,21,57)           119.513          estimate D2E/DX2                !
 ! A64   A(20,22,24)           123.5167         estimate D2E/DX2                !
 ! A65   A(20,22,58)           121.3952         estimate D2E/DX2                !
 ! A66   A(24,22,58)           106.8366         estimate D2E/DX2                !
 ! A67   A(1,23,21)            108.5984         estimate D2E/DX2                !
 ! A68   A(1,23,25)            120.4977         estimate D2E/DX2                !
 ! A69   A(21,23,25)           120.6092         estimate D2E/DX2                !
 ! A70   A(22,24,26)           119.8944         estimate D2E/DX2                !
 ! A71   A(22,24,62)           111.364          estimate D2E/DX2                !
 ! A72   A(26,24,62)           121.848          estimate D2E/DX2                !
 ! A73   A(23,25,27)           118.1892         estimate D2E/DX2                !
 ! A74   A(23,25,61)           123.3777         estimate D2E/DX2                !
 ! A75   A(27,25,61)           110.9022         estimate D2E/DX2                !
 ! A76   A(3,26,24)            118.8816         estimate D2E/DX2                !
 ! A77   A(3,26,28)            111.3928         estimate D2E/DX2                !
 ! A78   A(24,26,28)           123.2469         estimate D2E/DX2                !
 ! A79   A(25,27,29)           122.3984         estimate D2E/DX2                !
 ! A80   A(25,27,65)           107.5999         estimate D2E/DX2                !
 ! A81   A(29,27,65)           120.2192         estimate D2E/DX2                !
 ! A82   A(26,28,30)           100.5912         estimate D2E/DX2                !
 ! A83   A(26,28,66)           110.2005         estimate D2E/DX2                !
 ! A84   A(26,28,87)           113.1319         estimate D2E/DX2                !
 ! A85   A(30,28,66)           110.1867         estimate D2E/DX2                !
 ! A86   A(30,28,87)           113.3437         estimate D2E/DX2                !
 ! A87   A(66,28,87)           109.1499         estimate D2E/DX2                !
 ! A88   A(5,29,27)            120.059          estimate D2E/DX2                !
 ! A89   A(5,29,31)            118.9336         estimate D2E/DX2                !
 ! A90   A(27,29,31)           115.4843         estimate D2E/DX2                !
 ! A91   A(7,30,28)            111.5465         estimate D2E/DX2                !
 ! A92   A(7,30,32)            118.9994         estimate D2E/DX2                !
 ! A93   A(28,30,32)           122.7106         estimate D2E/DX2                !
 ! A94   A(29,31,33)           120.9715         estimate D2E/DX2                !
 ! A95   A(29,31,69)           122.7118         estimate D2E/DX2                !
 ! A96   A(33,31,69)           108.9807         estimate D2E/DX2                !
 ! A97   A(30,32,34)           120.3207         estimate D2E/DX2                !
 ! A98   A(30,32,70)           121.1592         estimate D2E/DX2                !
 ! A99   A(34,32,70)           111.6131         estimate D2E/DX2                !
 ! A100  A(31,33,35)           121.2966         estimate D2E/DX2                !
 ! A101  A(31,33,73)           106.8561         estimate D2E/DX2                !
 ! A102  A(35,33,73)           122.6669         estimate D2E/DX2                !
 ! A103  A(32,34,36)           122.7606         estimate D2E/DX2                !
 ! A104  A(32,34,74)           107.2543         estimate D2E/DX2                !
 ! A105  A(36,34,74)           121.9642         estimate D2E/DX2                !
 ! A106  A(9,35,33)            117.2228         estimate D2E/DX2                !
 ! A107  A(9,35,37)            120.6281         estimate D2E/DX2                !
 ! A108  A(33,35,37)           118.0075         estimate D2E/DX2                !
 ! A109  A(12,36,34)           116.0786         estimate D2E/DX2                !
 ! A110  A(12,36,38)           119.8242         estimate D2E/DX2                !
 ! A111  A(34,36,38)           118.8418         estimate D2E/DX2                !
 ! A112  A(35,37,39)           119.696          estimate D2E/DX2                !
 ! A113  A(35,37,77)           118.1715         estimate D2E/DX2                !
 ! A114  A(39,37,77)           116.9062         estimate D2E/DX2                !
 ! A115  A(36,38,42)           119.6956         estimate D2E/DX2                !
 ! A116  A(36,38,78)           117.7212         estimate D2E/DX2                !
 ! A117  A(42,38,78)           117.5014         estimate D2E/DX2                !
 ! A118  A(37,39,43)           118.3371         estimate D2E/DX2                !
 ! A119  A(37,39,79)           120.2405         estimate D2E/DX2                !
 ! A120  A(43,39,79)           115.7046         estimate D2E/DX2                !
 ! A121  A(41,40,44)           120.9267         estimate D2E/DX2                !
 ! A122  A(41,40,79)           108.2691         estimate D2E/DX2                !
 ! A123  A(44,40,79)           121.1636         estimate D2E/DX2                !
 ! A124  A(40,41,45)           120.3793         estimate D2E/DX2                !
 ! A125  A(40,41,80)           108.6309         estimate D2E/DX2                !
 ! A126  A(45,41,80)           121.1465         estimate D2E/DX2                !
 ! A127  A(38,42,46)           118.9921         estimate D2E/DX2                !
 ! A128  A(38,42,80)           119.6908         estimate D2E/DX2                !
 ! A129  A(46,42,80)           115.4371         estimate D2E/DX2                !
 ! A130  A(2,43,13)            108.4746         estimate D2E/DX2                !
 ! A131  A(2,43,39)            122.1806         estimate D2E/DX2                !
 ! A132  A(13,43,39)           121.37           estimate D2E/DX2                !
 ! A133  A(2,44,40)            116.9363         estimate D2E/DX2                !
 ! A134  A(2,44,47)            116.8442         estimate D2E/DX2                !
 ! A135  A(40,44,47)           118.5369         estimate D2E/DX2                !
 ! A136  A(4,45,41)            116.7926         estimate D2E/DX2                !
 ! A137  A(4,45,48)            117.0806         estimate D2E/DX2                !
 ! A138  A(41,45,48)           118.5217         estimate D2E/DX2                !
 ! A139  A(4,46,14)            107.8241         estimate D2E/DX2                !
 ! A140  A(4,46,42)            122.3971         estimate D2E/DX2                !
 ! A141  A(14,46,42)           120.9715         estimate D2E/DX2                !
 ! A142  A(44,47,48)           120.2879         estimate D2E/DX2                !
 ! A143  A(44,47,49)           121.3133         estimate D2E/DX2                !
 ! A144  A(48,47,49)           108.4928         estimate D2E/DX2                !
 ! A145  A(45,48,47)           120.9065         estimate D2E/DX2                !
 ! A146  A(45,48,50)           121.2389         estimate D2E/DX2                !
 ! A147  A(47,48,50)           108.4735         estimate D2E/DX2                !
 ! A148  A(10,49,47)           122.5431         estimate D2E/DX2                !
 ! A149  A(10,49,56)           120.5958         estimate D2E/DX2                !
 ! A150  A(47,49,56)           106.679          estimate D2E/DX2                !
 ! A151  A(11,50,48)           122.0626         estimate D2E/DX2                !
 ! A152  A(11,50,56)           120.8794         estimate D2E/DX2                !
 ! A153  A(48,50,56)           106.6533         estimate D2E/DX2                !
 ! A154  A(10,51,19)           119.3577         estimate D2E/DX2                !
 ! A155  A(10,51,53)           119.124          estimate D2E/DX2                !
 ! A156  A(19,51,53)           114.6912         estimate D2E/DX2                !
 ! A157  A(11,52,20)           119.8523         estimate D2E/DX2                !
 ! A158  A(11,52,54)           117.1419         estimate D2E/DX2                !
 ! A159  A(20,52,54)           117.862          estimate D2E/DX2                !
 ! A160  A(51,53,55)           120.9039         estimate D2E/DX2                !
 ! A161  A(51,53,83)           121.8745         estimate D2E/DX2                !
 ! A162  A(55,53,83)           106.9883         estimate D2E/DX2                !
 ! A163  A(52,54,55)           122.1488         estimate D2E/DX2                !
 ! A164  A(52,54,84)           121.8185         estimate D2E/DX2                !
 ! A165  A(55,54,84)           105.3599         estimate D2E/DX2                !
 ! A166  A(53,55,54)           109.488          estimate D2E/DX2                !
 ! A167  A(53,55,56)           120.1712         estimate D2E/DX2                !
 ! A168  A(54,55,56)           120.1183         estimate D2E/DX2                !
 ! A169  A(49,56,50)           109.4498         estimate D2E/DX2                !
 ! A170  A(49,56,55)           120.427          estimate D2E/DX2                !
 ! A171  A(50,56,55)           119.5507         estimate D2E/DX2                !
 ! A172  A(21,57,59)           120.5103         estimate D2E/DX2                !
 ! A173  A(21,57,83)           114.6391         estimate D2E/DX2                !
 ! A174  A(59,57,83)           119.0194         estimate D2E/DX2                !
 ! A175  A(22,58,60)           110.2656         estimate D2E/DX2                !
 ! A176  A(22,58,84)           119.4605         estimate D2E/DX2                !
 ! A177  A(60,58,84)           121.0306         estimate D2E/DX2                !
 ! A178  A(57,59,60)           120.098          estimate D2E/DX2                !
 ! A179  A(57,59,61)           120.5113         estimate D2E/DX2                !
 ! A180  A(60,59,61)           116.6634         estimate D2E/DX2                !
 ! A181  A(58,60,59)           120.2618         estimate D2E/DX2                !
 ! A182  A(58,60,62)           108.3064         estimate D2E/DX2                !
 ! A183  A(59,60,62)           126.0774         estimate D2E/DX2                !
 ! A184  A(25,61,59)           112.2753         estimate D2E/DX2                !
 ! A185  A(25,61,63)           100.7468         estimate D2E/DX2                !
 ! A186  A(25,61,85)           111.6098         estimate D2E/DX2                !
 ! A187  A(59,61,63)           111.0132         estimate D2E/DX2                !
 ! A188  A(59,61,85)           110.0325         estimate D2E/DX2                !
 ! A189  A(63,61,85)           110.884          estimate D2E/DX2                !
 ! A190  A(24,62,60)           101.4307         estimate D2E/DX2                !
 ! A191  A(24,62,64)           110.0514         estimate D2E/DX2                !
 ! A192  A(24,62,86)           113.1447         estimate D2E/DX2                !
 ! A193  A(60,62,64)           110.7918         estimate D2E/DX2                !
 ! A194  A(60,62,86)           111.5031         estimate D2E/DX2                !
 ! A195  A(64,62,86)           109.6987         estimate D2E/DX2                !
 ! A196  A(61,63,64)           126.1398         estimate D2E/DX2                !
 ! A197  A(61,63,65)           109.5167         estimate D2E/DX2                !
 ! A198  A(64,63,65)           120.0838         estimate D2E/DX2                !
 ! A199  A(62,64,63)           116.2785         estimate D2E/DX2                !
 ! A200  A(62,64,66)           123.0817         estimate D2E/DX2                !
 ! A201  A(63,64,66)           119.1878         estimate D2E/DX2                !
 ! A202  A(27,65,63)           109.3866         estimate D2E/DX2                !
 ! A203  A(27,65,67)           122.6473         estimate D2E/DX2                !
 ! A204  A(63,65,67)           121.6127         estimate D2E/DX2                !
 ! A205  A(28,66,64)           118.1992         estimate D2E/DX2                !
 ! A206  A(28,66,68)           119.9138         estimate D2E/DX2                !
 ! A207  A(64,66,68)           121.0787         estimate D2E/DX2                !
 ! A208  A(65,67,68)           118.1685         estimate D2E/DX2                !
 ! A209  A(65,67,69)           115.0187         estimate D2E/DX2                !
 ! A210  A(68,67,69)           121.922          estimate D2E/DX2                !
 ! A211  A(66,68,67)           119.5737         estimate D2E/DX2                !
 ! A212  A(66,68,70)           121.3326         estimate D2E/DX2                !
 ! A213  A(67,68,70)           117.822          estimate D2E/DX2                !
 ! A214  A(31,69,67)           120.4794         estimate D2E/DX2                !
 ! A215  A(31,69,71)           107.9725         estimate D2E/DX2                !
 ! A216  A(67,69,71)           119.8728         estimate D2E/DX2                !
 ! A217  A(32,70,68)           110.2062         estimate D2E/DX2                !
 ! A218  A(32,70,72)           101.0539         estimate D2E/DX2                !
 ! A219  A(32,70,88)           113.0808         estimate D2E/DX2                !
 ! A220  A(68,70,72)           112.7474         estimate D2E/DX2                !
 ! A221  A(68,70,88)           108.4121         estimate D2E/DX2                !
 ! A222  A(72,70,88)           111.2861         estimate D2E/DX2                !
 ! A223  A(69,71,72)           119.9667         estimate D2E/DX2                !
 ! A224  A(69,71,73)           107.2728         estimate D2E/DX2                !
 ! A225  A(72,71,73)           120.9438         estimate D2E/DX2                !
 ! A226  A(70,72,71)           122.7991         estimate D2E/DX2                !
 ! A227  A(70,72,74)           110.0534         estimate D2E/DX2                !
 ! A228  A(71,72,74)           118.827          estimate D2E/DX2                !
 ! A229  A(33,73,71)           108.6381         estimate D2E/DX2                !
 ! A230  A(33,73,75)           119.2216         estimate D2E/DX2                !
 ! A231  A(71,73,75)           120.2756         estimate D2E/DX2                !
 ! A232  A(34,74,72)           109.1919         estimate D2E/DX2                !
 ! A233  A(34,74,76)           119.0459         estimate D2E/DX2                !
 ! A234  A(72,74,76)           121.1608         estimate D2E/DX2                !
 ! A235  A(73,75,76)           119.0011         estimate D2E/DX2                !
 ! A236  A(73,75,77)           119.4666         estimate D2E/DX2                !
 ! A237  A(76,75,77)           109.0065         estimate D2E/DX2                !
 ! A238  A(74,76,75)           119.6038         estimate D2E/DX2                !
 ! A239  A(74,76,78)           119.7431         estimate D2E/DX2                !
 ! A240  A(75,76,78)           108.6543         estimate D2E/DX2                !
 ! A241  A(37,77,75)           122.3822         estimate D2E/DX2                !
 ! A242  A(37,77,81)           121.0103         estimate D2E/DX2                !
 ! A243  A(75,77,81)           105.9235         estimate D2E/DX2                !
 ! A244  A(38,78,76)           122.496          estimate D2E/DX2                !
 ! A245  A(38,78,81)           121.1333         estimate D2E/DX2                !
 ! A246  A(76,78,81)           105.9171         estimate D2E/DX2                !
 ! A247  A(39,79,40)           122.2514         estimate D2E/DX2                !
 ! A248  A(39,79,82)           120.0169         estimate D2E/DX2                !
 ! A249  A(40,79,82)           106.6429         estimate D2E/DX2                !
 ! A250  A(41,80,42)           122.5129         estimate D2E/DX2                !
 ! A251  A(41,80,82)           106.4098         estimate D2E/DX2                !
 ! A252  A(42,80,82)           120.1318         estimate D2E/DX2                !
 ! A253  A(77,81,78)           109.4553         estimate D2E/DX2                !
 ! A254  A(77,81,82)           120.4769         estimate D2E/DX2                !
 ! A255  A(78,81,82)           120.1691         estimate D2E/DX2                !
 ! A256  A(79,82,80)           109.6038         estimate D2E/DX2                !
 ! A257  A(79,82,81)           119.8135         estimate D2E/DX2                !
 ! A258  A(80,82,81)           120.2224         estimate D2E/DX2                !
 ! A259  A(53,83,57)           122.9311         estimate D2E/DX2                !
 ! A260  A(53,83,84)           107.6908         estimate D2E/DX2                !
 ! A261  A(57,83,84)           119.82           estimate D2E/DX2                !
 ! A262  A(54,84,58)           119.9883         estimate D2E/DX2                !
 ! A263  A(54,84,83)           110.0113         estimate D2E/DX2                !
 ! A264  A(58,84,83)           119.5751         estimate D2E/DX2                !
 ! D1    D(17,1,5,9)             3.3547         estimate D2E/DX2                !
 ! D2    D(17,1,5,29)         -149.5316         estimate D2E/DX2                !
 ! D3    D(23,1,5,9)           144.4607         estimate D2E/DX2                !
 ! D4    D(23,1,5,29)           -8.4257         estimate D2E/DX2                !
 ! D5    D(5,1,17,15)           -4.8861         estimate D2E/DX2                !
 ! D6    D(5,1,17,19)          139.752          estimate D2E/DX2                !
 ! D7    D(23,1,17,15)        -151.4502         estimate D2E/DX2                !
 ! D8    D(23,1,17,19)          -6.8121         estimate D2E/DX2                !
 ! D9    D(5,1,23,21)         -139.2156         estimate D2E/DX2                !
 ! D10   D(5,1,23,25)            6.0393         estimate D2E/DX2                !
 ! D11   D(17,1,23,21)           7.0017         estimate D2E/DX2                !
 ! D12   D(17,1,23,25)         152.2567         estimate D2E/DX2                !
 ! D13   D(43,2,6,10)         -142.5779         estimate D2E/DX2                !
 ! D14   D(43,2,6,15)            2.9797         estimate D2E/DX2                !
 ! D15   D(44,2,6,10)            3.827          estimate D2E/DX2                !
 ! D16   D(44,2,6,15)          149.3846         estimate D2E/DX2                !
 ! D17   D(6,2,43,13)            0.3602         estimate D2E/DX2                !
 ! D18   D(6,2,43,39)          149.532          estimate D2E/DX2                !
 ! D19   D(44,2,43,13)        -146.1721         estimate D2E/DX2                !
 ! D20   D(44,2,43,39)           2.9998         estimate D2E/DX2                !
 ! D21   D(6,2,44,40)         -148.9724         estimate D2E/DX2                !
 ! D22   D(6,2,44,47)            0.0918         estimate D2E/DX2                !
 ! D23   D(43,2,44,40)          -6.6421         estimate D2E/DX2                !
 ! D24   D(43,2,44,47)         142.4222         estimate D2E/DX2                !
 ! D25   D(18,3,7,12)            0.7597         estimate D2E/DX2                !
 ! D26   D(18,3,7,30)          149.6525         estimate D2E/DX2                !
 ! D27   D(26,3,7,12)         -148.4624         estimate D2E/DX2                !
 ! D28   D(26,3,7,30)            0.4304         estimate D2E/DX2                !
 ! D29   D(7,3,18,16)            8.3841         estimate D2E/DX2                !
 ! D30   D(7,3,18,20)         -144.5213         estimate D2E/DX2                !
 ! D31   D(26,3,18,16)         153.3876         estimate D2E/DX2                !
 ! D32   D(26,3,18,20)           0.4823         estimate D2E/DX2                !
 ! D33   D(7,3,26,24)          149.6535         estimate D2E/DX2                !
 ! D34   D(7,3,26,28)           -3.0381         estimate D2E/DX2                !
 ! D35   D(18,3,26,24)           0.539          estimate D2E/DX2                !
 ! D36   D(18,3,26,28)        -152.1527         estimate D2E/DX2                !
 ! D37   D(45,4,8,11)            0.0302         estimate D2E/DX2                !
 ! D38   D(45,4,8,16)         -148.1097         estimate D2E/DX2                !
 ! D39   D(46,4,8,11)          145.8716         estimate D2E/DX2                !
 ! D40   D(46,4,8,16)           -2.2682         estimate D2E/DX2                !
 ! D41   D(8,4,45,41)          144.7834         estimate D2E/DX2                !
 ! D42   D(8,4,45,48)           -4.4185         estimate D2E/DX2                !
 ! D43   D(46,4,45,41)           3.4206         estimate D2E/DX2                !
 ! D44   D(46,4,45,48)        -145.7813         estimate D2E/DX2                !
 ! D45   D(8,4,46,14)            2.3426         estimate D2E/DX2                !
 ! D46   D(8,4,46,42)         -145.2466         estimate D2E/DX2                !
 ! D47   D(45,4,46,14)         148.0712         estimate D2E/DX2                !
 ! D48   D(45,4,46,42)           0.482          estimate D2E/DX2                !
 ! D49   D(1,5,9,13)             1.3539         estimate D2E/DX2                !
 ! D50   D(1,5,9,35)          -154.7523         estimate D2E/DX2                !
 ! D51   D(29,5,9,13)          153.2851         estimate D2E/DX2                !
 ! D52   D(29,5,9,35)           -2.8212         estimate D2E/DX2                !
 ! D53   D(1,5,29,27)            7.1433         estimate D2E/DX2                !
 ! D54   D(1,5,29,31)          159.7584         estimate D2E/DX2                !
 ! D55   D(9,5,29,27)         -145.631          estimate D2E/DX2                !
 ! D56   D(9,5,29,31)            6.9841         estimate D2E/DX2                !
 ! D57   D(2,6,10,49)           -6.7167         estimate D2E/DX2                !
 ! D58   D(2,6,10,51)          143.5502         estimate D2E/DX2                !
 ! D59   D(15,6,10,49)        -147.6598         estimate D2E/DX2                !
 ! D60   D(15,6,10,51)           2.607          estimate D2E/DX2                !
 ! D61   D(2,6,15,13)           -5.2783         estimate D2E/DX2                !
 ! D62   D(2,6,15,17)         -150.4095         estimate D2E/DX2                !
 ! D63   D(10,6,15,13)         140.9327         estimate D2E/DX2                !
 ! D64   D(10,6,15,17)          -4.1984         estimate D2E/DX2                !
 ! D65   D(3,7,12,14)           -9.2265         estimate D2E/DX2                !
 ! D66   D(3,7,12,36)          144.1098         estimate D2E/DX2                !
 ! D67   D(30,7,12,14)        -153.9569         estimate D2E/DX2                !
 ! D68   D(30,7,12,36)          -0.6206         estimate D2E/DX2                !
 ! D69   D(3,7,30,28)            2.3314         estimate D2E/DX2                !
 ! D70   D(3,7,30,32)         -149.6926         estimate D2E/DX2                !
 ! D71   D(12,7,30,28)         151.2776         estimate D2E/DX2                !
 ! D72   D(12,7,30,32)          -0.7464         estimate D2E/DX2                !
 ! D73   D(4,8,11,50)            6.769          estimate D2E/DX2                !
 ! D74   D(4,8,11,52)         -145.7949         estimate D2E/DX2                !
 ! D75   D(16,8,11,50)         150.7711         estimate D2E/DX2                !
 ! D76   D(16,8,11,52)          -1.7928         estimate D2E/DX2                !
 ! D77   D(4,8,16,14)            1.3289         estimate D2E/DX2                !
 ! D78   D(4,8,16,18)          149.8167         estimate D2E/DX2                !
 ! D79   D(11,8,16,14)        -147.2329         estimate D2E/DX2                !
 ! D80   D(11,8,16,18)           1.2549         estimate D2E/DX2                !
 ! D81   D(5,9,13,15)           -4.6395         estimate D2E/DX2                !
 ! D82   D(5,9,13,43)         -147.3205         estimate D2E/DX2                !
 ! D83   D(35,9,13,15)         152.4024         estimate D2E/DX2                !
 ! D84   D(35,9,13,43)           9.7213         estimate D2E/DX2                !
 ! D85   D(5,9,35,33)           -6.9024         estimate D2E/DX2                !
 ! D86   D(5,9,35,37)          149.7725         estimate D2E/DX2                !
 ! D87   D(13,9,35,33)        -163.1254         estimate D2E/DX2                !
 ! D88   D(13,9,35,37)          -6.4505         estimate D2E/DX2                !
 ! D89   D(6,10,49,47)           6.1655         estimate D2E/DX2                !
 ! D90   D(6,10,49,56)         146.7767         estimate D2E/DX2                !
 ! D91   D(51,10,49,47)       -144.175          estimate D2E/DX2                !
 ! D92   D(51,10,49,56)         -3.5637         estimate D2E/DX2                !
 ! D93   D(6,10,51,19)           0.8779         estimate D2E/DX2                !
 ! D94   D(6,10,51,53)        -148.6682         estimate D2E/DX2                !
 ! D95   D(49,10,51,19)        150.2105         estimate D2E/DX2                !
 ! D96   D(49,10,51,53)          0.6645         estimate D2E/DX2                !
 ! D97   D(8,11,50,48)          -9.4704         estimate D2E/DX2                !
 ! D98   D(8,11,50,56)        -149.698          estimate D2E/DX2                !
 ! D99   D(52,11,50,48)        142.8267         estimate D2E/DX2                !
 ! D100  D(52,11,50,56)          2.5991         estimate D2E/DX2                !
 ! D101  D(8,11,52,20)           1.1383         estimate D2E/DX2                !
 ! D102  D(8,11,52,54)         155.2624         estimate D2E/DX2                !
 ! D103  D(50,11,52,20)       -150.3406         estimate D2E/DX2                !
 ! D104  D(50,11,52,54)          3.7835         estimate D2E/DX2                !
 ! D105  D(7,12,14,16)           8.6574         estimate D2E/DX2                !
 ! D106  D(7,12,14,46)         153.1783         estimate D2E/DX2                !
 ! D107  D(36,12,14,16)       -144.8564         estimate D2E/DX2                !
 ! D108  D(36,12,14,46)         -0.3356         estimate D2E/DX2                !
 ! D109  D(7,12,36,34)           3.799          estimate D2E/DX2                !
 ! D110  D(7,12,36,38)        -150.3115         estimate D2E/DX2                !
 ! D111  D(14,12,36,34)        156.0914         estimate D2E/DX2                !
 ! D112  D(14,12,36,38)          1.9809         estimate D2E/DX2                !
 ! D113  D(9,13,15,6)         -142.1194         estimate D2E/DX2                !
 ! D114  D(9,13,15,17)           3.2146         estimate D2E/DX2                !
 ! D115  D(43,13,15,6)           5.4747         estimate D2E/DX2                !
 ! D116  D(43,13,15,17)        150.8086         estimate D2E/DX2                !
 ! D117  D(9,13,43,2)          144.0741         estimate D2E/DX2                !
 ! D118  D(9,13,43,39)          -5.3956         estimate D2E/DX2                !
 ! D119  D(15,13,43,2)          -3.5741         estimate D2E/DX2                !
 ! D120  D(15,13,43,39)       -153.0439         estimate D2E/DX2                !
 ! D121  D(12,14,16,8)         148.6208         estimate D2E/DX2                !
 ! D122  D(12,14,16,18)          0.4892         estimate D2E/DX2                !
 ! D123  D(46,14,16,8)           0.1221         estimate D2E/DX2                !
 ! D124  D(46,14,16,18)       -148.0095         estimate D2E/DX2                !
 ! D125  D(12,14,46,4)        -150.4266         estimate D2E/DX2                !
 ! D126  D(12,14,46,42)         -2.2847         estimate D2E/DX2                !
 ! D127  D(16,14,46,4)          -1.5258         estimate D2E/DX2                !
 ! D128  D(16,14,46,42)        146.6161         estimate D2E/DX2                !
 ! D129  D(6,15,17,1)          143.0728         estimate D2E/DX2                !
 ! D130  D(6,15,17,19)           2.1638         estimate D2E/DX2                !
 ! D131  D(13,15,17,1)           1.6067         estimate D2E/DX2                !
 ! D132  D(13,15,17,19)       -139.3023         estimate D2E/DX2                !
 ! D133  D(8,16,18,3)         -153.1251         estimate D2E/DX2                !
 ! D134  D(8,16,18,20)          -0.0035         estimate D2E/DX2                !
 ! D135  D(14,16,18,3)          -9.0248         estimate D2E/DX2                !
 ! D136  D(14,16,18,20)        144.0968         estimate D2E/DX2                !
 ! D137  D(1,17,19,21)           4.0193         estimate D2E/DX2                !
 ! D138  D(1,17,19,51)        -142.8762         estimate D2E/DX2                !
 ! D139  D(15,17,19,21)        148.2464         estimate D2E/DX2                !
 ! D140  D(15,17,19,51)          1.3509         estimate D2E/DX2                !
 ! D141  D(3,18,20,22)          -2.6757         estimate D2E/DX2                !
 ! D142  D(3,18,20,52)         151.3263         estimate D2E/DX2                !
 ! D143  D(16,18,20,22)       -154.6296         estimate D2E/DX2                !
 ! D144  D(16,18,20,52)         -0.6276         estimate D2E/DX2                !
 ! D145  D(17,19,21,23)          0.4367         estimate D2E/DX2                !
 ! D146  D(17,19,21,57)       -143.7558         estimate D2E/DX2                !
 ! D147  D(51,19,21,23)        146.1756         estimate D2E/DX2                !
 ! D148  D(51,19,21,57)          1.9831         estimate D2E/DX2                !
 ! D149  D(17,19,51,10)         -2.8663         estimate D2E/DX2                !
 ! D150  D(17,19,51,53)        147.9692         estimate D2E/DX2                !
 ! D151  D(21,19,51,10)       -144.4356         estimate D2E/DX2                !
 ! D152  D(21,19,51,53)          6.3999         estimate D2E/DX2                !
 ! D153  D(18,20,22,24)          4.1128         estimate D2E/DX2                !
 ! D154  D(18,20,22,58)        148.3253         estimate D2E/DX2                !
 ! D155  D(52,20,22,24)       -150.21           estimate D2E/DX2                !
 ! D156  D(52,20,22,58)         -5.9974         estimate D2E/DX2                !
 ! D157  D(18,20,52,11)          0.0646         estimate D2E/DX2                !
 ! D158  D(18,20,52,54)       -153.8769         estimate D2E/DX2                !
 ! D159  D(22,20,52,11)        153.2892         estimate D2E/DX2                !
 ! D160  D(22,20,52,54)         -0.6523         estimate D2E/DX2                !
 ! D161  D(19,21,23,1)          -4.682          estimate D2E/DX2                !
 ! D162  D(19,21,23,25)       -149.8912         estimate D2E/DX2                !
 ! D163  D(57,21,23,1)         140.5419         estimate D2E/DX2                !
 ! D164  D(57,21,23,25)         -4.6673         estimate D2E/DX2                !
 ! D165  D(19,21,57,59)        143.8393         estimate D2E/DX2                !
 ! D166  D(19,21,57,83)         -9.0029         estimate D2E/DX2                !
 ! D167  D(23,21,57,59)          3.6259         estimate D2E/DX2                !
 ! D168  D(23,21,57,83)       -149.2163         estimate D2E/DX2                !
 ! D169  D(20,22,24,26)         -3.251          estimate D2E/DX2                !
 ! D170  D(20,22,24,62)        148.2042         estimate D2E/DX2                !
 ! D171  D(58,22,24,26)       -151.8167         estimate D2E/DX2                !
 ! D172  D(58,22,24,62)         -0.3616         estimate D2E/DX2                !
 ! D173  D(20,22,58,60)       -140.5358         estimate D2E/DX2                !
 ! D174  D(20,22,58,84)          6.5707         estimate D2E/DX2                !
 ! D175  D(24,22,58,60)          8.8416         estimate D2E/DX2                !
 ! D176  D(24,22,58,84)        155.9481         estimate D2E/DX2                !
 ! D177  D(1,23,25,27)          -1.9018         estimate D2E/DX2                !
 ! D178  D(1,23,25,61)        -148.8139         estimate D2E/DX2                !
 ! D179  D(21,23,25,27)        139.2238         estimate D2E/DX2                !
 ! D180  D(21,23,25,61)         -7.6882         estimate D2E/DX2                !
 ! D181  D(22,24,26,3)           0.7571         estimate D2E/DX2                !
 ! D182  D(22,24,26,28)        150.0416         estimate D2E/DX2                !
 ! D183  D(62,24,26,3)        -147.65           estimate D2E/DX2                !
 ! D184  D(62,24,26,28)          1.6345         estimate D2E/DX2                !
 ! D185  D(22,24,62,60)         -7.3959         estimate D2E/DX2                !
 ! D186  D(22,24,62,64)       -124.7393         estimate D2E/DX2                !
 ! D187  D(22,24,62,86)        112.1508         estimate D2E/DX2                !
 ! D188  D(26,24,62,60)        143.4154         estimate D2E/DX2                !
 ! D189  D(26,24,62,64)         26.072          estimate D2E/DX2                !
 ! D190  D(26,24,62,86)        -97.0379         estimate D2E/DX2                !
 ! D191  D(23,25,27,29)          0.8406         estimate D2E/DX2                !
 ! D192  D(23,25,27,65)       -144.9173         estimate D2E/DX2                !
 ! D193  D(61,25,27,29)        151.6316         estimate D2E/DX2                !
 ! D194  D(61,25,27,65)          5.8737         estimate D2E/DX2                !
 ! D195  D(23,25,61,59)         19.1389         estimate D2E/DX2                !
 ! D196  D(23,25,61,63)        137.3138         estimate D2E/DX2                !
 ! D197  D(23,25,61,85)       -104.9464         estimate D2E/DX2                !
 ! D198  D(27,25,61,59)       -129.8589         estimate D2E/DX2                !
 ! D199  D(27,25,61,63)        -11.684          estimate D2E/DX2                !
 ! D200  D(27,25,61,85)        106.0558         estimate D2E/DX2                !
 ! D201  D(3,26,28,30)           4.1277         estimate D2E/DX2                !
 ! D202  D(3,26,28,66)         120.4148         estimate D2E/DX2                !
 ! D203  D(3,26,28,87)        -117.0863         estimate D2E/DX2                !
 ! D204  D(24,26,28,30)       -147.1647         estimate D2E/DX2                !
 ! D205  D(24,26,28,66)        -30.8776         estimate D2E/DX2                !
 ! D206  D(24,26,28,87)         91.6212         estimate D2E/DX2                !
 ! D207  D(25,27,29,5)          -3.626          estimate D2E/DX2                !
 ! D208  D(25,27,29,31)       -157.1424         estimate D2E/DX2                !
 ! D209  D(65,27,29,5)         138.0066         estimate D2E/DX2                !
 ! D210  D(65,27,29,31)        -15.5097         estimate D2E/DX2                !
 ! D211  D(25,27,65,63)          3.2737         estimate D2E/DX2                !
 ! D212  D(25,27,65,67)        155.5749         estimate D2E/DX2                !
 ! D213  D(29,27,65,63)       -143.3716         estimate D2E/DX2                !
 ! D214  D(29,27,65,67)          8.9296         estimate D2E/DX2                !
 ! D215  D(26,28,30,7)          -3.8633         estimate D2E/DX2                !
 ! D216  D(26,28,30,32)        146.9525         estimate D2E/DX2                !
 ! D217  D(66,28,30,7)        -120.1607         estimate D2E/DX2                !
 ! D218  D(66,28,30,32)         30.655          estimate D2E/DX2                !
 ! D219  D(87,28,30,7)         117.2002         estimate D2E/DX2                !
 ! D220  D(87,28,30,32)        -91.984          estimate D2E/DX2                !
 ! D221  D(26,28,66,64)         31.0541         estimate D2E/DX2                !
 ! D222  D(26,28,66,68)       -138.7643         estimate D2E/DX2                !
 ! D223  D(30,28,66,64)        141.1714         estimate D2E/DX2                !
 ! D224  D(30,28,66,68)        -28.647          estimate D2E/DX2                !
 ! D225  D(87,28,66,64)        -93.7581         estimate D2E/DX2                !
 ! D226  D(87,28,66,68)         96.4235         estimate D2E/DX2                !
 ! D227  D(5,29,31,33)          -1.5013         estimate D2E/DX2                !
 ! D228  D(5,29,31,69)        -148.255          estimate D2E/DX2                !
 ! D229  D(27,29,31,33)        152.3301         estimate D2E/DX2                !
 ! D230  D(27,29,31,69)          5.5764         estimate D2E/DX2                !
 ! D231  D(7,30,32,34)          -1.2285         estimate D2E/DX2                !
 ! D232  D(7,30,32,70)         147.2302         estimate D2E/DX2                !
 ! D233  D(28,30,32,34)       -149.9928         estimate D2E/DX2                !
 ! D234  D(28,30,32,70)         -1.5341         estimate D2E/DX2                !
 ! D235  D(29,31,33,35)         -8.7146         estimate D2E/DX2                !
 ! D236  D(29,31,33,73)       -156.303          estimate D2E/DX2                !
 ! D237  D(69,31,33,35)        142.0886         estimate D2E/DX2                !
 ! D238  D(69,31,33,73)         -5.4998         estimate D2E/DX2                !
 ! D239  D(29,31,69,67)         11.7812         estimate D2E/DX2                !
 ! D240  D(29,31,69,71)        154.7693         estimate D2E/DX2                !
 ! D241  D(33,31,69,67)       -138.4103         estimate D2E/DX2                !
 ! D242  D(33,31,69,71)          4.5777         estimate D2E/DX2                !
 ! D243  D(30,32,34,36)          4.7852         estimate D2E/DX2                !
 ! D244  D(30,32,34,74)        153.9948         estimate D2E/DX2                !
 ! D245  D(70,32,34,36)       -146.4315         estimate D2E/DX2                !
 ! D246  D(70,32,34,74)          2.7781         estimate D2E/DX2                !
 ! D247  D(30,32,70,68)        -28.6793         estimate D2E/DX2                !
 ! D248  D(30,32,70,72)       -148.1328         estimate D2E/DX2                !
 ! D249  D(30,32,70,88)         92.8336         estimate D2E/DX2                !
 ! D250  D(34,32,70,68)        122.2619         estimate D2E/DX2                !
 ! D251  D(34,32,70,72)          2.8084         estimate D2E/DX2                !
 ! D252  D(34,32,70,88)       -116.2252         estimate D2E/DX2                !
 ! D253  D(31,33,35,9)          12.5881         estimate D2E/DX2                !
 ! D254  D(31,33,35,37)       -144.7119         estimate D2E/DX2                !
 ! D255  D(73,33,35,9)         155.0453         estimate D2E/DX2                !
 ! D256  D(73,33,35,37)         -2.2548         estimate D2E/DX2                !
 ! D257  D(31,33,73,71)          4.284          estimate D2E/DX2                !
 ! D258  D(31,33,73,75)        147.2533         estimate D2E/DX2                !
 ! D259  D(35,33,73,71)       -142.7554         estimate D2E/DX2                !
 ! D260  D(35,33,73,75)          0.2139         estimate D2E/DX2                !
 ! D261  D(32,34,36,12)         -5.9153         estimate D2E/DX2                !
 ! D262  D(32,34,36,38)        148.4615         estimate D2E/DX2                !
 ! D263  D(74,34,36,12)       -150.7294         estimate D2E/DX2                !
 ! D264  D(74,34,36,38)          3.6475         estimate D2E/DX2                !
 ! D265  D(32,34,74,72)         -7.6608         estimate D2E/DX2                !
 ! D266  D(32,34,74,76)       -152.7475         estimate D2E/DX2                !
 ! D267  D(36,34,74,72)        141.8477         estimate D2E/DX2                !
 ! D268  D(36,34,74,76)         -3.239          estimate D2E/DX2                !
 ! D269  D(9,35,37,39)          -1.092          estimate D2E/DX2                !
 ! D270  D(9,35,37,77)        -154.7781         estimate D2E/DX2                !
 ! D271  D(33,35,37,39)        155.4052         estimate D2E/DX2                !
 ! D272  D(33,35,37,77)          1.719          estimate D2E/DX2                !
 ! D273  D(12,36,38,42)         -1.1112         estimate D2E/DX2                !
 ! D274  D(12,36,38,78)        153.0712         estimate D2E/DX2                !
 ! D275  D(34,36,38,42)       -154.5136         estimate D2E/DX2                !
 ! D276  D(34,36,38,78)         -0.3312         estimate D2E/DX2                !
 ! D277  D(35,37,39,43)          5.6003         estimate D2E/DX2                !
 ! D278  D(35,37,39,79)       -146.6243         estimate D2E/DX2                !
 ! D279  D(77,37,39,43)        159.6104         estimate D2E/DX2                !
 ! D280  D(77,37,39,79)          7.3859         estimate D2E/DX2                !
 ! D281  D(35,37,77,75)          0.7776         estimate D2E/DX2                !
 ! D282  D(35,37,77,81)        140.2649         estimate D2E/DX2                !
 ! D283  D(39,37,77,75)       -153.6397         estimate D2E/DX2                !
 ! D284  D(39,37,77,81)        -14.1524         estimate D2E/DX2                !
 ! D285  D(36,38,42,46)         -1.4358         estimate D2E/DX2                !
 ! D286  D(36,38,42,80)        150.3541         estimate D2E/DX2                !
 ! D287  D(78,38,42,46)       -155.6738         estimate D2E/DX2                !
 ! D288  D(78,38,42,80)         -3.8838         estimate D2E/DX2                !
 ! D289  D(36,38,78,76)         -3.4089         estimate D2E/DX2                !
 ! D290  D(36,38,78,81)       -143.2821         estimate D2E/DX2                !
 ! D291  D(42,38,78,76)        151.345          estimate D2E/DX2                !
 ! D292  D(42,38,78,81)         11.4718         estimate D2E/DX2                !
 ! D293  D(37,39,43,2)        -147.8763         estimate D2E/DX2                !
 ! D294  D(37,39,43,13)         -2.5755         estimate D2E/DX2                !
 ! D295  D(79,39,43,2)           5.5846         estimate D2E/DX2                !
 ! D296  D(79,39,43,13)        150.8854         estimate D2E/DX2                !
 ! D297  D(37,39,79,40)        142.2129         estimate D2E/DX2                !
 ! D298  D(37,39,79,82)          3.1298         estimate D2E/DX2                !
 ! D299  D(43,39,79,40)        -10.7084         estimate D2E/DX2                !
 ! D300  D(43,39,79,82)       -149.7916         estimate D2E/DX2                !
 ! D301  D(44,40,41,45)         -1.2223         estimate D2E/DX2                !
 ! D302  D(44,40,41,80)       -147.3557         estimate D2E/DX2                !
 ! D303  D(79,40,41,45)        145.1913         estimate D2E/DX2                !
 ! D304  D(79,40,41,80)         -0.9421         estimate D2E/DX2                !
 ! D305  D(41,40,44,2)         143.7865         estimate D2E/DX2                !
 ! D306  D(41,40,44,47)         -4.7396         estimate D2E/DX2                !
 ! D307  D(79,40,44,2)           1.6585         estimate D2E/DX2                !
 ! D308  D(79,40,44,47)       -146.8676         estimate D2E/DX2                !
 ! D309  D(41,40,79,39)       -138.99           estimate D2E/DX2                !
 ! D310  D(41,40,79,82)          4.717          estimate D2E/DX2                !
 ! D311  D(44,40,79,39)          7.3287         estimate D2E/DX2                !
 ! D312  D(44,40,79,82)        151.0358         estimate D2E/DX2                !
 ! D313  D(40,41,45,4)        -143.0722         estimate D2E/DX2                !
 ! D314  D(40,41,45,48)          5.6726         estimate D2E/DX2                !
 ! D315  D(80,41,45,4)          -1.1697         estimate D2E/DX2                !
 ! D316  D(80,41,45,48)        147.5751         estimate D2E/DX2                !
 ! D317  D(40,41,80,42)        140.7029         estimate D2E/DX2                !
 ! D318  D(40,41,80,82)         -3.2254         estimate D2E/DX2                !
 ! D319  D(45,41,80,42)         -5.1222         estimate D2E/DX2                !
 ! D320  D(45,41,80,82)       -149.0506         estimate D2E/DX2                !
 ! D321  D(38,42,46,4)         146.5993         estimate D2E/DX2                !
 ! D322  D(38,42,46,14)          3.1196         estimate D2E/DX2                !
 ! D323  D(80,42,46,4)          -6.3533         estimate D2E/DX2                !
 ! D324  D(80,42,46,14)       -149.833          estimate D2E/DX2                !
 ! D325  D(38,42,80,41)       -144.0822         estimate D2E/DX2                !
 ! D326  D(38,42,80,82)         -4.8548         estimate D2E/DX2                !
 ! D327  D(46,42,80,41)          8.6691         estimate D2E/DX2                !
 ! D328  D(46,42,80,82)        147.8965         estimate D2E/DX2                !
 ! D329  D(2,44,47,48)        -142.3893         estimate D2E/DX2                !
 ! D330  D(2,44,47,49)          -0.6446         estimate D2E/DX2                !
 ! D331  D(40,44,47,48)          6.1654         estimate D2E/DX2                !
 ! D332  D(40,44,47,49)        147.91           estimate D2E/DX2                !
 ! D333  D(4,45,48,47)         144.4185         estimate D2E/DX2                !
 ! D334  D(4,45,48,50)           1.7599         estimate D2E/DX2                !
 ! D335  D(41,45,48,47)         -4.2374         estimate D2E/DX2                !
 ! D336  D(41,45,48,50)       -146.8959         estimate D2E/DX2                !
[...]
 Alpha virt. eigenvalues --    1.19436   1.19571   1.19698   1.20120   1.20265
 Alpha virt. eigenvalues --    1.20626   1.21052   1.21380   1.21781   1.21937
 Alpha virt. eigenvalues --    1.21982   1.22454   1.22647   1.23154   1.23731
 Alpha virt. eigenvalues --    1.23843   1.24029   1.24246   1.24374   1.24876
 Alpha virt. eigenvalues --    1.25247   1.25435   1.25861   1.26127   1.26433
 Alpha virt. eigenvalues --    1.26639   1.26899   1.27301   1.27368   1.27707
 Alpha virt. eigenvalues --    1.28334   1.28579   1.28871   1.29096   1.29395
 Alpha virt. eigenvalues --    1.29542   1.29979   1.30502   1.30744   1.30797
 Alpha virt. eigenvalues --    1.31351   1.31834   1.32113   1.32686   1.32884
 Alpha virt. eigenvalues --    1.33034   1.33591   1.33877   1.34052   1.34508
 Alpha virt. eigenvalues --    1.35064   1.35418   1.35598   1.36012   1.36572
 Alpha virt. eigenvalues --    1.36750   1.37319   1.37751   1.38313   1.38913
 Alpha virt. eigenvalues --    1.39382   1.39987   1.40323   1.40629   1.41651
 Alpha virt. eigenvalues --    1.41818   1.42083   1.42723   1.43370   1.43691
 Alpha virt. eigenvalues --    1.43840   1.45372   1.45523   1.46453   1.46839
 Alpha virt. eigenvalues --    1.47141   1.47776   1.47943   1.48687   1.49457
 Alpha virt. eigenvalues --    1.49696   1.50255   1.51049   1.51501   1.51834
 Alpha virt. eigenvalues --    1.52522   1.52770   1.53541   1.53856   1.54315
 Alpha virt. eigenvalues --    1.54594   1.55060   1.55473   1.55596   1.56355
 Alpha virt. eigenvalues --    1.56682   1.57310   1.57786   1.57889   1.58520
 Alpha virt. eigenvalues --    1.59111   1.59350   1.59590   1.60503   1.61181
 Alpha virt. eigenvalues --    1.61960   1.62529   1.62683   1.63038   1.63514
 Alpha virt. eigenvalues --    1.64005   1.64113   1.64465   1.64903   1.64956
 Alpha virt. eigenvalues --    1.65338   1.65834   1.66102   1.66328   1.66755
 Alpha virt. eigenvalues --    1.66925   1.67223   1.67341   1.67590   1.67645
 Alpha virt. eigenvalues --    1.68363   1.68683   1.68795   1.69073   1.69793
 Alpha virt. eigenvalues --    1.69881   1.69956   1.70378   1.70457   1.70772
 Alpha virt. eigenvalues --    1.70926   1.71113   1.71250   1.71479   1.71678
 Alpha virt. eigenvalues --    1.71830   1.72154   1.72298   1.72593   1.72855
 Alpha virt. eigenvalues --    1.73127   1.73214   1.73378   1.73420   1.73785
 Alpha virt. eigenvalues --    1.73848   1.74143   1.74517   1.74662   1.74933
 Alpha virt. eigenvalues --    1.75172   1.75482   1.75750   1.75989   1.76247
 Alpha virt. eigenvalues --    1.76409   1.76823   1.76983   1.77297   1.77529
 Alpha virt. eigenvalues --    1.77708   1.77863   1.77973   1.78164   1.78549
 Alpha virt. eigenvalues --    1.78919   1.79153   1.79619   1.79896   1.80365
 Alpha virt. eigenvalues --    1.80730   1.81557   1.81832   1.82102   1.82351
 Alpha virt. eigenvalues --    1.82571   1.82927   1.83481   1.83940   1.84113
 Alpha virt. eigenvalues --    1.84529   1.85343   1.85684   1.86110   1.86604
 Alpha virt. eigenvalues --    1.87329   1.87882   1.88542   1.89074   1.89381
 Alpha virt. eigenvalues --    1.90170   1.90319   1.90519   1.91020   1.91393
 Alpha virt. eigenvalues --    1.92114   1.92383   1.93189   1.93542   1.93661
 Alpha virt. eigenvalues --    1.94018   1.94231   1.94274   1.94620   1.95225
 Alpha virt. eigenvalues --    1.95569   1.95745   1.95981   1.96073   1.96340
 Alpha virt. eigenvalues --    1.96732   1.96944   1.97324   1.97681   1.98004
 Alpha virt. eigenvalues --    1.98047   1.98404   1.98887   1.99231   1.99352
 Alpha virt. eigenvalues --    1.99486   1.99727   1.99897   1.99944   2.00270
 Alpha virt. eigenvalues --    2.00406   2.00691   2.01123   2.01336   2.01462
 Alpha virt. eigenvalues --    2.01586   2.01840   2.02032   2.02252   2.02782
 Alpha virt. eigenvalues --    2.02986   2.03092   2.03372   2.03584   2.03782
 Alpha virt. eigenvalues --    2.04057   2.04342   2.04762   2.04940   2.05176
 Alpha virt. eigenvalues --    2.05468   2.05838   2.06316   2.06641   2.07168
 Alpha virt. eigenvalues --    2.07453   2.07940   2.08114   2.09031   2.09112
 Alpha virt. eigenvalues --    2.10185   2.10608   2.10626   2.11410   2.11871
 Alpha virt. eigenvalues --    2.12099   2.12311   2.13026   2.13415   2.13438
 Alpha virt. eigenvalues --    2.14034   2.14897   2.15205   2.15398   2.16067
 Alpha virt. eigenvalues --    2.16381   2.16844   2.17141   2.17911   2.18283
 Alpha virt. eigenvalues --    2.18590   2.19022   2.19152   2.19857   2.20400
 Alpha virt. eigenvalues --    2.20826   2.21228   2.21568   2.21925   2.22396
 Alpha virt. eigenvalues --    2.22657   2.22831   2.23411   2.23664   2.24023
 Alpha virt. eigenvalues --    2.24028   2.25184   2.25557   2.25772   2.26048
 Alpha virt. eigenvalues --    2.26261   2.26480   2.27357   2.27475   2.27639
 Alpha virt. eigenvalues --    2.28573   2.28710   2.28998   2.29515   2.29757
 Alpha virt. eigenvalues --    2.29847   2.30286   2.30903   2.31016   2.31852
 Alpha virt. eigenvalues --    2.32416   2.32778   2.33012   2.33306   2.34797
 Alpha virt. eigenvalues --    2.35323   2.35876   2.35985   2.37226   2.38167
 Alpha virt. eigenvalues --    2.38276   2.38568   2.38927   2.39614   2.39801
 Alpha virt. eigenvalues --    2.40427   2.40789   2.41585   2.41786   2.42062
 Alpha virt. eigenvalues --    2.42610   2.42795   2.43360   2.44123   2.44518
 Alpha virt. eigenvalues --    2.45025   2.45849   2.46036   2.46901   2.47498
 Alpha virt. eigenvalues --    2.48378   2.48760   2.49708   2.49930   2.50434
 Alpha virt. eigenvalues --    2.51274   2.51937   2.52358   2.52698   2.53255
 Alpha virt. eigenvalues --    2.53669   2.54041   2.54233   2.54592   2.54869
 Alpha virt. eigenvalues --    2.55023   2.55833   2.56041   2.56205   2.56618
 Alpha virt. eigenvalues --    2.56797   2.56965   2.57113   2.57393   2.57969
 Alpha virt. eigenvalues --    2.58243   2.58483   2.58823   2.59208   2.59263
 Alpha virt. eigenvalues --    2.59493   2.59961   2.60118   2.60464   2.60990
 Alpha virt. eigenvalues --    2.61134   2.61480   2.61997   2.62261   2.62628
 Alpha virt. eigenvalues --    2.62750   2.63325   2.63347   2.63737   2.64130
 Alpha virt. eigenvalues --    2.64391   2.64509   2.64945   2.65463   2.65699
 Alpha virt. eigenvalues --    2.66517   2.66762   2.67028   2.67289   2.67810
 Alpha virt. eigenvalues --    2.68003   2.68153   2.68760   2.69305   2.69685
 Alpha virt. eigenvalues --    2.69872   2.70274   2.70957   2.71403   2.71523
 Alpha virt. eigenvalues --    2.72132   2.72450   2.72920   2.73335   2.73914
 Alpha virt. eigenvalues --    2.74178   2.74687   2.75176   2.75895   2.76322
 Alpha virt. eigenvalues --    2.76521   2.77318   2.77699   2.78010   2.78574
 Alpha virt. eigenvalues --    2.79124   2.79554   2.79965   2.80040   2.80674
 Alpha virt. eigenvalues --    2.80823   2.81550   2.81796   2.82502   2.82722
 Alpha virt. eigenvalues --    2.83289   2.83751   2.84133   2.84971   2.85107
 Alpha virt. eigenvalues --    2.85392   2.85685   2.86598   2.86741   2.87079
 Alpha virt. eigenvalues --    2.87628   2.88419   2.88799   2.89286   2.89574
 Alpha virt. eigenvalues --    2.90159   2.90323   2.90458   2.91012   2.91330
 Alpha virt. eigenvalues --    2.91547   2.92451   2.92535   2.92878   2.93040
 Alpha virt. eigenvalues --    2.93695   2.93991   2.95170   2.95740   2.96110
 Alpha virt. eigenvalues --    2.96743   2.97708   2.97945   2.99770   2.99978
 Alpha virt. eigenvalues --    3.00778   3.01680   3.02587   3.03474   3.03778
 Alpha virt. eigenvalues --    3.04541   3.05619   3.06266   3.07103   3.10285
 Alpha virt. eigenvalues --    3.11044   3.12865   3.14495   3.15791   3.17088
 Alpha virt. eigenvalues --    3.17707   3.20312   3.21380   3.21632   3.23505
 Alpha virt. eigenvalues --    3.25304   3.27739   3.28249   3.29726   3.31752
 Alpha virt. eigenvalues --    3.31918   3.33912   3.36766   3.37272   3.38918
 Alpha virt. eigenvalues --    3.39911   3.41401   3.43514   3.45521   3.46049
 Alpha virt. eigenvalues --    3.47312   3.47662   3.51229   3.54680   3.56945
 Alpha virt. eigenvalues --    3.57647   3.59732   4.00710   4.01526   4.01765
 Alpha virt. eigenvalues --    4.02364   4.03229   4.04161   4.04408   4.04919
 Alpha virt. eigenvalues --    4.05075   4.06360   4.06477   4.06760   4.07414
 Alpha virt. eigenvalues --    4.07769   4.08507   4.08918   4.09614   4.10733
 Alpha virt. eigenvalues --    4.11024   4.11965   4.12524   4.12964   4.13714
 Alpha virt. eigenvalues --    4.14355   4.16176   4.17440   4.17831   4.19091
 Alpha virt. eigenvalues --    4.19500   4.19864   4.21177   4.21658   4.21920
 Alpha virt. eigenvalues --    4.22046   4.23812   4.24461   4.26800   4.27136
 Alpha virt. eigenvalues --    4.28308   4.28728   4.29381   4.29519   4.29920
 Alpha virt. eigenvalues --    4.30934   4.31523   4.33540   4.35248   4.37251
 Alpha virt. eigenvalues --    4.38765   4.39096   4.40296   4.43052   4.44914
 Alpha virt. eigenvalues --    4.45736   4.46600   4.46760   4.49444   4.50605
 Alpha virt. eigenvalues --    4.51557   4.52344   4.52953   4.56573   4.57481
 Alpha virt. eigenvalues --    4.58663   4.59634   4.62133   4.63483   4.65395
 Alpha virt. eigenvalues --    4.66173   4.69111   4.70522   4.72139   4.79257
 Alpha virt. eigenvalues --    4.81052   4.82489   4.84336   4.85317   4.88003
 Alpha virt. eigenvalues --    4.92537   4.96438   5.00276   5.02834   5.04659
 Alpha virt. eigenvalues --    5.08619   5.16062   5.18810   5.19933   5.24655
          Condensed to atoms (all electrons):
 Mulliken charges:
               1
     1  C   -0.024748
     2  C   -0.021158
     3  C    0.004815
     4  C   -0.032296
     5  C    0.050366
     6  C   -0.023051
     7  C    0.002660
     8  C   -0.032670
     9  C    0.040829
    10  C    0.064130
    11  C    0.061910
    12  C    0.047222
    13  C   -0.028182
    14  C   -0.031773
    15  C   -0.012251
    16  C   -0.030700
    17  C   -0.010732
    18  C    0.044154
    19  C   -0.013476
    20  C    0.037885
    21  C   -0.039392
    22  C    0.008803
    23  C    0.004702
    24  C    0.088405
    25  C    0.074912
    26  C    0.084635
    27  C    0.015007
    28  C   -0.374154
    29  C    0.039957
    30  C    0.087450
    31  C   -0.020609
    32  C    0.088277
    33  C   -0.025050
    34  C    0.002542
    35  C    0.044517
    36  C    0.035681
    37  C    0.042551
    38  C    0.046559
    39  C    0.052868
    40  C   -0.025262
    41  C   -0.023178
    42  C    0.063429
    43  C   -0.028620
    44  C    0.066150
    45  C    0.072197
    46  C   -0.035247
    47  C   -0.021546
    48  C   -0.023249
    49  C   -0.023731
    50  C   -0.026030
    51  C    0.052320
    52  C    0.047719
    53  C   -0.021425
    54  C   -0.023025
    55  C   -0.001894
    56  C   -0.015416
    57  C    0.084848
    58  C    0.020333
    59  C    0.121006
    60  C    0.078589
    61  C   -0.365482
    62  C   -0.375956
    63  C    0.079217
    64  C    0.147181
    65  C    0.000770
    66  C    0.128723
    67  C    0.077381
    68  C    0.101814
    69  C   -0.037535
    70  C   -0.354367
    71  C    0.007345
    72  C    0.079619
    73  C   -0.011266
    74  C    0.024301
    75  C   -0.000826
    76  C   -0.011905
    77  C   -0.024872
    78  C   -0.021129
    79  C   -0.019315
    80  C   -0.023676
    81  C    0.000325
    82  C   -0.020865
    83  C   -0.023257
    84  C   -0.019651
    85  Cl  -0.012381
    86  Cl  -0.002793
    87  Cl   0.003163
    88  Cl  -0.013123
 Sum of Mulliken charges =  -0.00000
 Mulliken charges with hydrogens summed into heavy atoms:
               1
     1  C   -0.024748
     2  C   -0.021158
     3  C    0.004815
     4  C   -0.032296
     5  C    0.050366
     6  C   -0.023051
     7  C    0.002660
     8  C   -0.032670
     9  C    0.040829
    10  C    0.064130
    11  C    0.061910
    12  C    0.047222
    13  C   -0.028182
    14  C   -0.031773
    15  C   -0.012251
    16  C   -0.030700
    17  C   -0.010732
    18  C    0.044154
    19  C   -0.013476
    20  C    0.037885
    21  C   -0.039392
    22  C    0.008803
    23  C    0.004702
    24  C    0.088405
    25  C    0.074912
    26  C    0.084635
    27  C    0.015007
    28  C   -0.374154
    29  C    0.039957
    30  C    0.087450
    31  C   -0.020609
    32  C    0.088277
    33  C   -0.025050
    34  C    0.002542
    35  C    0.044517
    36  C    0.035681
    37  C    0.042551
    38  C    0.046559
    39  C    0.052868
    40  C   -0.025262
    41  C   -0.023178
    42  C    0.063429
    43  C   -0.028620
    44  C    0.066150
    45  C    0.072197
    46  C   -0.035247
    47  C   -0.021546
    48  C   -0.023249
    49  C   -0.023731
    50  C   -0.026030
    51  C    0.052320
    52  C    0.047719
    53  C   -0.021425
    54  C   -0.023025
    55  C   -0.001894
    56  C   -0.015416
    57  C    0.084848
    58  C    0.020333
    59  C    0.121006
    60  C    0.078589
    61  C   -0.365482
    62  C   -0.375956
    63  C    0.079217
    64  C    0.147181
    65  C    0.000770
    66  C    0.128723
    67  C    0.077381
    68  C    0.101814
    69  C   -0.037535
    70  C   -0.354367
    71  C    0.007345
    72  C    0.079619
    73  C   -0.011266
    74  C    0.024301
    75  C   -0.000826
    76  C   -0.011905
    77  C   -0.024872
    78  C   -0.021129
    79  C   -0.019315
    80  C   -0.023676
    81  C    0.000325
    82  C   -0.020865
    83  C   -0.023257
    84  C   -0.019651
    85  Cl  -0.012381
    86  Cl  -0.002793
    87  Cl   0.003163
    88  Cl  -0.013123
 Electronic spatial extent (au):  <R**2>=          42064.0358
 Charge=              0.0000 electrons
 Dipole moment (field-independent basis, Debye):
    X=              5.4425    Y=              0.3707    Z=             -0.4748  Tot=              5.4757
 Quadrupole moment (field-independent basis, Debye-Ang):
   XX=           -533.3465   YY=           -508.2091   ZZ=           -502.4722
   XY=             -1.2368   XZ=             -1.6181   YZ=             -3.3431
 Traceless Quadrupole moment (field-independent basis, Debye-Ang):
   XX=            -18.6706   YY=              6.4668   ZZ=             12.2037
   XY=             -1.2368   XZ=             -1.6181   YZ=             -3.3431
 Octapole moment (field-independent basis, Debye-Ang**2):
  XXX=              8.7410  YYY=              3.4167  ZZZ=            -10.8916  XYY=             20.9693
  XXY=             -3.2627  XXZ=            -15.2612  XZZ=            -32.6910  YZZ=             -0.1507
  YYZ=             14.9745  XYZ=              3.5119
 Hexadecapole moment (field-independent basis, Debye-Ang**3):
 XXXX=         -25088.7181 YYYY=         -20598.4545 ZZZZ=         -16121.9122 XXXY=             14.3156
 XXXZ=             29.9895 YYYX=             21.2238 YYYZ=             -5.2572 ZZZX=            -47.1103
 ZZZY=            -15.7473 XXYY=          -7748.6489 XXZZ=          -6852.6924 YYZZ=          -6138.3999
 XXYZ=             -7.1227 YYXZ=            -69.2413 ZZXY=            -14.5938
 N-N= 1.716401412970D+04 E-N=-4.610675872957D+04  KE= 5.006210111888D+03
 No NMR shielding tensors so no spin-rotation constants.
 Leave Link  601 at Wed Jun 29 05:56:45 2022, MaxMem=  1342177280 cpu:              22.9 elap:               1.2
 (Enter /home/mkliu/g16/l9999.exe)
 1\1\GINC-NODE04\FOpt\RB3LYP\6-31G(d,p)\C84Cl4\MKLIU\29-Jun-2022\0\\#P 
 opt b3lyp/6-31G(d, p) empiricaldispersion=GD3\\force\\0,1\C,8.54377427
 53,18.9525154102,10.7939798501\C,12.4559006397,20.1945001345,8.8925900
 095\C,8.3025436168,26.7502636635,10.5531319189\C,12.3743742457,25.5323
 421772,8.9022056467\C,8.0616972,19.1325736841,9.4721808875\C,12.087441
 9512,19.7320153344,10.1967018991\C,7.9917947272,26.7754335092,9.154902
 3197\C,11.8984531801,25.9220087257,10.1986333987\C,9.0309178952,19.218
 2081097,8.3747086472\C,12.3504247193,20.4901000426,11.3618570982\C,12.
 1539977235,25.1500494418,11.3487490908\C,8.9991155997,26.6150697579,8.
 1670641896\C,10.3941652023,19.0940902704,8.6954077692\C,10.3353090373,
 26.634980504,8.6388280017\C,10.8500066697,18.9882565074,10.0530918487\
 C,10.6445684419,26.6233107585,10.0231039737\C,9.9440406877,18.93329878
 46,11.0841329577\C,9.6336666903,26.5786066039,11.0148570157\C,10.19616
 54348,19.6570378968,12.3230016697\C,9.8714130903,25.8233225195,12.2305
 660725\C,8.9386421425,20.0525307411,12.8446082301\C,8.7186364109,25.34
 65461034,12.9062345534\C,7.899448656,19.5587756117,11.9356401333\C,7.3
 867690969,25.5159823669,12.4027129328\C,6.723574296,20.2342624875,11.7
 860121643\C,7.181329737,26.2052754141,11.2542764712\C,6.1670479704,20.
 3616030149,10.4866479682\C,6.0350533124,25.9154147761,10.3064977361\C,
 6.782625405,19.7996937986,9.3420225241\C,6.6708781083,26.2601254563,8.
 9761406887\C,6.4345425208,20.3908052994,8.1014160221\C,6.3574864443,25
 .6149384384,7.8282228886\C,7.3642969004,20.3746091935,6.9771334926\C,7
 .3420557112,25.4621462327,6.7927961307\C,8.6921019897,19.9236233575,7.
 1306503581\C,8.6881283856,25.8942345661,6.9457996651\C,9.7403467304,20
 .5912131051,6.3486726202\C,9.7457426637,25.1582547258,6.2500896774\C,1
 1.1216093531,20.5704725293,6.8260442261\C,12.9312124042,22.1405477191,
 7.5212952004\C,12.9137881227,23.6082208222,7.5233267795\C,11.119330884
 9,25.1771959745,6.7860705846\C,11.4210588232,19.805995555,7.9644270196
 \C,13.1686559883,21.4154212983,8.7178911595\C,13.1177150738,24.3324929
 641,8.7311285816\C,11.391295374,25.9396681147,7.9357350263\C,13.514297
 4641,22.1387070231,9.8940552718\C,13.4688463675,23.6076242166,9.900422
 1371\C,13.1392222628,21.675683116,11.1759628129\C,13.0484394187,24.037
 5041057,11.1838458191\C,11.3702160277,20.4621456748,12.4576280453\C,11
 .1345642203,25.1016137593,12.4069655854\C,11.2277478375,21.607993733,1
 3.2769238808\C,11.1407447753,23.9771923351,13.2616188171\C,11.98115798
 82,22.8206759971,12.9992775219\C,12.9080861208,22.8501456045,11.995176
 1761\C,8.7611924366,21.2964446917,13.5125766285\C,8.7439335145,24.1273
 35061,13.6520739595\C,7.5117939611,22.0413782918,13.3532425569\C,7.516
 3131508,23.4106439888,13.4584338642\C,6.3251031472,21.4103187729,12.65
 6842099\C,6.4978010342,24.3594968757,12.8147559784\C,5.7152525157,22.3
 493123115,11.6117414496\C,5.8349776253,23.722675778,11.6008228269\C,5.
 5083288729,21.6400865684,10.4062245576\C,5.6461522829,24.4319053429,10
 .3623609533\C,5.3093823578,22.3063032877,9.1809535776\C,5.3485351342,2
 3.7450325563,9.1769762514\C,5.629995001,21.5496596169,8.0091628956\C,5
 .3709328216,24.4628249854,7.8199165366\C,5.9607244683,22.2274083321,6.
 769131122\C,5.9403766401,23.595235263,6.7059738438\C,7.0206553879,21.4
 754776319,6.1300770962\C,7.0117429822,24.2875488062,6.044481543\C,8.01
 81417425,22.1326918592,5.4261722875\C,8.0178743057,23.5873109624,5.388
 7540051\C,9.363148141,21.6725126413,5.5082274729\C,9.3677998295,24.046
 9871911,5.46060612\C,11.9844059178,21.6913897489,6.5704448223\C,11.980
 5708183,24.0505391693,6.5543748593\C,10.2060849513,22.8538300615,5.395
 9456478\C,11.467096518,22.8652387519,5.9088129001\C,9.9550713979,22.01
 32482678,13.785249745\C,9.9353413799,23.4575998076,13.8301887355\Cl,5.
 0476398965,20.892451834,13.9033293939\Cl,5.2170791113,24.875633207,14.
 0486545352\Cl,4.5613316636,26.9648457143,10.6717649214\Cl,3.6477809534
 ,25.0043115423,7.3863786732\\Version=ES64L-G16RevA.03\State=1-A\HF=-50
 41.8212675\RMSD=6.187e-09\RMSF=7.431e-05\Dipole=1.7966102,-0.8189333,-
 0.861724\Quadrupole=-9.399646,5.2335617,4.1660844,5.9565342,7.3817226,
 1.0063649\PG=C01 [X(C84Cl4)]\\@


 SOME THINGS ARE EASY, THEY ARE ONLY HARD TO DO.
            -- A. EINSTEIN TO J. O. HIRSCHFELDER
 THE ONLY TROUBLE WITH A SURE THING IS THE UNCERTAINTY.
     -- FROM A TEABAG (BELONGING TO W.H.?)
 Job cpu time:       1 days  1 hours 18 minutes 33.4 seconds.
 Elapsed time:       0 days  1 hours  3 minutes 22.0 seconds.
 File lengths (MBytes):  RWF=   1098 Int=      0 D2E=      0 Chk=    138 Scr=      1
 Normal termination of Gaussian 16 at Wed Jun 29 05:56:46 2022.
