 Entering Gaussian System, Link 0=g16
 Input=4_addons_C84_11_mirror_Cl22_rank_6.gjf
 Output=4_addons_C84_11_mirror_Cl22_rank_6.log
 Initial command:
 /home/mkliu/g16/l1.exe "/data/scratch/Gau-43304.inp" -scrdir="/data/scratch/"
 Entering Link 1 = /home/mkliu/g16/l1.exe PID=     43305.
  
 Copyright (c) 1988,1990,1992,1993,1995,1998,2003,2009,2016,
            Gaussian, Inc.  All Rights Reserved.
  
 This is part of the Gaussian(R) 16 program.  It is based on
 the Gaussian(R) 09 system (copyright 2009, Gaussian, Inc.),
 the Gaussian(R) 03 system (copyright 2003, Gaussian, Inc.),
 the Gaussian(R) 98 system (copyright 1998, Gaussian, Inc.),
 the Gaussian(R) 94 system (copyright 1995, Gaussian, Inc.),
 the Gaussian 92(TM) system (copyright 1992, Gaussian, Inc.),
 the Gaussian 90(TM) system (copyright 1990, Gaussian, Inc.),
 the Gaussian 88(TM) system (copyright 1988, Gaussian, Inc.),
 the Gaussian 86(TM) system (copyright 1986, Carnegie Mellon
 University), and the Gaussian 82(TM) system (copyright 1983,
 Carnegie Mellon University). Gaussian is a federally registered
 trademark of Gaussian, Inc.
  
 This software contains proprietary and confidential information,
 including trade secrets, belonging to Gaussian, Inc.
  
 This software is provided under written license and may be
 used, copied, transmitted, or stored only in accord with that
 written license.
  
 The following legend is applicable only to US Government
 contracts under FAR:
  
                    RESTRICTED RIGHTS LEGEND
  
 Use, reproduction and disclosure by the US Government is
 subject to restrictions as set forth in subparagraphs (a)
 and (c) of the Commercial Computer Software - Restricted
 Rights clause in FAR 52.227-19.
  
 Gaussian, Inc.
 340 Quinnipiac St., Bldg. 40, Wallingford CT 06492
  
  
 ---------------------------------------------------------------
 Warning -- This program may not be used in any manner that
 competes with the business of Gaussian, Inc. or will provide
 assistance to any competitor of Gaussian, Inc.  The licensee
 of this program is prohibited from giving any competitor of
 Gaussian, Inc. access to this program.  By using this program,
 the user acknowledges that Gaussian, Inc. is engaged in the
 business of creating and licensing software in the field of
 computational chemistry and represents and warrants to the
 licensee that it is not a competitor of Gaussian, Inc. and that
 it will not use this program in any manner prohibited above.
 ---------------------------------------------------------------
  

 Cite this work as:
 Gaussian 16, Revision A.03,
 M. J. Frisch, G. W. Trucks, H. B. Schlegel, G. E. Scuseria, 
 M. A. Robb, J. R. Cheeseman, G. Scalmani, V. Barone, 
 G. A. Petersson, H. Nakatsuji, X. Li, M. Caricato, A. V. Marenich, 
 J. Bloino, B. G. Janesko, R. Gomperts, B. Mennucci, H. P. Hratchian, 
 J. V. Ortiz, A. F. Izmaylov, J. L. Sonnenberg, D. Williams-Young, 
 F. Ding, F. Lipparini, F. Egidi, J. Goings, B. Peng, A. Petrone, 
 T. Henderson, D. Ranasinghe, V. G. Zakrzewski, J. Gao, N. Rega, 
 G. Zheng, W. Liang, M. Hada, M. Ehara, K. Toyota, R. Fukuda, 
 J. Hasegawa, M. Ishida, T. Nakajima, Y. Honda, O. Kitao, H. Nakai, 
 T. Vreven, K. Throssell, J. A. Montgomery, Jr., J. E. Peralta, 
 F. Ogliaro, M. J. Bearpark, J. J. Heyd, E. N. Brothers, K. N. Kudin, 
 V. N. Staroverov, T. A. Keith, R. Kobayashi, J. Normand, 
 K. Raghavachari, A. P. Rendell, J. C. Burant, S. S. Iyengar, 
 J. Tomasi, M. Cossi, J. M. Millam, M. Klene, C. Adamo, R. Cammi, 
 J. W. Ochterski, R. L. Martin, K. Morokuma, O. Farkas, 
 J. B. Foresman, and D. J. Fox, Gaussian, Inc., Wallingford CT, 2016.
 
 ******************************************
 Gaussian 16:  ES64L-G16RevA.03 25-Dec-2016
                28-Jun-2022 
 ******************************************
 %mem=10GB
 %chk=4_addons_C84_11_mirror_Cl22_rank_6.chk
 %nprocshared=24
 Will use up to   24 processors via shared memory.
 ------------------------------------------------
 #P opt b3lyp/6-31G(d, p) empiricaldispersion=GD3
 ------------------------------------------------
 1/18=20,19=15,26=3,38=1/1,3;
 2/9=110,12=2,17=6,18=5,40=1/2;
 3/5=1,6=6,7=101,11=2,25=1,30=1,71=1,74=-5,124=31/1,2,3;
 4//1;
 5/5=2,38=5/2;
 6/7=2,8=2,9=2,10=2,28=1/1;
 7//1,2,3,16;
 1/18=20,19=15,26=3/3(2);
 2/9=110/2;
 99//99;
 2/9=110/2;
 3/5=1,6=6,7=101,11=2,25=1,30=1,71=1,74=-5,124=31/1,2,3;
 4/5=5,16=3,69=1/1;
 5/5=2,38=5/2;
 7//1,2,3,16;
 1/18=20,19=15,26=3/3(-5);
 2/9=110/2;
 6/7=2,8=2,9=2,10=2,19=2,28=1/1;
 99/9=1/99;
 Leave Link    1 at Tue Jun 28 19:34:33 2022, MaxMem=  1342177280 cpu:               0.6 elap:               0.1
 (Enter /home/mkliu/g16/l101.exe)
 -----
 force
 -----
 Symbolic Z-matrix:
 Charge =  0 Multiplicity = 1
 C                     8.53605   19.03902   10.78423 
 C                     12.62126   20.06627   8.83135 
 C                     8.28998   26.79693   10.54742 
 C                     12.29984   25.51395   8.90443 
 C                     8.06322   19.19908   9.46379 
 C                     12.05635   19.80271   10.20737 
 C                     7.98278   26.81104   9.15783 
 C                     11.83209   25.90107   10.19557 
 C                     9.01716   19.29374   8.37981 
 C                     12.27591   20.54548   11.34792 
 C                     12.06851   25.12249   11.33796 
 C                     8.96524   26.62015   8.16481 
 C                     10.38854   19.19948   8.68964 
 C                     10.28851   26.61887   8.6404 
 C                     10.84128   19.11171   10.04228 
 C                     10.598    26.60801   10.02426 
 C                     9.92887   19.05787   11.07349 
 C                     9.6041    26.59577   11.02113 
 C                     10.19117   19.72729   12.28841 
 C                     9.84028   25.83602   12.23083 
 C                     8.87742   19.91736   13.01586 
 C                     8.70611   25.38702   12.93107 
 C                     7.88603   19.58945   11.92423 
 C                     7.38276   25.50595   12.38402 
 C                     6.72843   20.28689   11.75873 
 C                     7.17205   26.19835   11.22435 
 C                     6.14164   20.38089   10.46082 
 C                     6.2198    25.72701   10.25748 
 C                     6.77431   19.82015   9.32837 
 C                     6.6792    26.2232   9.00547 
 C                     6.43538   20.39741   8.0994 
 C                     6.36534   25.56082   7.84822 
 C                     7.35034   20.38999   6.99337 
 C                     7.32359   25.47111   6.77676 
 C                     8.68359   19.9593   7.14686 
 C                     8.65515   25.89481   6.94531 
 C                     9.71301   20.62262   6.37492 
 C                     9.7016    25.15852   6.26338 
 C                     11.09034   20.60384   6.8334 
 C                     12.86143   22.17741   7.54453 
 C                     12.83972   23.61611   7.53813 
 C                     11.06022   25.17267   6.78693 
 C                     11.40297   19.83656   7.94752 
 C                     13.13948   21.46432   8.72966 
 C                     13.04152   24.3264   8.73452 
 C                     11.33291   25.92265   7.94245 
 C                     13.45808   22.16312   9.86854 
 C                     13.36898   23.58771   9.89108 
 C                     13.3193   21.62963   11.27717 
 C                     12.93109   24.00435   11.17335 
 C                     11.31616   20.51117   12.40809 
 C                     11.07166   25.08842   12.37986 
 C                     11.29531   21.55633   13.49282 
 C                     11.07723   23.94949   13.20872 
 C                     11.93804   22.82859   13.00686 
 C                     12.85011   22.85508   12.00725 
 C                     8.72822   21.33232   13.50946 
 C                     8.7094    24.15814   13.64815 
 C                     7.48999   22.05207   13.31334 
 C                     7.48267   23.45606   13.41961 
 C                     6.48653   21.52608   12.46858 
 C                     6.65387   24.28748   12.61262 
 C                     5.71294   22.34331   11.62066 
 C                     5.81047   23.75388   11.61598 
 C                     5.47063   21.63031   10.39006 
 C                     5.59847   24.46919   10.37537 
 C                     5.26293   22.2986   9.17439 
 C                     5.29521   23.74879   9.15382 
 C                     5.61685   21.5632   8.01632 
 C                     5.59482   24.35783   7.92001 
 C                     5.94048   22.2218   6.79067 
 C                     5.93261   23.59863   6.74662 
 C                     6.99383   21.48038   6.14736 
 C                     6.98175   24.29584   6.04297 
 C                     7.98394   22.14268   5.44961 
 C                     7.98068   23.58939   5.40409 
 C                     9.32764   21.69186   5.54028 
 C                     9.32556   24.04897   5.48296 
 C                     11.94443   21.71664   6.57117 
 C                     11.91289   24.06289   6.5621 
 C                     10.15358   22.8666   5.41397 
 C                     11.41975   22.88     5.92146 
 C                     9.88069   22.02314   13.7776 
 C                     9.87905   23.44811   13.7919 
 Cl                    8.72889   18.76036   14.40504 
 Cl                    12.08345   20.90564   14.98532 
 Cl                    14.89792   21.0059   11.90471 
 Cl                    13.92638   18.86643   8.43457 
 
 ITRead=  0  0  0  0  0  0  0  0  0  0  0  0  0  0  0  0  0  0  0  0
 ITRead=  0  0  0  0  0  0  0  0  0  0  0  0  0  0  0  0  0  0  0  0
 ITRead=  0  0  0  0  0  0  0  0  0  0  0  0  0  0  0  0  0  0  0  0
 ITRead=  0  0  0  0  0  0  0  0  0  0  0  0  0  0  0  0  0  0  0  0
 ITRead=  0  0  0  0  0  0  0  0
 MicOpt= -1 -1 -1 -1 -1 -1 -1 -1 -1 -1 -1 -1 -1 -1 -1 -1 -1 -1 -1 -1
 MicOpt= -1 -1 -1 -1 -1 -1 -1 -1 -1 -1 -1 -1 -1 -1 -1 -1 -1 -1 -1 -1
 MicOpt= -1 -1 -1 -1 -1 -1 -1 -1 -1 -1 -1 -1 -1 -1 -1 -1 -1 -1 -1 -1
 MicOpt= -1 -1 -1 -1 -1 -1 -1 -1 -1 -1 -1 -1 -1 -1 -1 -1 -1 -1 -1 -1
 MicOpt= -1 -1 -1 -1 -1 -1 -1 -1
 NAtoms=     88 NQM=       88 NQMF=       0 NMMI=      0 NMMIF=      0
                NMic=       0 NMicF=      0.
                    Isotopes and Nuclear Properties:
 (Nuclear quadrupole moments (NQMom) in fm**2, nuclear magnetic moments (NMagM)
  in nuclear magnetons)

  Atom         1           2           3           4           5           6           7           8           9          10
 IAtWgt=          12          12          12          12          12          12          12          12          12          12
 AtmWgt=  12.0000000  12.0000000  12.0000000  12.0000000  12.0000000  12.0000000  12.0000000  12.0000000  12.0000000  12.0000000
 NucSpn=           0           0           0           0           0           0           0           0           0           0
 AtZEff=  -0.0000000  -0.0000000  -0.0000000  -0.0000000  -0.0000000  -0.0000000  -0.0000000  -0.0000000  -0.0000000  -0.0000000
 NQMom=    0.0000000   0.0000000   0.0000000   0.0000000   0.0000000   0.0000000   0.0000000   0.0000000   0.0000000   0.0000000
 NMagM=    0.0000000   0.0000000   0.0000000   0.0000000   0.0000000   0.0000000   0.0000000   0.0000000   0.0000000   0.0000000
 AtZNuc=   6.0000000   6.0000000   6.0000000   6.0000000   6.0000000   6.0000000   6.0000000   6.0000000   6.0000000   6.0000000

  Atom        11          12          13          14          15          16          17          18          19          20
 IAtWgt=          12          12          12          12          12          12          12          12          12          12
 AtmWgt=  12.0000000  12.0000000  12.0000000  12.0000000  12.0000000  12.0000000  12.0000000  12.0000000  12.0000000  12.0000000
 NucSpn=           0           0           0           0           0           0           0           0           0           0
 AtZEff=  -0.0000000  -0.0000000  -0.0000000  -0.0000000  -0.0000000  -0.0000000  -0.0000000  -0.0000000  -0.0000000  -0.0000000
 NQMom=    0.0000000   0.0000000   0.0000000   0.0000000   0.0000000   0.0000000   0.0000000   0.0000000   0.0000000   0.0000000
 NMagM=    0.0000000   0.0000000   0.0000000   0.0000000   0.0000000   0.0000000   0.0000000   0.0000000   0.0000000   0.0000000
 AtZNuc=   6.0000000   6.0000000   6.0000000   6.0000000   6.0000000   6.0000000   6.0000000   6.0000000   6.0000000   6.0000000

  Atom        21          22          23          24          25          26          27          28          29          30
 IAtWgt=          12          12          12          12          12          12          12          12          12          12
 AtmWgt=  12.0000000  12.0000000  12.0000000  12.0000000  12.0000000  12.0000000  12.0000000  12.0000000  12.0000000  12.0000000
 NucSpn=           0           0           0           0           0           0           0           0           0           0
 AtZEff=  -0.0000000  -0.0000000  -0.0000000  -0.0000000  -0.0000000  -0.0000000  -0.0000000  -0.0000000  -0.0000000  -0.0000000
 NQMom=    0.0000000   0.0000000   0.0000000   0.0000000   0.0000000   0.0000000   0.0000000   0.0000000   0.0000000   0.0000000
 NMagM=    0.0000000   0.0000000   0.0000000   0.0000000   0.0000000   0.0000000   0.0000000   0.0000000   0.0000000   0.0000000
 AtZNuc=   6.0000000   6.0000000   6.0000000   6.0000000   6.0000000   6.0000000   6.0000000   6.0000000   6.0000000   6.0000000

  Atom        31          32          33          34          35          36          37          38          39          40
 IAtWgt=          12          12          12          12          12          12          12          12          12          12
 AtmWgt=  12.0000000  12.0000000  12.0000000  12.0000000  12.0000000  12.0000000  12.0000000  12.0000000  12.0000000  12.0000000
 NucSpn=           0           0           0           0           0           0           0           0           0           0
 AtZEff=  -0.0000000  -0.0000000  -0.0000000  -0.0000000  -0.0000000  -0.0000000  -0.0000000  -0.0000000  -0.0000000  -0.0000000
 NQMom=    0.0000000   0.0000000   0.0000000   0.0000000   0.0000000   0.0000000   0.0000000   0.0000000   0.0000000   0.0000000
 NMagM=    0.0000000   0.0000000   0.0000000   0.0000000   0.0000000   0.0000000   0.0000000   0.0000000   0.0000000   0.0000000
 AtZNuc=   6.0000000   6.0000000   6.0000000   6.0000000   6.0000000   6.0000000   6.0000000   6.0000000   6.0000000   6.0000000

  Atom        41          42          43          44          45          46          47          48          49          50
 IAtWgt=          12          12          12          12          12          12          12          12          12          12
 AtmWgt=  12.0000000  12.0000000  12.0000000  12.0000000  12.0000000  12.0000000  12.0000000  12.0000000  12.0000000  12.0000000
 NucSpn=           0           0           0           0           0           0           0           0           0           0
 AtZEff=  -0.0000000  -0.0000000  -0.0000000  -0.0000000  -0.0000000  -0.0000000  -0.0000000  -0.0000000  -0.0000000  -0.0000000
 NQMom=    0.0000000   0.0000000   0.0000000   0.0000000   0.0000000   0.0000000   0.0000000   0.0000000   0.0000000   0.0000000
 NMagM=    0.0000000   0.0000000   0.0000000   0.0000000   0.0000000   0.0000000   0.0000000   0.0000000   0.0000000   0.0000000
 AtZNuc=   6.0000000   6.0000000   6.0000000   6.0000000   6.0000000   6.0000000   6.0000000   6.0000000   6.0000000   6.0000000

  Atom        51          52          53          54          55          56          57          58          59          60
 IAtWgt=          12          12          12          12          12          12          12          12          12          12
 AtmWgt=  12.0000000  12.0000000  12.0000000  12.0000000  12.0000000  12.0000000  12.0000000  12.0000000  12.0000000  12.0000000
 NucSpn=           0           0           0           0           0           0           0           0           0           0
 AtZEff=  -0.0000000  -0.0000000  -0.0000000  -0.0000000  -0.0000000  -0.0000000  -0.0000000  -0.0000000  -0.0000000  -0.0000000
 NQMom=    0.0000000   0.0000000   0.0000000   0.0000000   0.0000000   0.0000000   0.0000000   0.0000000   0.0000000   0.0000000
 NMagM=    0.0000000   0.0000000   0.0000000   0.0000000   0.0000000   0.0000000   0.0000000   0.0000000   0.0000000   0.0000000
 AtZNuc=   6.0000000   6.0000000   6.0000000   6.0000000   6.0000000   6.0000000   6.0000000   6.0000000   6.0000000   6.0000000

  Atom        61          62          63          64          65          66          67          68          69          70
 IAtWgt=          12          12          12          12          12          12          12          12          12          12
 AtmWgt=  12.0000000  12.0000000  12.0000000  12.0000000  12.0000000  12.0000000  12.0000000  12.0000000  12.0000000  12.0000000
 NucSpn=           0           0           0           0           0           0           0           0           0           0
 AtZEff=  -0.0000000  -0.0000000  -0.0000000  -0.0000000  -0.0000000  -0.0000000  -0.0000000  -0.0000000  -0.0000000  -0.0000000
 NQMom=    0.0000000   0.0000000   0.0000000   0.0000000   0.0000000   0.0000000   0.0000000   0.0000000   0.0000000   0.0000000
 NMagM=    0.0000000   0.0000000   0.0000000   0.0000000   0.0000000   0.0000000   0.0000000   0.0000000   0.0000000   0.0000000
 AtZNuc=   6.0000000   6.0000000   6.0000000   6.0000000   6.0000000   6.0000000   6.0000000   6.0000000   6.0000000   6.0000000

  Atom        71          72          73          74          75          76          77          78          79          80
 IAtWgt=          12          12          12          12          12          12          12          12          12          12
 AtmWgt=  12.0000000  12.0000000  12.0000000  12.0000000  12.0000000  12.0000000  12.0000000  12.0000000  12.0000000  12.0000000
 NucSpn=           0           0           0           0           0           0           0           0           0           0
 AtZEff=  -0.0000000  -0.0000000  -0.0000000  -0.0000000  -0.0000000  -0.0000000  -0.0000000  -0.0000000  -0.0000000  -0.0000000
 NQMom=    0.0000000   0.0000000   0.0000000   0.0000000   0.0000000   0.0000000   0.0000000   0.0000000   0.0000000   0.0000000
 NMagM=    0.0000000   0.0000000   0.0000000   0.0000000   0.0000000   0.0000000   0.0000000   0.0000000   0.0000000   0.0000000
 AtZNuc=   6.0000000   6.0000000   6.0000000   6.0000000   6.0000000   6.0000000   6.0000000   6.0000000   6.0000000   6.0000000

  Atom        81          82          83          84          85          86          87          88
 IAtWgt=          12          12          12          12          35          35          35          35
 AtmWgt=  12.0000000  12.0000000  12.0000000  12.0000000  34.9688527  34.9688527  34.9688527  34.9688527
 NucSpn=           0           0           0           0           3           3           3           3
 AtZEff=  -0.0000000  -0.0000000  -0.0000000  -0.0000000  -0.0000000  -0.0000000  -0.0000000  -0.0000000
 NQMom=    0.0000000   0.0000000   0.0000000   0.0000000  -8.1650000  -8.1650000  -8.1650000  -8.1650000
 NMagM=    0.0000000   0.0000000   0.0000000   0.0000000   0.8218740   0.8218740   0.8218740   0.8218740
 AtZNuc=   6.0000000   6.0000000   6.0000000   6.0000000  17.0000000  17.0000000  17.0000000  17.0000000
 Leave Link  101 at Tue Jun 28 19:34:33 2022, MaxMem=  1342177280 cpu:               6.5 elap:               0.3
 (Enter /home/mkliu/g16/l103.exe)

 GradGradGradGradGradGradGradGradGradGradGradGradGradGradGradGradGradGrad
 Berny optimization.
 Initialization pass.
                           ----------------------------
                           !    Initial Parameters    !
                           ! (Angstroms and Degrees)  !
 --------------------------                            --------------------------
 ! Name  Definition              Value          Derivative Info.                !
 --------------------------------------------------------------------------------
 ! R1    R(1,5)                  1.4116         estimate D2E/DX2                !
 ! R2    R(1,17)                 1.4227         estimate D2E/DX2                !
 ! R3    R(1,23)                 1.4231         estimate D2E/DX2                !
 ! R4    R(2,6)                  1.5106         estimate D2E/DX2                !
 ! R5    R(2,43)                 1.5226         estimate D2E/DX2                !
 ! R6    R(2,44)                 1.4945         estimate D2E/DX2                !
 ! R7    R(2,88)                 1.8167         estimate D2E/DX2                !
 ! R8    R(3,7)                  1.4232         estimate D2E/DX2                !
 ! R9    R(3,18)                 1.4113         estimate D2E/DX2                !
 ! R10   R(3,26)                 1.4375         estimate D2E/DX2                !
 ! R11   R(4,8)                  1.4268         estimate D2E/DX2                !
 ! R12   R(4,45)                 1.4104         estimate D2E/DX2                !
 ! R13   R(4,46)                 1.4239         estimate D2E/DX2                !
 ! R14   R(5,9)                  1.4471         estimate D2E/DX2                !
 ! R15   R(5,29)                 1.4371         estimate D2E/DX2                !
 ! R16   R(6,10)                 1.3787         estimate D2E/DX2                !
 ! R17   R(6,15)                 1.4075         estimate D2E/DX2                !
 ! R18   R(7,12)                 1.4099         estimate D2E/DX2                !
 ! R19   R(7,30)                 1.4381         estimate D2E/DX2                !
 ! R20   R(8,11)                 1.4026         estimate D2E/DX2                !
 ! R21   R(8,16)                 1.4325         estimate D2E/DX2                !
 ! R22   R(9,13)                 1.4091         estimate D2E/DX2                !
 ! R23   R(9,35)                 1.4403         estimate D2E/DX2                !
 ! R24   R(10,49)                1.5063         estimate D2E/DX2                !
 ! R25   R(10,51)                1.4305         estimate D2E/DX2                !
 ! R26   R(11,50)                1.4217         estimate D2E/DX2                !
 ! R27   R(11,52)                1.4424         estimate D2E/DX2                !
 ! R28   R(12,14)                1.4061         estimate D2E/DX2                !
 ! R29   R(12,36)                1.4524         estimate D2E/DX2                !
 ! R30   R(13,15)                1.4291         estimate D2E/DX2                !
 ! R31   R(13,43)                1.4091         estimate D2E/DX2                !
 ! R32   R(14,16)                1.4181         estimate D2E/DX2                !
 ! R33   R(14,46)                1.4362         estimate D2E/DX2                !
 ! R34   R(15,17)                1.378          estimate D2E/DX2                !
 ! R35   R(16,18)                1.4077         estimate D2E/DX2                !
 ! R36   R(17,19)                1.4117         estimate D2E/DX2                !
 ! R37   R(18,20)                1.4479         estimate D2E/DX2                !
 ! R38   R(19,21)                1.5137         estimate D2E/DX2                !
 ! R39   R(19,51)                1.3764         estimate D2E/DX2                !
 ! R40   R(20,22)                1.4065         estimate D2E/DX2                !
 ! R41   R(20,52)                1.4482         estimate D2E/DX2                !
 ! R42   R(21,23)                1.5106         estimate D2E/DX2                !
 ! R43   R(21,57)                1.506          estimate D2E/DX2                !
 ! R44   R(21,85)                1.814          estimate D2E/DX2                !
 ! R45   R(22,24)                1.4369         estimate D2E/DX2                !
 ! R46   R(22,58)                1.4228         estimate D2E/DX2                !
 ! R47   R(23,25)                1.3616         estimate D2E/DX2                !
 ! R48   R(24,26)                1.367          estimate D2E/DX2                !
 ! R49   R(24,62)                1.4381         estimate D2E/DX2                !
 ! R50   R(25,27)                1.4275         estimate D2E/DX2                !
 ! R51   R(25,61)                1.4485         estimate D2E/DX2                !
 ! R52   R(26,28)                1.4366         estimate D2E/DX2                !
 ! R53   R(27,29)                1.4132         estimate D2E/DX2                !
 ! R54   R(27,65)                1.42           estimate D2E/DX2                !
 ! R55   R(28,30)                1.4229         estimate D2E/DX2                !
 ! R56   R(28,66)                1.4079         estimate D2E/DX2                !
 ! R57   R(29,31)                1.3995         estimate D2E/DX2                !
 ! R58   R(30,32)                1.3699         estimate D2E/DX2                !
 ! R59   R(31,33)                1.4354         estimate D2E/DX2                !
 ! R60   R(31,69)                1.4269         estimate D2E/DX2                !
 ! R61   R(32,34)                1.4402         estimate D2E/DX2                !
 ! R62   R(32,70)                1.4304         estimate D2E/DX2                !
 ! R63   R(33,35)                1.4095         estimate D2E/DX2                !
 ! R64   R(33,73)                1.4254         estimate D2E/DX2                !
 ! R65   R(34,36)                1.4075         estimate D2E/DX2                !
 ! R66   R(34,74)                1.4271         estimate D2E/DX2                !
 ! R67   R(35,37)                1.4476         estimate D2E/DX2                !
 ! R68   R(36,38)                1.4499         estimate D2E/DX2                !
 ! R69   R(37,39)                1.4518         estimate D2E/DX2                !
 ! R70   R(37,77)                1.4101         estimate D2E/DX2                !
 ! R71   R(38,42)                1.4561         estimate D2E/DX2                !
 ! R72   R(38,78)                1.4077         estimate D2E/DX2                !
 ! R73   R(39,43)                1.3884         estimate D2E/DX2                !
 ! R74   R(39,79)                1.4271         estimate D2E/DX2                !
 ! R75   R(40,41)                1.4389         estimate D2E/DX2                !
 ! R76   R(40,44)                1.4108         estimate D2E/DX2                !
 ! R77   R(40,79)                1.4144         estimate D2E/DX2                !
 ! R78   R(41,45)                1.4059         estimate D2E/DX2                !
 ! R79   R(41,80)                1.4182         estimate D2E/DX2                !
 ! R80   R(42,46)                1.4043         estimate D2E/DX2                !
 ! R81   R(42,80)                1.4175         estimate D2E/DX2                !
 ! R82   R(44,47)                1.3736         estimate D2E/DX2                !
 ! R83   R(45,48)                1.4109         estimate D2E/DX2                !
 ! R84   R(47,48)                1.4275         estimate D2E/DX2                !
 ! R85   R(47,49)                1.5127         estimate D2E/DX2                !
 ! R86   R(48,50)                1.4176         estimate D2E/DX2                !
 ! R87   R(49,56)                1.5016         estimate D2E/DX2                !
 ! R88   R(49,87)                1.8097         estimate D2E/DX2                !
 ! R89   R(50,56)                1.4222         estimate D2E/DX2                !
 ! R90   R(51,53)                1.5065         estimate D2E/DX2                !
 ! R91   R(52,54)                1.4086         estimate D2E/DX2                !
 ! R92   R(53,55)                1.506          estimate D2E/DX2                !
 ! R93   R(53,83)                1.5166         estimate D2E/DX2                !
 ! R94   R(53,86)                1.8089         estimate D2E/DX2                !
 ! R95   R(54,55)                1.4276         estimate D2E/DX2                !
 ! R96   R(54,84)                1.4238         estimate D2E/DX2                !
 ! R97   R(55,56)                1.3534         estimate D2E/DX2                !
 ! R98   R(57,59)                1.4456         estimate D2E/DX2                !
 ! R99   R(57,83)                1.3702         estimate D2E/DX2                !
 ! R100  R(58,60)                1.4318         estimate D2E/DX2                !
 ! R101  R(58,84)                1.3758         estimate D2E/DX2                !
 ! R102  R(59,60)                1.408          estimate D2E/DX2                !
 ! R103  R(59,61)                1.4132         estimate D2E/DX2                !
 ! R104  R(60,62)                1.4246         estimate D2E/DX2                !
 ! R105  R(61,63)                1.409          estimate D2E/DX2                !
 ! R106  R(62,64)                1.4104         estimate D2E/DX2                !
 ! R107  R(63,64)                1.4139         estimate D2E/DX2                !
 ! R108  R(63,65)                1.4427         estimate D2E/DX2                !
 ! R109  R(64,66)                1.4477         estimate D2E/DX2                !
 ! R110  R(65,67)                1.4027         estimate D2E/DX2                !
 ! R111  R(66,68)                1.4502         estimate D2E/DX2                !
 ! R112  R(67,68)                1.4507         estimate D2E/DX2                !
 ! R113  R(67,69)                1.4168         estimate D2E/DX2                !
 ! R114  R(68,70)                1.4082         estimate D2E/DX2                !
 ! R115  R(69,71)                1.4285         estimate D2E/DX2                !
 ! R116  R(70,72)                1.4378         estimate D2E/DX2                !
 ! R117  R(71,72)                1.3776         estimate D2E/DX2                !
 ! R118  R(71,73)                1.4398         estimate D2E/DX2                !
 ! R119  R(72,74)                1.4429         estimate D2E/DX2                !
 ! R120  R(73,75)                1.3805         estimate D2E/DX2                !
 ! R121  R(74,76)                1.3803         estimate D2E/DX2                !
 ! R122  R(75,76)                1.4474         estimate D2E/DX2                !
 ! R123  R(75,77)                1.4202         estimate D2E/DX2                !
 ! R124  R(76,78)                1.4234         estimate D2E/DX2                !
 ! R125  R(77,81)                1.4416         estimate D2E/DX2                !
 ! R126  R(78,81)                1.4451         estimate D2E/DX2                !
 ! R127  R(79,82)                1.4321         estimate D2E/DX2                !
 ! R128  R(80,82)                1.4328         estimate D2E/DX2                !
 ! R129  R(81,82)                1.3642         estimate D2E/DX2                !
 ! R130  R(83,84)                1.425          estimate D2E/DX2                !
 ! A1    A(5,1,17)             121.1052         estimate D2E/DX2                !
 ! A2    A(5,1,23)             123.5371         estimate D2E/DX2                !
 ! A3    A(17,1,23)            106.2119         estimate D2E/DX2                !
 ! A4    A(6,2,43)             101.7252         estimate D2E/DX2                !
 ! A5    A(6,2,44)             110.7848         estimate D2E/DX2                !
 ! A6    A(6,2,88)             110.6321         estimate D2E/DX2                !
 ! A7    A(43,2,44)            112.2778         estimate D2E/DX2                !
 ! A8    A(43,2,88)            110.3907         estimate D2E/DX2                !
 ! A9    A(44,2,88)            110.7243         estimate D2E/DX2                !
 ! A10   A(7,3,18)             122.0133         estimate D2E/DX2                !
 ! A11   A(7,3,26)             107.2207         estimate D2E/DX2                !
 ! A12   A(18,3,26)            120.4471         estimate D2E/DX2                !
 ! A13   A(8,4,45)             120.6552         estimate D2E/DX2                !
 ! A14   A(8,4,46)             108.112          estimate D2E/DX2                !
 ! A15   A(45,4,46)            121.1582         estimate D2E/DX2                !
 ! A16   A(1,5,9)              119.1633         estimate D2E/DX2                !
 ! A17   A(1,5,29)             115.9475         estimate D2E/DX2                !
 ! A18   A(9,5,29)             119.4973         estimate D2E/DX2                !
 ! A19   A(2,6,10)             126.8703         estimate D2E/DX2                !
 ! A20   A(2,6,15)             107.5559         estimate D2E/DX2                !
 ! A21   A(10,6,15)            119.9338         estimate D2E/DX2                !
 ! A22   A(3,7,12)             122.4078         estimate D2E/DX2                !
 ! A23   A(3,7,30)             107.1605         estimate D2E/DX2                !
 ! A24   A(12,7,30)            120.1123         estimate D2E/DX2                !
 ! A25   A(4,8,11)             122.0866         estimate D2E/DX2                !
 ! A26   A(4,8,16)             107.9454         estimate D2E/DX2                !
 ! A27   A(11,8,16)            121.1023         estimate D2E/DX2                !
 ! A28   A(5,9,13)             118.1967         estimate D2E/DX2                !
 ! A29   A(5,9,35)             121.2524         estimate D2E/DX2                !
 ! A30   A(13,9,35)            116.3935         estimate D2E/DX2                !
 ! A31   A(6,10,49)            117.3362         estimate D2E/DX2                !
 ! A32   A(6,10,51)            119.5607         estimate D2E/DX2                !
 ! A33   A(49,10,51)           121.1182         estimate D2E/DX2                !
 ! A34   A(8,11,50)            116.3937         estimate D2E/DX2                !
 ! A35   A(8,11,52)            119.011          estimate D2E/DX2                !
 ! A36   A(50,11,52)           118.9708         estimate D2E/DX2                !
 ! A37   A(7,12,14)            114.6875         estimate D2E/DX2                !
 ! A38   A(7,12,36)            120.679          estimate D2E/DX2                !
 ! A39   A(14,12,36)           118.9771         estimate D2E/DX2                !
 ! A40   A(9,13,15)            121.3682         estimate D2E/DX2                !
 ! A41   A(9,13,43)            123.6818         estimate D2E/DX2                !
 ! A42   A(15,13,43)           107.3483         estimate D2E/DX2                !
 ! A43   A(12,14,16)           122.3746         estimate D2E/DX2                !
 ! A44   A(12,14,46)           121.3605         estimate D2E/DX2                !
 ! A45   A(16,14,46)           108.1692         estimate D2E/DX2                !
 ! A46   A(6,15,13)            110.7535         estimate D2E/DX2                !
 ! A47   A(6,15,17)            120.1996         estimate D2E/DX2                !
 ! A48   A(13,15,17)           120.0636         estimate D2E/DX2                !
 ! A49   A(8,16,14)            107.9681         estimate D2E/DX2                !
 ! A50   A(8,16,18)            121.2825         estimate D2E/DX2                !
 ! A51   A(14,16,18)           122.4813         estimate D2E/DX2                !
 ! A52   A(1,17,15)            119.7758         estimate D2E/DX2                !
 ! A53   A(1,17,19)            111.2945         estimate D2E/DX2                !
 ! A54   A(15,17,19)           120.1642         estimate D2E/DX2                !
 ! A55   A(3,18,16)            114.7389         estimate D2E/DX2                !
 ! A56   A(3,18,20)            120.4717         estimate D2E/DX2                !
 ! A57   A(16,18,20)           118.7534         estimate D2E/DX2                !
 ! A58   A(17,19,21)           108.172          estimate D2E/DX2                !
 ! A59   A(17,19,51)           119.7856         estimate D2E/DX2                !
 ! A60   A(21,19,51)           126.5911         estimate D2E/DX2                !
 ! A61   A(18,20,22)           116.868          estimate D2E/DX2                !
 ! A62   A(18,20,52)           119.7055         estimate D2E/DX2                !
 ! A63   A(22,20,52)           118.0077         estimate D2E/DX2                !
 ! A64   A(19,21,23)           101.2478         estimate D2E/DX2                !
 ! A65   A(19,21,57)           111.1911         estimate D2E/DX2                !
 ! A66   A(19,21,85)           111.0396         estimate D2E/DX2                !
 ! A67   A(23,21,57)           112.0723         estimate D2E/DX2                !
 ! A68   A(23,21,85)           111.1745         estimate D2E/DX2                !
 ! A69   A(57,21,85)           109.8862         estimate D2E/DX2                !
 ! A70   A(20,22,24)           121.7813         estimate D2E/DX2                !
 ! A71   A(20,22,58)           121.653          estimate D2E/DX2                !
 ! A72   A(24,22,58)           105.3965         estimate D2E/DX2                !
 ! A73   A(1,23,21)            111.2894         estimate D2E/DX2                !
 ! A74   A(1,23,25)            119.2816         estimate D2E/DX2                !
 ! A75   A(21,23,25)           122.3177         estimate D2E/DX2                !
 ! A76   A(22,24,26)           120.4551         estimate D2E/DX2                !
 ! A77   A(22,24,62)           109.6415         estimate D2E/DX2                !
 ! A78   A(26,24,62)           119.0704         estimate D2E/DX2                !
 ! A79   A(23,25,27)           119.5865         estimate D2E/DX2                !
 ! A80   A(23,25,61)           121.3757         estimate D2E/DX2                !
 ! A81   A(27,25,61)           108.6997         estimate D2E/DX2                !
 ! A82   A(3,26,24)            119.3763         estimate D2E/DX2                !
 ! A83   A(3,26,28)            109.5845         estimate D2E/DX2                !
 ! A84   A(24,26,28)           120.4605         estimate D2E/DX2                !
 ! A85   A(25,27,29)           121.2276         estimate D2E/DX2                !
 ! A86   A(25,27,65)           107.3072         estimate D2E/DX2                !
 ! A87   A(29,27,65)           121.3828         estimate D2E/DX2                !
 ! A88   A(26,28,30)           105.2932         estimate D2E/DX2                !
 ! A89   A(26,28,66)           121.9587         estimate D2E/DX2                !
 ! A90   A(30,28,66)           121.851          estimate D2E/DX2                !
 ! A91   A(5,29,27)            119.8332         estimate D2E/DX2                !
 ! A92   A(5,29,31)            118.5693         estimate D2E/DX2                !
 ! A93   A(27,29,31)           115.5704         estimate D2E/DX2                !
 ! A94   A(7,30,28)            109.9976         estimate D2E/DX2                !
 ! A95   A(7,30,32)            119.6599         estimate D2E/DX2                !
 ! A96   A(28,30,32)           120.0481         estimate D2E/DX2                !
 ! A97   A(29,31,33)           121.3414         estimate D2E/DX2                !
 ! A98   A(29,31,69)           121.8081         estimate D2E/DX2                !
 ! A99   A(33,31,69)           108.9667         estimate D2E/DX2                !
 ! A100  A(30,32,34)           120.4083         estimate D2E/DX2                !
 ! A101  A(30,32,70)           119.1885         estimate D2E/DX2                !
 ! A102  A(34,32,70)           110.0813         estimate D2E/DX2                !
 ! A103  A(31,33,35)           121.3732         estimate D2E/DX2                !
 ! A104  A(31,33,73)           107.0933         estimate D2E/DX2                !
 ! A105  A(35,33,73)           122.3421         estimate D2E/DX2                !
 ! A106  A(32,34,36)           121.4402         estimate D2E/DX2                !
 ! A107  A(32,34,74)           105.9292         estimate D2E/DX2                !
 ! A108  A(36,34,74)           122.4195         estimate D2E/DX2                !
 ! A109  A(9,35,33)            116.9687         estimate D2E/DX2                !
 ! A110  A(9,35,37)            120.2344         estimate D2E/DX2                !
 ! A111  A(33,35,37)           118.3316         estimate D2E/DX2                !
 ! A112  A(12,36,34)           116.9288         estimate D2E/DX2                !
 ! A113  A(12,36,38)           119.6319         estimate D2E/DX2                !
 ! A114  A(34,36,38)           118.2691         estimate D2E/DX2                !
 ! A115  A(35,37,39)           120.0215         estimate D2E/DX2                !
 ! A116  A(35,37,77)           117.9525         estimate D2E/DX2                !
 ! A117  A(39,37,77)           117.1304         estimate D2E/DX2                !
 ! A118  A(36,38,42)           119.9593         estimate D2E/DX2                !
 ! A119  A(36,38,78)           117.9188         estimate D2E/DX2                !
 ! A120  A(42,38,78)           117.1461         estimate D2E/DX2                !
 ! A121  A(37,39,43)           118.3069         estimate D2E/DX2                !
 ! A122  A(37,39,79)           119.9794         estimate D2E/DX2                !
 ! A123  A(43,39,79)           116.3344         estimate D2E/DX2                !
 ! A124  A(41,40,44)           120.804          estimate D2E/DX2                !
 ! A125  A(41,40,79)           108.2326         estimate D2E/DX2                !
 ! A126  A(44,40,79)           122.7656         estimate D2E/DX2                !
 ! A127  A(40,41,45)           119.9469         estimate D2E/DX2                !
 ! A128  A(40,41,80)           109.1428         estimate D2E/DX2                !
 ! A129  A(45,41,80)           121.3524         estimate D2E/DX2                !
 ! A130  A(38,42,46)           118.8319         estimate D2E/DX2                !
 ! A131  A(38,42,80)           119.7781         estimate D2E/DX2                !
 ! A132  A(46,42,80)           115.5841         estimate D2E/DX2                !
 ! A133  A(2,43,13)            109.787          estimate D2E/DX2                !
 ! A134  A(2,43,39)            124.2364         estimate D2E/DX2                !
 ! A135  A(13,43,39)           120.6872         estimate D2E/DX2                !
 ! A136  A(2,44,40)            117.4942         estimate D2E/DX2                !
 ! A137  A(2,44,47)            119.9947         estimate D2E/DX2                !
 ! A138  A(40,44,47)           119.0161         estimate D2E/DX2                !
 ! A139  A(4,45,41)            116.8991         estimate D2E/DX2                !
 ! A140  A(4,45,48)            117.6548         estimate D2E/DX2                !
 ! A141  A(41,45,48)           117.8001         estimate D2E/DX2                !
 ! A142  A(4,46,14)            107.7373         estimate D2E/DX2                !
 ! A143  A(4,46,42)            122.3097         estimate D2E/DX2                !
 ! A144  A(14,46,42)           121.1688         estimate D2E/DX2                !
 ! A145  A(44,47,48)           120.4166         estimate D2E/DX2                !
 ! A146  A(44,47,49)           124.8463         estimate D2E/DX2                !
 ! A147  A(48,47,49)           109.3615         estimate D2E/DX2                !
 ! A148  A(45,48,47)           121.6031         estimate D2E/DX2                !
 ! A149  A(45,48,50)           121.0593         estimate D2E/DX2                !
 ! A150  A(47,48,50)           109.0785         estimate D2E/DX2                !
 ! A151  A(10,49,47)           111.1697         estimate D2E/DX2                !
 ! A152  A(10,49,56)           110.371          estimate D2E/DX2                !
 ! A153  A(10,49,87)           109.8696         estimate D2E/DX2                !
 ! A154  A(47,49,56)           101.163          estimate D2E/DX2                !
 ! A155  A(47,49,87)           111.3735         estimate D2E/DX2                !
 ! A156  A(56,49,87)           112.6585         estimate D2E/DX2                !
 ! A157  A(11,50,48)           121.5528         estimate D2E/DX2                !
 ! A158  A(11,50,56)           122.214          estimate D2E/DX2                !
 ! A159  A(48,50,56)           108.0859         estimate D2E/DX2                !
 ! A160  A(10,51,19)           119.8424         estimate D2E/DX2                !
 ! A161  A(10,51,53)           121.7555         estimate D2E/DX2                !
 ! A162  A(19,51,53)           116.5144         estimate D2E/DX2                !
 ! A163  A(11,52,20)           120.073          estimate D2E/DX2                !
 ! A164  A(11,52,54)           116.1938         estimate D2E/DX2                !
 ! A165  A(20,52,54)           118.7704         estimate D2E/DX2                !
 ! A166  A(51,53,55)           110.3563         estimate D2E/DX2                !
 ! A167  A(51,53,83)           111.2018         estimate D2E/DX2                !
 ! A168  A(51,53,86)           109.7862         estimate D2E/DX2                !
 ! A169  A(55,53,83)           101.4578         estimate D2E/DX2                !
 ! A170  A(55,53,86)           112.5937         estimate D2E/DX2                !
 ! A171  A(83,53,86)           111.2346         estimate D2E/DX2                !
 ! A172  A(52,54,55)           123.6424         estimate D2E/DX2                !
 ! A173  A(52,54,84)           121.4943         estimate D2E/DX2                !
 ! A174  A(55,54,84)           106.7893         estimate D2E/DX2                !
 ! A175  A(53,55,54)           111.1209         estimate D2E/DX2                !
 ! A176  A(53,55,56)           122.8528         estimate D2E/DX2                !
 ! A177  A(54,55,56)           119.6954         estimate D2E/DX2                !
 ! A178  A(49,56,50)           110.8915         estimate D2E/DX2                !
 ! A179  A(49,56,55)           123.619          estimate D2E/DX2                !
 ! A180  A(50,56,55)           119.1587         estimate D2E/DX2                !
 ! A181  A(21,57,59)           120.5435         estimate D2E/DX2                !
 ! A182  A(21,57,83)           117.0343         estimate D2E/DX2                !
 ! A183  A(59,57,83)           119.7351         estimate D2E/DX2                !
 ! A184  A(22,58,60)           109.9435         estimate D2E/DX2                !
 ! A185  A(22,58,84)           120.0243         estimate D2E/DX2                !
 ! A186  A(60,58,84)           119.4727         estimate D2E/DX2                !
 ! A187  A(57,59,60)           119.3856         estimate D2E/DX2                !
 ! A188  A(57,59,61)           120.2641         estimate D2E/DX2                !
 ! A189  A(60,59,61)           114.3649         estimate D2E/DX2                !
 ! A190  A(58,60,59)           119.771          estimate D2E/DX2                !
 ! A191  A(58,60,62)           107.6202         estimate D2E/DX2                !
 ! A192  A(59,60,62)           122.8353         estimate D2E/DX2                !
 ! A193  A(25,61,59)           119.5235         estimate D2E/DX2                !
 ! A194  A(25,61,63)           107.0366         estimate D2E/DX2                !
 ! A195  A(59,61,63)           122.2546         estimate D2E/DX2                !
 ! A196  A(24,62,60)           106.8378         estimate D2E/DX2                !
 ! A197  A(24,62,64)           120.7491         estimate D2E/DX2                !
 ! A198  A(60,62,64)           121.8284         estimate D2E/DX2                !
 ! A199  A(61,63,64)           122.8709         estimate D2E/DX2                !
 ! A200  A(61,63,65)           108.5948         estimate D2E/DX2                !
 ! A201  A(64,63,65)           120.1182         estimate D2E/DX2                !
 ! A202  A(62,64,63)           114.6028         estimate D2E/DX2                !
 ! A203  A(62,64,66)           120.4103         estimate D2E/DX2                !
 ! A204  A(63,64,66)           119.0566         estimate D2E/DX2                !
 ! A205  A(27,65,63)           108.2388         estimate D2E/DX2                !
 ! A206  A(27,65,67)           122.1651         estimate D2E/DX2                !
 ! A207  A(63,65,67)           121.9139         estimate D2E/DX2                !
 ! A208  A(28,66,64)           116.6534         estimate D2E/DX2                !
 ! A209  A(28,66,68)           117.7469         estimate D2E/DX2                !
 ! A210  A(64,66,68)           120.4652         estimate D2E/DX2                !
 ! A211  A(65,67,68)           119.029          estimate D2E/DX2                !
 ! A212  A(65,67,69)           115.0949         estimate D2E/DX2                !
 ! A213  A(68,67,69)           120.116          estimate D2E/DX2                !
 ! A214  A(66,68,67)           119.2943         estimate D2E/DX2                !
 ! A215  A(66,68,70)           118.5991         estimate D2E/DX2                !
 ! A216  A(67,68,70)           116.7119         estimate D2E/DX2                !
 ! A217  A(31,69,67)           121.3197         estimate D2E/DX2                !
 ! A218  A(31,69,71)           107.2574         estimate D2E/DX2                !
 ! A219  A(67,69,71)           121.2386         estimate D2E/DX2                !
 ! A220  A(32,70,68)           121.4885         estimate D2E/DX2                !
 ! A221  A(32,70,72)           106.055          estimate D2E/DX2                !
 ! A222  A(68,70,72)           122.4557         estimate D2E/DX2                !
 ! A223  A(69,71,72)           119.1387         estimate D2E/DX2                !
 ! A224  A(69,71,73)           108.1604         estimate D2E/DX2                !
 ! A225  A(72,71,73)           120.3021         estimate D2E/DX2                !
 ! A226  A(70,72,71)           120.198          estimate D2E/DX2                !
 ! A227  A(70,72,74)           108.2799         estimate D2E/DX2                !
 ! A228  A(71,72,74)           119.6296         estimate D2E/DX2                !
 ! A229  A(33,73,71)           108.1623         estimate D2E/DX2                !
 ! A230  A(33,73,75)           119.1823         estimate D2E/DX2                !
 ! A231  A(71,73,75)           120.2305         estimate D2E/DX2                !
 ! A232  A(34,74,72)           108.7455         estimate D2E/DX2                !
 ! A233  A(34,74,76)           119.088          estimate D2E/DX2                !
 ! A234  A(72,74,76)           120.3076         estimate D2E/DX2                !
 ! A235  A(73,75,76)           119.5902         estimate D2E/DX2                !
 ! A236  A(73,75,77)           119.6048         estimate D2E/DX2                !
 ! A237  A(76,75,77)           108.7481         estimate D2E/DX2                !
 ! A238  A(74,76,75)           119.9099         estimate D2E/DX2                !
 ! A239  A(74,76,78)           119.5309         estimate D2E/DX2                !
 ! A240  A(75,76,78)           108.5931         estimate D2E/DX2                !
 ! A241  A(37,77,75)           122.4832         estimate D2E/DX2                !
 ! A242  A(37,77,81)           120.8766         estimate D2E/DX2                !
 ! A243  A(75,77,81)           106.1293         estimate D2E/DX2                !
 ! A244  A(38,78,76)           122.5208         estimate D2E/DX2                !
 ! A245  A(38,78,81)           121.2183         estimate D2E/DX2                !
 ! A246  A(76,78,81)           105.9353         estimate D2E/DX2                !
 ! A247  A(39,79,40)           121.0363         estimate D2E/DX2                !
 ! A248  A(39,79,82)           119.8383         estimate D2E/DX2                !
 ! A249  A(40,79,82)           106.5651         estimate D2E/DX2                !
 ! A250  A(41,80,42)           122.0477         estimate D2E/DX2                !
 ! A251  A(41,80,82)           105.8171         estimate D2E/DX2                !
 ! A252  A(42,80,82)           120.6815         estimate D2E/DX2                !
 ! A253  A(77,81,78)           109.5279         estimate D2E/DX2                !
 ! A254  A(77,81,82)           120.4772         estimate D2E/DX2                !
 ! A255  A(78,81,82)           120.3998         estimate D2E/DX2                !
 ! A256  A(79,82,80)           109.9817         estimate D2E/DX2                !
 ! A257  A(79,82,81)           120.0572         estimate D2E/DX2                !
 ! A258  A(80,82,81)           119.5979         estimate D2E/DX2                !
 ! A259  A(53,83,57)           126.343          estimate D2E/DX2                !
 ! A260  A(53,83,84)           108.1036         estimate D2E/DX2                !
 ! A261  A(57,83,84)           120.3423         estimate D2E/DX2                !
 ! A262  A(54,84,58)           119.4005         estimate D2E/DX2                !
 ! A263  A(54,84,83)           110.3072         estimate D2E/DX2                !
 ! A264  A(58,84,83)           121.063          estimate D2E/DX2                !
 ! D1    D(17,1,5,9)             4.1723         estimate D2E/DX2                !
 ! D2    D(17,1,5,29)         -149.8041         estimate D2E/DX2                !
 ! D3    D(23,1,5,9)           146.4621         estimate D2E/DX2                !
 ! D4    D(23,1,5,29)           -7.5143         estimate D2E/DX2                !
 ! D5    D(5,1,17,15)           -5.9267         estimate D2E/DX2                !
 ! D6    D(5,1,17,19)          141.6744         estimate D2E/DX2                !
 ! D7    D(23,1,17,15)        -153.8566         estimate D2E/DX2                !
 ! D8    D(23,1,17,19)          -6.2556         estimate D2E/DX2                !
 ! D9    D(5,1,23,21)         -149.6995         estimate D2E/DX2                !
 ! D10   D(5,1,23,25)            1.503          estimate D2E/DX2                !
 ! D11   D(17,1,23,21)          -2.7522         estimate D2E/DX2                !
 ! D12   D(17,1,23,25)         148.4503         estimate D2E/DX2                !
 ! D13   D(43,2,6,10)         -136.3743         estimate D2E/DX2                !
 ! D14   D(43,2,6,15)           16.6887         estimate D2E/DX2                !
 ! D15   D(44,2,6,10)          -16.8426         estimate D2E/DX2                !
 ! D16   D(44,2,6,15)          136.2204         estimate D2E/DX2                !
 ! D17   D(88,2,6,10)          106.3432         estimate D2E/DX2                !
 ! D18   D(88,2,6,15)         -100.5937         estimate D2E/DX2                !
 ! D19   D(6,2,43,13)          -13.3047         estimate D2E/DX2                !
 ! D20   D(6,2,43,39)          140.9698         estimate D2E/DX2                !
 ! D21   D(44,2,43,13)        -131.7737         estimate D2E/DX2                !
 ! D22   D(44,2,43,39)          22.5007         estimate D2E/DX2                !
 ! D23   D(88,2,43,13)         104.1523         estimate D2E/DX2                !
 ! D24   D(88,2,43,39)        -101.5733         estimate D2E/DX2                !
 ! D25   D(6,2,44,40)         -137.9523         estimate D2E/DX2                !
 ! D26   D(6,2,44,47)           20.7624         estimate D2E/DX2                !
 ! D27   D(43,2,44,40)         -24.9733         estimate D2E/DX2                !
 ! D28   D(43,2,44,47)         133.7414         estimate D2E/DX2                !
 ! D29   D(88,2,44,40)          98.9152         estimate D2E/DX2                !
 ! D30   D(88,2,44,47)        -102.3702         estimate D2E/DX2                !
 ! D31   D(18,3,7,12)            0.2767         estimate D2E/DX2                !
 ! D32   D(18,3,7,30)          145.158          estimate D2E/DX2                !
 ! D33   D(26,3,7,12)         -144.7533         estimate D2E/DX2                !
 ! D34   D(26,3,7,30)            0.1281         estimate D2E/DX2                !
 ! D35   D(7,3,18,16)            8.8467         estimate D2E/DX2                !
 ! D36   D(7,3,18,20)         -143.4835         estimate D2E/DX2                !
 ! D37   D(26,3,18,16)         149.4248         estimate D2E/DX2                !
 ! D38   D(26,3,18,20)          -2.9054         estimate D2E/DX2                !
 ! D39   D(7,3,26,24)          150.0725         estimate D2E/DX2                !
 ! D40   D(7,3,26,28)            5.2126         estimate D2E/DX2                !
 ! D41   D(18,3,26,24)           4.3863         estimate D2E/DX2                !
 ! D42   D(18,3,26,28)        -140.4736         estimate D2E/DX2                !
 ! D43   D(45,4,8,11)           -0.841          estimate D2E/DX2                !
 ! D44   D(45,4,8,16)         -148.3991         estimate D2E/DX2                !
 ! D45   D(46,4,8,11)          144.9174         estimate D2E/DX2                !
 ! D46   D(46,4,8,16)           -2.6407         estimate D2E/DX2                !
 ! D47   D(8,4,45,41)          145.1286         estimate D2E/DX2                !
 ! D48   D(8,4,45,48)           -3.7698         estimate D2E/DX2                !
 ! D49   D(46,4,45,41)           3.8077         estimate D2E/DX2                !
 ! D50   D(46,4,45,48)        -145.0907         estimate D2E/DX2                !
 ! D51   D(8,4,46,14)            2.4856         estimate D2E/DX2                !
 ! D52   D(8,4,46,42)         -145.2099         estimate D2E/DX2                !
 ! D53   D(45,4,46,14)         148.0383         estimate D2E/DX2                !
 ! D54   D(45,4,46,42)           0.3428         estimate D2E/DX2                !
 ! D55   D(1,5,9,13)             1.0172         estimate D2E/DX2                !
 ! D56   D(1,5,9,35)          -155.2399         estimate D2E/DX2                !
 ! D57   D(29,5,9,13)          154.0637         estimate D2E/DX2                !
 ! D58   D(29,5,9,35)           -2.1934         estimate D2E/DX2                !
 ! D59   D(1,5,29,27)            8.0811         estimate D2E/DX2                !
 ! D60   D(1,5,29,31)          159.5802         estimate D2E/DX2                !
 ! D61   D(9,5,29,27)         -145.8035         estimate D2E/DX2                !
 ! D62   D(9,5,29,31)            5.6956         estimate D2E/DX2                !
 ! D63   D(2,6,10,49)           -8.4703         estimate D2E/DX2                !
 ! D64   D(2,6,10,51)          155.6897         estimate D2E/DX2                !
 ! D65   D(15,6,10,49)        -158.5765         estimate D2E/DX2                !
 ! D66   D(15,6,10,51)           5.5836         estimate D2E/DX2                !
 ! D67   D(2,6,15,13)          -14.9726         estimate D2E/DX2                !
 ! D68   D(2,6,15,17)         -162.1541         estimate D2E/DX2                !
 ! D69   D(10,6,15,13)         140.3069         estimate D2E/DX2                !
 ! D70   D(10,6,15,17)          -6.8746         estimate D2E/DX2                !
 ! D71   D(3,7,12,14)           -9.2022         estimate D2E/DX2                !
 ! D72   D(3,7,12,36)          144.0096         estimate D2E/DX2                !
 ! D73   D(30,7,12,14)        -149.7514         estimate D2E/DX2                !
 ! D74   D(30,7,12,36)           3.4603         estimate D2E/DX2                !
 ! D75   D(3,7,30,28)           -5.4911         estimate D2E/DX2                !
 ! D76   D(3,7,30,32)         -150.6197         estimate D2E/DX2                !
 ! D77   D(12,7,30,28)         140.3529         estimate D2E/DX2                !
 ! D78   D(12,7,30,32)          -4.7756         estimate D2E/DX2                !
 ! D79   D(4,8,11,50)            7.0472         estimate D2E/DX2                !
 ! D80   D(4,8,11,52)         -146.272          estimate D2E/DX2                !
 ! D81   D(16,8,11,50)         150.4613         estimate D2E/DX2                !
 ! D82   D(16,8,11,52)          -2.8579         estimate D2E/DX2                !
 ! D83   D(4,8,16,14)            1.7766         estimate D2E/DX2                !
 ! D84   D(4,8,16,18)          150.8295         estimate D2E/DX2                !
 ! D85   D(11,8,16,14)        -146.1635         estimate D2E/DX2                !
 ! D86   D(11,8,16,18)           2.8895         estimate D2E/DX2                !
 ! D87   D(5,9,13,15)           -4.5454         estimate D2E/DX2                !
 ! D88   D(5,9,13,43)         -150.2326         estimate D2E/DX2                !
 ! D89   D(35,9,13,15)         152.8567         estimate D2E/DX2                !
 ! D90   D(35,9,13,43)           7.1695         estimate D2E/DX2                !
 ! D91   D(5,9,35,33)           -6.3183         estimate D2E/DX2                !
 ! D92   D(5,9,35,37)          149.5872         estimate D2E/DX2                !
 ! D93   D(13,9,35,33)        -162.9808         estimate D2E/DX2                !
 ! D94   D(13,9,35,37)          -7.0753         estimate D2E/DX2                !
 ! D95   D(6,10,49,47)          27.9737         estimate D2E/DX2                !
 ! D96   D(6,10,49,56)         139.3974         estimate D2E/DX2                !
 ! D97   D(6,10,49,87)         -95.7726         estimate D2E/DX2                !
 ! D98   D(51,10,49,47)       -135.9254         estimate D2E/DX2                !
 ! D99   D(51,10,49,56)        -24.5017         estimate D2E/DX2                !
 ! D100  D(51,10,49,87)        100.3283         estimate D2E/DX2                !
 ! D101  D(6,10,51,19)           0.733          estimate D2E/DX2                !
 ! D102  D(6,10,51,53)        -163.0813         estimate D2E/DX2                !
 ! D103  D(49,10,51,19)        164.2803         estimate D2E/DX2                !
 ! D104  D(49,10,51,53)          0.4659         estimate D2E/DX2                !
 ! D105  D(8,11,50,48)          -8.8911         estimate D2E/DX2                !
 ! D106  D(8,11,50,56)        -153.726          estimate D2E/DX2                !
 ! D107  D(52,11,50,48)        144.4392         estimate D2E/DX2                !
 ! D108  D(52,11,50,56)         -0.3956         estimate D2E/DX2                !
 ! D109  D(8,11,52,20)           0.8349         estimate D2E/DX2                !
 ! D110  D(8,11,52,54)         155.6138         estimate D2E/DX2                !
 ! D111  D(50,11,52,20)       -151.7945         estimate D2E/DX2                !
 ! D112  D(50,11,52,54)          2.9844         estimate D2E/DX2                !
 ! D113  D(7,12,14,16)           9.032          estimate D2E/DX2                !
 ! D114  D(7,12,14,46)         153.9941         estimate D2E/DX2                !
 ! D115  D(36,12,14,16)       -144.6672         estimate D2E/DX2                !
 ! D116  D(36,12,14,46)          0.2949         estimate D2E/DX2                !
 ! D117  D(7,12,36,34)           3.6608         estimate D2E/DX2                !
 ! D118  D(7,12,36,38)        -150.507          estimate D2E/DX2                !
 ! D119  D(14,12,36,34)        155.7497         estimate D2E/DX2                !
 ! D120  D(14,12,36,38)          1.5819         estimate D2E/DX2                !
 ! D121  D(9,13,15,6)         -144.3323         estimate D2E/DX2                !
 ! D122  D(9,13,15,17)           2.9            estimate D2E/DX2                !
 ! D123  D(43,13,15,6)           6.2327         estimate D2E/DX2                !
 ! D124  D(43,13,15,17)        153.465          estimate D2E/DX2                !
 ! D125  D(9,13,43,2)          154.8127         estimate D2E/DX2                !
 ! D126  D(9,13,43,39)          -0.5242         estimate D2E/DX2                !
 ! D127  D(15,13,43,2)           5.0947         estimate D2E/DX2                !
 ! D128  D(15,13,43,39)       -150.2422         estimate D2E/DX2                !
 ! D129  D(12,14,16,8)         148.697          estimate D2E/DX2                !
 ! D130  D(12,14,16,18)          0.0952         estimate D2E/DX2                !
 ! D131  D(46,14,16,8)          -0.2407         estimate D2E/DX2                !
 ! D132  D(46,14,16,18)       -148.8424         estimate D2E/DX2                !
 ! D133  D(12,14,46,4)        -150.7022         estimate D2E/DX2                !
 ! D134  D(12,14,46,42)         -2.5643         estimate D2E/DX2                !
 ! D135  D(16,14,46,4)          -1.3877         estimate D2E/DX2                !
 ! D136  D(16,14,46,42)        146.7502         estimate D2E/DX2                !
 ! D137  D(6,15,17,1)          146.5209         estimate D2E/DX2                !
 ! D138  D(6,15,17,19)           1.7901         estimate D2E/DX2                !
 ! D139  D(13,15,17,1)           2.3658         estimate D2E/DX2                !
 ! D140  D(13,15,17,19)       -142.3651         estimate D2E/DX2                !
 ! D141  D(8,16,18,3)         -153.6177         estimate D2E/DX2                !
 ! D142  D(8,16,18,20)          -0.7808         estimate D2E/DX2                !
 ! D143  D(14,16,18,3)          -9.0596         estimate D2E/DX2                !
 ! D144  D(14,16,18,20)        143.7772         estimate D2E/DX2                !
 ! D145  D(1,17,19,21)          12.7024         estimate D2E/DX2                !
 ! D146  D(1,17,19,51)        -142.9093         estimate D2E/DX2                !
 ! D147  D(15,17,19,21)        160.1609         estimate D2E/DX2                !
 ! D148  D(15,17,19,51)          4.5492         estimate D2E/DX2                !
 ! D149  D(3,18,20,22)          -3.4893         estimate D2E/DX2                !
 ! D150  D(3,18,20,52)         150.0323         estimate D2E/DX2                !
 ! D151  D(16,18,20,22)       -154.7337         estimate D2E/DX2                !
 ! D152  D(16,18,20,52)         -1.2121         estimate D2E/DX2                !
 ! D153  D(17,19,21,23)        -13.1107         estimate D2E/DX2                !
 ! D154  D(17,19,21,57)       -132.3214         estimate D2E/DX2                !
 ! D155  D(17,19,21,85)        104.9942         estimate D2E/DX2                !
 ! D156  D(51,19,21,23)        140.3804         estimate D2E/DX2                !
 ! D157  D(51,19,21,57)         21.1697         estimate D2E/DX2                !
 ! D158  D(51,19,21,85)       -101.5147         estimate D2E/DX2                !
 ! D159  D(17,19,51,10)         -5.7843         estimate D2E/DX2                !
 ! D160  D(17,19,51,53)        158.8557         estimate D2E/DX2                !
 ! D161  D(21,19,51,10)       -156.5339         estimate D2E/DX2                !
 ! D162  D(21,19,51,53)          8.1062         estimate D2E/DX2                !
 ! D163  D(18,20,22,24)          8.5995         estimate D2E/DX2                !
 ! D164  D(18,20,22,58)        147.0914         estimate D2E/DX2                !
 ! D165  D(52,20,22,24)       -145.3834         estimate D2E/DX2                !
 ! D166  D(52,20,22,58)         -6.8915         estimate D2E/DX2                !
 ! D167  D(18,20,52,11)          1.1961         estimate D2E/DX2                !
 ! D168  D(18,20,52,54)       -152.9423         estimate D2E/DX2                !
 ! D169  D(22,20,52,11)        154.4209         estimate D2E/DX2                !
 ! D170  D(22,20,52,54)          0.2826         estimate D2E/DX2                !
 ! D171  D(19,21,23,1)           9.6914         estimate D2E/DX2                !
 ! D172  D(19,21,23,25)       -140.4951         estimate D2E/DX2                !
 ! D173  D(57,21,23,1)         128.2689         estimate D2E/DX2                !
 ! D174  D(57,21,23,25)        -21.9175         estimate D2E/DX2                !
 ! D175  D(85,21,23,1)        -108.3158         estimate D2E/DX2                !
 ! D176  D(85,21,23,25)        101.4978         estimate D2E/DX2                !
 ! D177  D(19,21,57,59)        133.923          estimate D2E/DX2                !
 ! D178  D(19,21,57,83)        -27.4548         estimate D2E/DX2                !
 ! D179  D(23,21,57,59)         21.4064         estimate D2E/DX2                !
 ! D180  D(23,21,57,83)       -139.9714         estimate D2E/DX2                !
 ! D181  D(85,21,57,59)       -102.7303         estimate D2E/DX2                !
 ! D182  D(85,21,57,83)         95.892          estimate D2E/DX2                !
 ! D183  D(20,22,24,26)         -7.3774         estimate D2E/DX2                !
 ! D184  D(20,22,24,62)        136.5557         estimate D2E/DX2                !
 ! D185  D(58,22,24,26)       -151.5645         estimate D2E/DX2                !
 ! D186  D(58,22,24,62)         -7.6314         estimate D2E/DX2                !
 ! D187  D(20,22,58,60)       -137.3933         estimate D2E/DX2                !
 ! D188  D(20,22,58,84)          7.1164         estimate D2E/DX2                !
 ! D189  D(24,22,58,60)          6.8509         estimate D2E/DX2                !
 ! D190  D(24,22,58,84)        151.3607         estimate D2E/DX2                !
 ! D191  D(1,23,25,27)           4.0249         estimate D2E/DX2                !
 ! D192  D(1,23,25,61)        -137.0587         estimate D2E/DX2                !
 ! D193  D(21,23,25,27)        151.9442         estimate D2E/DX2                !
 ! D194  D(21,23,25,61)         10.8606         estimate D2E/DX2                !
 ! D195  D(22,24,26,3)           0.62           estimate D2E/DX2                !
 ! D196  D(22,24,26,28)        141.6355         estimate D2E/DX2                !
 ! D197  D(62,24,26,3)        -140.0051         estimate D2E/DX2                !
 ! D198  D(62,24,26,28)          1.0105         estimate D2E/DX2                !
 ! D199  D(22,24,62,60)          5.5843         estimate D2E/DX2                !
 ! D200  D(22,24,62,64)       -139.6185         estimate D2E/DX2                !
 ! D201  D(26,24,62,60)        150.0881         estimate D2E/DX2                !
 ! D202  D(26,24,62,64)          4.8853         estimate D2E/DX2                !
 ! D203  D(23,25,27,29)         -3.2292         estimate D2E/DX2                !
 ! D204  D(23,25,27,65)       -148.9992         estimate D2E/DX2                !
 ! D205  D(61,25,27,29)        142.284          estimate D2E/DX2                !
 ! D206  D(61,25,27,65)         -3.4861         estimate D2E/DX2                !
 ! D207  D(23,25,61,59)          2.3976         estimate D2E/DX2                !
 ! D208  D(23,25,61,63)        146.9854         estimate D2E/DX2                !
 ! D209  D(27,25,61,59)       -142.3821         estimate D2E/DX2                !
 ! D210  D(27,25,61,63)          2.2057         estimate D2E/DX2                !
 ! D211  D(3,26,28,30)          -8.393          estimate D2E/DX2                !
 ! D212  D(3,26,28,66)         136.2351         estimate D2E/DX2                !
 ! D213  D(24,26,28,30)       -152.8102         estimate D2E/DX2                !
 ! D214  D(24,26,28,66)         -8.1821         estimate D2E/DX2                !
 ! D215  D(25,27,29,5)          -3.0936         estimate D2E/DX2                !
 ! D216  D(25,27,29,31)       -155.4109         estimate D2E/DX2                !
 ! D217  D(65,27,29,5)         137.9244         estimate D2E/DX2                !
 ! D218  D(65,27,29,31)        -14.3929         estimate D2E/DX2                !
 ! D219  D(25,27,65,63)          3.418          estimate D2E/DX2                !
 ! D220  D(25,27,65,67)        153.2739         estimate D2E/DX2                !
 ! D221  D(29,27,65,63)       -142.2878         estimate D2E/DX2                !
 ! D222  D(29,27,65,67)          7.5681         estimate D2E/DX2                !
 ! D223  D(26,28,30,7)           8.4969         estimate D2E/DX2                !
 ! D224  D(26,28,30,32)        153.4697         estimate D2E/DX2                !
 ! D225  D(66,28,30,7)        -136.1788         estimate D2E/DX2                !
 ! D226  D(66,28,30,32)          8.794          estimate D2E/DX2                !
 ! D227  D(26,28,66,64)          8.8878         estimate D2E/DX2                !
 ! D228  D(26,28,66,68)       -145.9422         estimate D2E/DX2                !
 ! D229  D(30,28,66,64)        147.7885         estimate D2E/DX2                !
 ! D230  D(30,28,66,68)         -7.0415         estimate D2E/DX2                !
 ! D231  D(5,29,31,33)          -0.6698         estimate D2E/DX2                !
 ! D232  D(5,29,31,69)        -146.3104         estimate D2E/DX2                !
 ! D233  D(27,29,31,33)        152.0153         estimate D2E/DX2                !
 ! D234  D(27,29,31,69)          6.3747         estimate D2E/DX2                !
 ! D235  D(7,30,32,34)          -1.1117         estimate D2E/DX2                !
 ! D236  D(7,30,32,70)         140.5048         estimate D2E/DX2                !
 ! D237  D(28,30,32,34)       -142.7458         estimate D2E/DX2                !
 ! D238  D(28,30,32,70)         -1.1293         estimate D2E/DX2                !
 ! D239  D(29,31,33,35)         -8.3082         estimate D2E/DX2                !
 ! D240  D(29,31,33,73)       -155.7717         estimate D2E/DX2                !
 ! D241  D(69,31,33,35)        141.2171         estimate D2E/DX2                !
 ! D242  D(69,31,33,73)         -6.2463         estimate D2E/DX2                !
 ! D243  D(29,31,69,67)          8.9239         estimate D2E/DX2                !
 ! D244  D(29,31,69,71)        154.4825         estimate D2E/DX2                !
 ! D245  D(33,31,69,67)       -140.4321         estimate D2E/DX2                !
 ! D246  D(33,31,69,71)          5.1265         estimate D2E/DX2                !
 ! D247  D(30,32,34,36)          8.6176         estimate D2E/DX2                !
 ! D248  D(30,32,34,74)        154.5063         estimate D2E/DX2                !
 ! D249  D(70,32,34,36)       -136.131          estimate D2E/DX2                !
 ! D250  D(70,32,34,74)          9.7577         estimate D2E/DX2                !
 ! D251  D(30,32,70,68)         -8.0964         estimate D2E/DX2                !
 ! D252  D(30,32,70,72)       -154.3117         estimate D2E/DX2                !
 ! D253  D(34,32,70,68)        137.1414         estimate D2E/DX2                !
 ! D254  D(34,32,70,72)         -9.0739         estimate D2E/DX2                !
 ! D255  D(31,33,35,9)          11.4978         estimate D2E/DX2                !
 ! D256  D(31,33,35,37)       -144.8796         estimate D2E/DX2                !
 ! D257  D(73,33,35,9)         154.0186         estimate D2E/DX2                !
 ! D258  D(73,33,35,37)         -2.3588         estimate D2E/DX2                !
 ! D259  D(31,33,73,71)          4.9185         estimate D2E/DX2                !
 ! D260  D(31,33,73,75)        147.1157         estimate D2E/DX2                !
 ! D261  D(35,33,73,71)       -142.158          estimate D2E/DX2                !
 ! D262  D(35,33,73,75)          0.0392         estimate D2E/DX2                !
 ! D263  D(32,34,36,12)         -9.6421         estimate D2E/DX2                !
 ! D264  D(32,34,36,38)        144.8878         estimate D2E/DX2                !
 ! D265  D(74,34,36,12)       -149.9371         estimate D2E/DX2                !
 ! D266  D(74,34,36,38)          4.5928         estimate D2E/DX2                !
 ! D267  D(32,34,74,72)         -6.5401         estimate D2E/DX2                !
 ! D268  D(32,34,74,76)       -149.5388         estimate D2E/DX2                !
 ! D269  D(36,34,74,72)        138.9319         estimate D2E/DX2                !
 ! D270  D(36,34,74,76)         -4.0667         estimate D2E/DX2                !
 ! D271  D(9,35,37,39)           0.8072         estimate D2E/DX2                !
 ! D272  D(9,35,37,77)        -153.7311         estimate D2E/DX2                !
 ! D273  D(33,35,37,39)        156.3909         estimate D2E/DX2                !
 ! D274  D(33,35,37,77)          1.8526         estimate D2E/DX2                !
 ! D275  D(12,36,38,42)         -1.2912         estimate D2E/DX2                !
 ! D276  D(12,36,38,78)        153.0554         estimate D2E/DX2                !
 ! D277  D(34,36,38,42)       -155.1172         estimate D2E/DX2                !
 ! D278  D(34,36,38,78)         -0.7706         estimate D2E/DX2                !
 ! D279  D(35,37,39,43)          5.9105         estimate D2E/DX2                !
 ! D280  D(35,37,39,79)       -147.2646         estimate D2E/DX2                !
 ! D281  D(77,37,39,43)        160.652          estimate D2E/DX2                !
 ! D282  D(77,37,39,79)          7.4769         estimate D2E/DX2                !
 ! D283  D(35,37,77,75)          0.8844         estimate D2E/DX2                !
 ! D284  D(35,37,77,81)        140.7373         estimate D2E/DX2                !
 ! D285  D(39,37,77,75)       -154.3914         estimate D2E/DX2                !
 ! D286  D(39,37,77,81)        -14.5385         estimate D2E/DX2                !
 ! D287  D(36,38,42,46)         -0.8959         estimate D2E/DX2                !
 ! D288  D(36,38,42,80)        151.1004         estimate D2E/DX2                !
 ! D289  D(78,38,42,46)       -155.4351         estimate D2E/DX2                !
 ! D290  D(78,38,42,80)         -3.4388         estimate D2E/DX2                !
 ! D291  D(36,38,78,76)         -3.5751         estimate D2E/DX2                !
 ! D292  D(36,38,78,81)       -143.6737         estimate D2E/DX2                !
 ! D293  D(42,38,78,76)        151.495          estimate D2E/DX2                !
 ! D294  D(42,38,78,81)         11.3963         estimate D2E/DX2                !
 ! D295  D(37,39,43,2)        -157.7638         estimate D2E/DX2                !
 ! D296  D(37,39,43,13)         -6.1193         estimate D2E/DX2                !
 ! D297  D(79,39,43,2)          -3.6225         estimate D2E/DX2                !
 ! D298  D(79,39,43,13)        148.022          estimate D2E/DX2                !
 ! D299  D(37,39,79,40)        140.2415         estimate D2E/DX2                !
 ! D300  D(37,39,79,82)          3.4612         estimate D2E/DX2                !
 ! D301  D(43,39,79,40)        -13.4432         estimate D2E/DX2                !
 ! D302  D(43,39,79,82)       -150.2236         estimate D2E/DX2                !
 ! D303  D(44,40,41,45)         -2.6958         estimate D2E/DX2                !
 ! D304  D(44,40,41,80)       -149.3739         estimate D2E/DX2                !
 ! D305  D(79,40,41,45)        146.5986         estimate D2E/DX2                !
 ! D306  D(79,40,41,80)         -0.0795         estimate D2E/DX2                !
 ! D307  D(41,40,44,2)         155.6292         estimate D2E/DX2                !
 ! D308  D(41,40,44,47)         -3.3001         estimate D2E/DX2                !
 ! D309  D(79,40,44,2)          10.852          estimate D2E/DX2                !
 ! D310  D(79,40,44,47)       -148.0773         estimate D2E/DX2                !
 ! D311  D(41,40,79,39)       -138.5677         estimate D2E/DX2                !
 ! D312  D(41,40,79,82)          3.1354         estimate D2E/DX2                !
 ! D313  D(44,40,79,39)          9.9942         estimate D2E/DX2                !
 ! D314  D(44,40,79,82)        151.6973         estimate D2E/DX2                !
 ! D315  D(40,41,45,4)        -143.7835         estimate D2E/DX2                !
 ! D316  D(40,41,45,48)          5.0688         estimate D2E/DX2                !
 ! D317  D(80,41,45,4)          -1.2069         estimate D2E/DX2                !
 ! D318  D(80,41,45,48)        147.6454         estimate D2E/DX2                !
 ! D319  D(40,41,80,42)        140.425          estimate D2E/DX2                !
 ! D320  D(40,41,80,82)         -2.9972         estimate D2E/DX2                !
 ! D321  D(45,41,80,42)         -5.6997         estimate D2E/DX2                !
 ! D322  D(45,41,80,82)       -149.1219         estimate D2E/DX2                !
 ! D323  D(38,42,46,4)         146.3041         estimate D2E/DX2                !
 ! D324  D(38,42,46,14)          2.8087         estimate D2E/DX2                !
 ! D325  D(80,42,46,4)          -6.8347         estimate D2E/DX2                !
 ! D326  D(80,42,46,14)       -150.33           estimate D2E/DX2                !
 ! D327  D(38,42,80,41)       -143.4045         estimate D2E/DX2                !
 ! D328  D(38,42,80,82)         -5.2153         estimate D2E/DX2                !
 ! D329  D(46,42,80,41)          9.4637         estimate D2E/DX2                !
 ! D330  D(46,42,80,82)        147.6529         estimate D2E/DX2                !
 ! D331  D(2,44,47,48)        -151.7197         estimate D2E/DX2                !
 ! D332  D(2,44,47,49)          -0.4162         estimate D2E/DX2                !
 ! D333  D(40,44,47,48)          6.6737         estimate D2E/DX2                !
 ! D334  D(40,44,47,49)        157.9771         estimate D2E/DX2                !
 ! D335  D(4,45,48,47)         146.8678         estimate D2E/DX2                !
 ! D336  D(4,45,48,50)           1.9258         estimate D2E/DX2                !
[...]
 Alpha virt. eigenvalues --    1.17993   1.18157   1.18457   1.18891   1.19076
 Alpha virt. eigenvalues --    1.19186   1.19456   1.19766   1.20320   1.20676
 Alpha virt. eigenvalues --    1.20856   1.21093   1.21475   1.21660   1.22117
 Alpha virt. eigenvalues --    1.22193   1.22482   1.22696   1.22994   1.23297
 Alpha virt. eigenvalues --    1.23626   1.23922   1.24143   1.24710   1.24911
 Alpha virt. eigenvalues --    1.25499   1.25556   1.25895   1.26149   1.26340
 Alpha virt. eigenvalues --    1.26608   1.26926   1.27099   1.27157   1.27942
 Alpha virt. eigenvalues --    1.27988   1.28202   1.28614   1.28735   1.28857
 Alpha virt. eigenvalues --    1.29491   1.29745   1.30270   1.30325   1.30540
 Alpha virt. eigenvalues --    1.31060   1.31609   1.31778   1.31935   1.32713
 Alpha virt. eigenvalues --    1.32837   1.33462   1.33880   1.34280   1.34784
 Alpha virt. eigenvalues --    1.34943   1.35324   1.35777   1.35825   1.36511
 Alpha virt. eigenvalues --    1.37192   1.37588   1.37910   1.38269   1.38535
 Alpha virt. eigenvalues --    1.39321   1.39983   1.40129   1.40403   1.40792
 Alpha virt. eigenvalues --    1.41610   1.42017   1.42256   1.43459   1.44146
 Alpha virt. eigenvalues --    1.44541   1.45031   1.45321   1.45754   1.46568
 Alpha virt. eigenvalues --    1.47226   1.47697   1.48124   1.48238   1.49058
 Alpha virt. eigenvalues --    1.49654   1.49852   1.50644   1.51152   1.51734
 Alpha virt. eigenvalues --    1.52476   1.52710   1.53167   1.53685   1.54183
 Alpha virt. eigenvalues --    1.54750   1.55017   1.55400   1.56225   1.56531
 Alpha virt. eigenvalues --    1.57315   1.57529   1.57878   1.58341   1.59111
 Alpha virt. eigenvalues --    1.59424   1.59577   1.60628   1.60892   1.61409
 Alpha virt. eigenvalues --    1.61737   1.62140   1.62659   1.62963   1.63405
 Alpha virt. eigenvalues --    1.63905   1.64142   1.64603   1.64951   1.65150
 Alpha virt. eigenvalues --    1.65341   1.65561   1.65917   1.66478   1.66661
 Alpha virt. eigenvalues --    1.66818   1.67074   1.67300   1.67991   1.68095
 Alpha virt. eigenvalues --    1.68524   1.68653   1.68951   1.69032   1.69144
 Alpha virt. eigenvalues --    1.69416   1.69745   1.70001   1.70170   1.70535
 Alpha virt. eigenvalues --    1.70761   1.71059   1.71281   1.71564   1.71669
 Alpha virt. eigenvalues --    1.71770   1.72210   1.72275   1.72620   1.72816
 Alpha virt. eigenvalues --    1.73063   1.73201   1.73278   1.73613   1.73664
 Alpha virt. eigenvalues --    1.74068   1.74195   1.74407   1.74706   1.74917
 Alpha virt. eigenvalues --    1.75156   1.75543   1.75854   1.76099   1.76170
 Alpha virt. eigenvalues --    1.76278   1.76511   1.76876   1.77019   1.77155
 Alpha virt. eigenvalues --    1.77531   1.77729   1.77794   1.78298   1.78602
 Alpha virt. eigenvalues --    1.78655   1.78830   1.79579   1.80152   1.80328
 Alpha virt. eigenvalues --    1.80784   1.80847   1.81583   1.81943   1.82313
 Alpha virt. eigenvalues --    1.82891   1.82905   1.83303   1.83834   1.84222
 Alpha virt. eigenvalues --    1.85410   1.85479   1.85626   1.86138   1.86168
 Alpha virt. eigenvalues --    1.86717   1.87608   1.88622   1.88758   1.89254
 Alpha virt. eigenvalues --    1.90192   1.90409   1.90864   1.91050   1.91411
 Alpha virt. eigenvalues --    1.91968   1.92190   1.92563   1.92950   1.93479
 Alpha virt. eigenvalues --    1.93583   1.93691   1.94175   1.94802   1.95149
 Alpha virt. eigenvalues --    1.95206   1.95512   1.95878   1.96238   1.96770
 Alpha virt. eigenvalues --    1.96924   1.97193   1.97752   1.97943   1.98027
 Alpha virt. eigenvalues --    1.98058   1.98417   1.98495   1.98825   1.98982
 Alpha virt. eigenvalues --    1.99068   1.99813   1.99868   2.00177   2.00397
 Alpha virt. eigenvalues --    2.00643   2.00892   2.00918   2.01092   2.01368
 Alpha virt. eigenvalues --    2.01715   2.01965   2.02144   2.02315   2.02650
 Alpha virt. eigenvalues --    2.02783   2.03116   2.03196   2.03329   2.03599
 Alpha virt. eigenvalues --    2.03981   2.04144   2.04470   2.04798   2.05015
 Alpha virt. eigenvalues --    2.05453   2.05856   2.06337   2.06449   2.07070
 Alpha virt. eigenvalues --    2.07636   2.08046   2.08568   2.09066   2.09934
 Alpha virt. eigenvalues --    2.10004   2.10452   2.10731   2.11089   2.11420
 Alpha virt. eigenvalues --    2.12096   2.12485   2.12881   2.13182   2.13511
 Alpha virt. eigenvalues --    2.14505   2.14902   2.15257   2.15491   2.15821
 Alpha virt. eigenvalues --    2.16472   2.16971   2.17481   2.17672   2.18076
 Alpha virt. eigenvalues --    2.18458   2.18860   2.19246   2.19793   2.20159
 Alpha virt. eigenvalues --    2.20728   2.21395   2.21823   2.21965   2.22454
 Alpha virt. eigenvalues --    2.22697   2.22923   2.23343   2.23669   2.23997
 Alpha virt. eigenvalues --    2.24365   2.24554   2.24879   2.25596   2.26108
 Alpha virt. eigenvalues --    2.26327   2.26693   2.27021   2.27658   2.28057
 Alpha virt. eigenvalues --    2.28098   2.28498   2.28879   2.29146   2.29569
 Alpha virt. eigenvalues --    2.29662   2.30490   2.31136   2.31269   2.31596
 Alpha virt. eigenvalues --    2.31789   2.32651   2.32849   2.33286   2.34202
 Alpha virt. eigenvalues --    2.34360   2.35445   2.36143   2.36755   2.37551
 Alpha virt. eigenvalues --    2.38023   2.38438   2.38808   2.39363   2.39696
 Alpha virt. eigenvalues --    2.40302   2.41112   2.41322   2.42077   2.42644
 Alpha virt. eigenvalues --    2.43358   2.43503   2.43966   2.44118   2.44473
 Alpha virt. eigenvalues --    2.44835   2.45338   2.45592   2.46218   2.47496
 Alpha virt. eigenvalues --    2.48248   2.49626   2.50219   2.50473   2.51016
 Alpha virt. eigenvalues --    2.51417   2.51921   2.52144   2.52408   2.52939
 Alpha virt. eigenvalues --    2.53426   2.53644   2.53843   2.54684   2.55027
 Alpha virt. eigenvalues --    2.55673   2.55980   2.56116   2.56568   2.56702
 Alpha virt. eigenvalues --    2.56895   2.57150   2.57504   2.57867   2.58338
 Alpha virt. eigenvalues --    2.58466   2.58570   2.58757   2.59167   2.59410
 Alpha virt. eigenvalues --    2.59482   2.59749   2.60299   2.60454   2.60916
 Alpha virt. eigenvalues --    2.61041   2.61275   2.61546   2.62286   2.62490
 Alpha virt. eigenvalues --    2.62637   2.63243   2.63339   2.63596   2.63914
 Alpha virt. eigenvalues --    2.64325   2.64685   2.64989   2.65188   2.65536
 Alpha virt. eigenvalues --    2.65872   2.66398   2.66473   2.66986   2.67093
 Alpha virt. eigenvalues --    2.67752   2.68327   2.68746   2.68844   2.69601
 Alpha virt. eigenvalues --    2.69926   2.70272   2.70618   2.70925   2.71621
 Alpha virt. eigenvalues --    2.72056   2.72707   2.72854   2.73270   2.73622
 Alpha virt. eigenvalues --    2.74273   2.74394   2.75039   2.75539   2.75773
 Alpha virt. eigenvalues --    2.76314   2.77416   2.77610   2.77840   2.78763
 Alpha virt. eigenvalues --    2.78918   2.79753   2.79860   2.80510   2.81038
 Alpha virt. eigenvalues --    2.81099   2.81571   2.81908   2.82277   2.82899
 Alpha virt. eigenvalues --    2.83448   2.83751   2.83991   2.84101   2.84654
 Alpha virt. eigenvalues --    2.85230   2.85376   2.85977   2.86387   2.86929
 Alpha virt. eigenvalues --    2.87870   2.88020   2.88394   2.89170   2.89435
 Alpha virt. eigenvalues --    2.89909   2.90174   2.90734   2.91340   2.91401
 Alpha virt. eigenvalues --    2.91652   2.92186   2.92501   2.92774   2.93172
 Alpha virt. eigenvalues --    2.93409   2.94300   2.94721   2.95766   2.96150
 Alpha virt. eigenvalues --    2.96589   2.97548   2.97913   2.98843   2.99789
 Alpha virt. eigenvalues --    3.00800   3.01215   3.01889   3.03037   3.03337
 Alpha virt. eigenvalues --    3.04034   3.05040   3.07997   3.09964   3.10139
 Alpha virt. eigenvalues --    3.11161   3.12621   3.13522   3.16009   3.16436
 Alpha virt. eigenvalues --    3.17637   3.19183   3.20284   3.21405   3.24709
 Alpha virt. eigenvalues --    3.26025   3.27306   3.28413   3.29475   3.31377
 Alpha virt. eigenvalues --    3.32805   3.33899   3.35503   3.36305   3.38581
 Alpha virt. eigenvalues --    3.40300   3.42178   3.43808   3.45024   3.45440
 Alpha virt. eigenvalues --    3.47997   3.49468   3.52241   3.54415   3.55848
 Alpha virt. eigenvalues --    3.56332   3.60598   4.00912   4.01256   4.01265
 Alpha virt. eigenvalues --    4.01959   4.03656   4.03931   4.04418   4.04914
 Alpha virt. eigenvalues --    4.05230   4.06504   4.06549   4.06751   4.07231
 Alpha virt. eigenvalues --    4.07604   4.08270   4.09168   4.10593   4.10844
 Alpha virt. eigenvalues --    4.11316   4.11838   4.12279   4.12985   4.13254
 Alpha virt. eigenvalues --    4.15192   4.15911   4.17322   4.17453   4.19231
 Alpha virt. eigenvalues --    4.19493   4.19913   4.20803   4.21412   4.22025
 Alpha virt. eigenvalues --    4.22290   4.23214   4.24901   4.26882   4.27322
 Alpha virt. eigenvalues --    4.28313   4.28513   4.28958   4.29715   4.30327
 Alpha virt. eigenvalues --    4.30949   4.31630   4.34084   4.34657   4.37816
 Alpha virt. eigenvalues --    4.38014   4.38228   4.39474   4.43266   4.44925
 Alpha virt. eigenvalues --    4.45283   4.46318   4.47051   4.49013   4.50631
 Alpha virt. eigenvalues --    4.51349   4.52583   4.53908   4.56219   4.56891
 Alpha virt. eigenvalues --    4.58222   4.59760   4.61996   4.63178   4.65344
 Alpha virt. eigenvalues --    4.67192   4.68426   4.69759   4.71617   4.79051
 Alpha virt. eigenvalues --    4.81539   4.82730   4.83304   4.85261   4.87582
 Alpha virt. eigenvalues --    4.92670   4.95642   5.00221   5.02161   5.05274
 Alpha virt. eigenvalues --    5.09153   5.16672   5.17108   5.21357   5.24585
          Condensed to atoms (all electrons):
 Mulliken charges:
               1
     1  C    0.010429
     2  C   -0.366970
     3  C   -0.024095
     4  C   -0.030426
     5  C    0.043958
     6  C    0.079959
     7  C   -0.021350
     8  C   -0.031475
     9  C    0.034717
    10  C    0.147624
    11  C    0.051300
    12  C    0.054960
    13  C    0.018896
    14  C   -0.030908
    15  C    0.009389
    16  C   -0.030610
    17  C    0.013915
    18  C    0.054400
    19  C    0.080978
    20  C    0.048175
    21  C   -0.362970
    22  C   -0.023176
    23  C    0.082186
    24  C   -0.013851
    25  C   -0.004902
    26  C   -0.010234
    27  C   -0.019860
    28  C   -0.019288
    29  C    0.049242
    30  C   -0.014805
    31  C   -0.032085
    32  C   -0.011180
    33  C   -0.020909
    34  C   -0.020971
    35  C    0.038541
    36  C    0.046061
    37  C    0.041666
    38  C    0.040929
    39  C    0.066025
    40  C    0.007628
    41  C   -0.027242
    42  C    0.065149
    43  C    0.045585
    44  C    0.150103
    45  C    0.065869
    46  C   -0.034729
    47  C    0.069274
    48  C    0.005929
    49  C   -0.377535
    50  C    0.007618
    51  C    0.146575
    52  C    0.037091
    53  C   -0.375879
    54  C    0.009008
    55  C    0.088372
    56  C    0.088785
    57  C    0.121860
    58  C   -0.019236
    59  C    0.085681
    60  C   -0.024692
    61  C   -0.041554
    62  C   -0.019978
    63  C   -0.020593
    64  C    0.050379
    65  C   -0.027243
    66  C    0.044917
    67  C    0.052948
    68  C    0.045568
    69  C   -0.021804
    70  C   -0.024535
    71  C   -0.010929
    72  C    0.007703
    73  C   -0.013206
    74  C   -0.008253
    75  C    0.002709
    76  C    0.000588
    77  C   -0.024262
    78  C   -0.019255
    79  C   -0.041719
    80  C   -0.025349
    81  C    0.005903
    82  C   -0.020358
    83  C    0.075383
    84  C    0.020033
    85  Cl  -0.013846
    86  Cl  -0.003211
    87  Cl  -0.005779
    88  Cl  -0.022755
 Sum of Mulliken charges =  -0.00000
 Mulliken charges with hydrogens summed into heavy atoms:
               1
     1  C    0.010429
     2  C   -0.366970
     3  C   -0.024095
     4  C   -0.030426
     5  C    0.043958
     6  C    0.079959
     7  C   -0.021350
     8  C   -0.031475
     9  C    0.034717
    10  C    0.147624
    11  C    0.051300
    12  C    0.054960
    13  C    0.018896
    14  C   -0.030908
    15  C    0.009389
    16  C   -0.030610
    17  C    0.013915
    18  C    0.054400
    19  C    0.080978
    20  C    0.048175
    21  C   -0.362970
    22  C   -0.023176
    23  C    0.082186
    24  C   -0.013851
    25  C   -0.004902
    26  C   -0.010234
    27  C   -0.019860
    28  C   -0.019288
    29  C    0.049242
    30  C   -0.014805
    31  C   -0.032085
    32  C   -0.011180
    33  C   -0.020909
    34  C   -0.020971
    35  C    0.038541
    36  C    0.046061
    37  C    0.041666
    38  C    0.040929
    39  C    0.066025
    40  C    0.007628
    41  C   -0.027242
    42  C    0.065149
    43  C    0.045585
    44  C    0.150103
    45  C    0.065869
    46  C   -0.034729
    47  C    0.069274
    48  C    0.005929
    49  C   -0.377535
    50  C    0.007618
    51  C    0.146575
    52  C    0.037091
    53  C   -0.375879
    54  C    0.009008
    55  C    0.088372
    56  C    0.088785
    57  C    0.121860
    58  C   -0.019236
    59  C    0.085681
    60  C   -0.024692
    61  C   -0.041554
    62  C   -0.019978
    63  C   -0.020593
    64  C    0.050379
    65  C   -0.027243
    66  C    0.044917
    67  C    0.052948
    68  C    0.045568
    69  C   -0.021804
    70  C   -0.024535
    71  C   -0.010929
    72  C    0.007703
    73  C   -0.013206
    74  C   -0.008253
    75  C    0.002709
    76  C    0.000588
    77  C   -0.024262
    78  C   -0.019255
    79  C   -0.041719
    80  C   -0.025349
    81  C    0.005903
    82  C   -0.020358
    83  C    0.075383
    84  C    0.020033
    85  Cl  -0.013846
    86  Cl  -0.003211
    87  Cl  -0.005779
    88  Cl  -0.022755
 Electronic spatial extent (au):  <R**2>=          42260.1113
 Charge=             -0.0000 electrons
 Dipole moment (field-independent basis, Debye):
    X=             -6.0303    Y=             -0.6187    Z=             -0.0505  Tot=              6.0621
 Quadrupole moment (field-independent basis, Debye-Ang):
   XX=           -527.3085   YY=           -516.3173   ZZ=           -502.4479
   XY=             -3.2108   XZ=              3.3745   YZ=             -1.5322
 Traceless Quadrupole moment (field-independent basis, Debye-Ang):
   XX=            -11.9506   YY=             -0.9594   ZZ=             12.9100
   XY=             -3.2108   XZ=              3.3745   YZ=             -1.5322
 Octapole moment (field-independent basis, Debye-Ang**2):
  XXX=            -41.1161  YYY=            -17.4210  ZZZ=            -17.3205  XYY=            -29.5537
  XXY=              6.2677  XXZ=             -9.9468  XZZ=             33.5865  YZZ=              2.4531
  YYZ=             18.1212  XYZ=             -1.0184
 Hexadecapole moment (field-independent basis, Debye-Ang**3):
 XXXX=         -25882.6214 YYYY=         -20140.9065 ZZZZ=         -16184.2701 XXXY=             -8.8618
 XXXZ=            -46.6097 YYYX=            -57.8737 YYYZ=             16.8342 ZZZX=             10.3339
 ZZZY=            -18.5306 XXYY=          -7751.8153 XXZZ=          -6986.3954 YYZZ=          -6071.9188
 XXYZ=            -20.7193 YYXZ=             86.3481 ZZXY=              4.5294
 N-N= 1.714276719620D+04 E-N=-4.606397113961D+04  KE= 5.006195349939D+03
 No NMR shielding tensors so no spin-rotation constants.
 Leave Link  601 at Tue Jun 28 20:44:05 2022, MaxMem=  1342177280 cpu:              22.7 elap:               1.2
 (Enter /home/mkliu/g16/l9999.exe)
 1\1\GINC-NODE05\FOpt\RB3LYP\6-31G(d,p)\C84Cl4\MKLIU\28-Jun-2022\0\\#P 
 opt b3lyp/6-31G(d, p) empiricaldispersion=GD3\\force\\0,1\C,8.53094385
 79,19.017410012,10.7907780841\C,12.639344267,20.047838786,8.8254330318
 \C,8.2776783057,26.8320167929,10.555213445\C,12.3261514417,25.54260809
 82,8.8949298574\C,8.0506475848,19.1741628347,9.4648912045\C,12.0712930
 018,19.7626579025,10.21143876\C,7.9678491145,26.8442656299,9.158702579
 4\C,11.851815646,25.9300091363,10.1932637609\C,9.0172152001,19.2617631
 456,8.3691354676\C,12.2964195428,20.5101133994,11.3557005567\C,12.0868
 500633,25.1412077918,11.3361587368\C,8.9633616145,26.6558280906,8.1650
 045154\C,10.3933015538,19.1703751942,8.6843522034\C,10.2977073926,26.6
 569409302,8.6337484601\C,10.8479263521,19.0750992765,10.0447678036\C,1
 0.6095048556,26.6453870921,10.0249303229\C,9.9300350582,19.0236045783,
 11.080060106\C,9.6037739204,26.6279654456,11.0224440624\C,10.196547320
 5,19.6929496556,12.3028896804\C,9.8367153304,25.8589135447,12.24660775
 42\C,8.8703988008,19.9055070913,13.0332914142\C,8.6961033489,25.409048
 8487,12.956952906\C,7.8689057895,19.5762420971,11.9320247251\C,7.36542
 16944,25.5295255222,12.4019741309\C,6.7077548152,20.2700723879,11.7720
 556245\C,7.1564409573,26.2214902967,11.239774097\C,6.1111714849,20.361
 23192,10.469182562\C,6.1988946007,25.7499125236,10.2644315375\C,6.7495
 92891,19.8022624665,9.3245716548\C,6.6563710857,26.2444829952,9.002949
 0646\C,6.4085097381,20.3740675224,8.0871066926\C,6.3408410803,25.58062
 55796,7.8451105666\C,7.3351723342,20.3720533064,6.9713482861\C,7.30775
 63406,25.487977532,6.7627929997\C,8.6766800387,19.9350489206,7.1266316
 457\C,8.6472225816,25.9209845573,6.9318003971\C,9.7187102613,20.608111
 5852,6.3517092549\C,9.7062196845,25.1786103826,6.2442507393\C,11.11018
 43704,20.5835394277,6.8171547204\C,12.8960378456,22.1697943042,7.51456
 83757\C,12.8685917624,23.6256838486,7.5149806208\C,11.0814450734,25.19
 45951383,6.7751275081\C,11.4113449141,19.8125534095,7.9316073355\C,13.
 1626068859,21.4524238072,8.7159917795\C,13.0632416207,24.3415425903,8.
 7217773986\C,11.3525929027,25.9578533173,7.9284719823\C,13.4730864959,
 22.1559328143,9.8565527038\C,13.3933210545,23.5964324722,9.8838036971\
 C,13.3303754439,21.6178344755,11.2766328138\C,12.9522851691,24.0087857
 466,11.1686713007\C,11.3269430868,20.4772079688,12.4284522689\C,11.081
 2315489,25.1041516083,12.3929294448\C,11.3023474475,21.5481855142,13.5
 038435741\C,11.0818741828,23.9563007387,13.2238436029\C,11.9522904694,
 22.8296968783,13.0133974294\C,12.8629660185,22.8553017052,12.012615481
 3\C,8.7222032304,21.3288492738,13.5357751481\C,8.7053229414,24.1749691
 063,13.6786487189\C,7.4684599277,22.057461399,13.3396038402\C,7.466572
 4621,23.4676067407,13.4536514508\C,6.4623900296,21.5180036247,12.48933
 41407\C,6.6331737571,24.3023805895,12.6390516605\C,5.680349482,22.3369
 81379,11.641292779\C,5.7858291269,23.7571899521,11.6390112244\C,5.4363
 05774,21.6152891687,10.3980149562\C,5.5731209332,24.4825980092,10.3863
 330655\C,5.2328578286,22.284060871,9.1735764629\C,5.2678043761,23.7513
 805363,9.1526473141\C,5.5875594519,21.547977979,8.0018296649\C,5.57214
 13657,24.3664773154,7.9114466207\C,5.9249705689,22.2166456735,6.776415
 5337\C,5.9202040681,23.5967566007,6.7352683641\C,6.9860098586,21.46839
 79265,6.1245921472\C,6.9768184595,24.3053422975,6.026232367\C,7.985920
 7052,22.1356609355,5.4313362028\C,7.9821565172,23.5975046603,5.3875616
 578\C,9.3315525095,21.684505234,5.5107221818\C,9.3305197239,24.0593875
 692,5.4602679627\C,11.9775099759,21.7110025264,6.5453524445\C,11.94225
 00839,24.074188487,6.5345947452\C,10.1716250534,22.8688741805,5.399422
 8708\C,11.4423894554,22.8829406347,5.8933029663\C,9.8768924933,22.0273
 54547,13.798757902\C,9.8790676935,23.4624823997,13.8175691309\Cl,8.690
 9998302,18.7038278413,14.4409957448\Cl,12.1125992689,20.9250638051,15.
 0492871895\Cl,14.9641849,21.0219915458,11.9207235969\Cl,13.976176998,1
 8.8148403171,8.4017973691\\Version=ES64L-G16RevA.03\State=1-A\HF=-5041
 .808976\RMSD=5.540e-09\RMSF=7.713e-05\Dipole=-1.6234879,1.1579316,-1.3
 083739\Quadrupole=-3.5383093,2.9869385,0.5513708,7.0941691,-0.7076854,
 6.1138237\PG=C01 [X(C84Cl4)]\\@


 YOU KNOW YOU'VE SPOKEN TOO LONG WHEN THE AUDIENCE STOPS LOOKING AT
 THEIR WATCHES AND STARTS SHAKING THEM.
 Job cpu time:       1 days  3 hours 40 minutes  9.3 seconds.
 Elapsed time:       0 days  1 hours  9 minutes 16.2 seconds.
 File lengths (MBytes):  RWF=   1098 Int=      0 D2E=      0 Chk=    138 Scr=      1
 Normal termination of Gaussian 16 at Tue Jun 28 20:44:07 2022.
