 Entering Gaussian System, Link 0=g16
 Input=4_addons_C84_11_mirror_Cl22_rank_1.gjf
 Output=4_addons_C84_11_mirror_Cl22_rank_1.log
 Initial command:
 /home/mkliu/g16/l1.exe "/data/scratch/Gau-192347.inp" -scrdir="/data/scratch/"
 Entering Link 1 = /home/mkliu/g16/l1.exe PID=    192348.
  
 Copyright (c) 1988,1990,1992,1993,1995,1998,2003,2009,2016,
            Gaussian, Inc.  All Rights Reserved.
  
 This is part of the Gaussian(R) 16 program.  It is based on
 the Gaussian(R) 09 system (copyright 2009, Gaussian, Inc.),
 the Gaussian(R) 03 system (copyright 2003, Gaussian, Inc.),
 the Gaussian(R) 98 system (copyright 1998, Gaussian, Inc.),
 the Gaussian(R) 94 system (copyright 1995, Gaussian, Inc.),
 the Gaussian 92(TM) system (copyright 1992, Gaussian, Inc.),
 the Gaussian 90(TM) system (copyright 1990, Gaussian, Inc.),
 the Gaussian 88(TM) system (copyright 1988, Gaussian, Inc.),
 the Gaussian 86(TM) system (copyright 1986, Carnegie Mellon
 University), and the Gaussian 82(TM) system (copyright 1983,
 Carnegie Mellon University). Gaussian is a federally registered
 trademark of Gaussian, Inc.
  
 This software contains proprietary and confidential information,
 including trade secrets, belonging to Gaussian, Inc.
  
 This software is provided under written license and may be
 used, copied, transmitted, or stored only in accord with that
 written license.
  
 The following legend is applicable only to US Government
 contracts under FAR:
  
                    RESTRICTED RIGHTS LEGEND
  
 Use, reproduction and disclosure by the US Government is
 subject to restrictions as set forth in subparagraphs (a)
 and (c) of the Commercial Computer Software - Restricted
 Rights clause in FAR 52.227-19.
  
 Gaussian, Inc.
 340 Quinnipiac St., Bldg. 40, Wallingford CT 06492
  
  
 ---------------------------------------------------------------
 Warning -- This program may not be used in any manner that
 competes with the business of Gaussian, Inc. or will provide
 assistance to any competitor of Gaussian, Inc.  The licensee
 of this program is prohibited from giving any competitor of
 Gaussian, Inc. access to this program.  By using this program,
 the user acknowledges that Gaussian, Inc. is engaged in the
 business of creating and licensing software in the field of
 computational chemistry and represents and warrants to the
 licensee that it is not a competitor of Gaussian, Inc. and that
 it will not use this program in any manner prohibited above.
 ---------------------------------------------------------------
  

 Cite this work as:
 Gaussian 16, Revision A.03,
 M. J. Frisch, G. W. Trucks, H. B. Schlegel, G. E. Scuseria, 
 M. A. Robb, J. R. Cheeseman, G. Scalmani, V. Barone, 
 G. A. Petersson, H. Nakatsuji, X. Li, M. Caricato, A. V. Marenich, 
 J. Bloino, B. G. Janesko, R. Gomperts, B. Mennucci, H. P. Hratchian, 
 J. V. Ortiz, A. F. Izmaylov, J. L. Sonnenberg, D. Williams-Young, 
 F. Ding, F. Lipparini, F. Egidi, J. Goings, B. Peng, A. Petrone, 
 T. Henderson, D. Ranasinghe, V. G. Zakrzewski, J. Gao, N. Rega, 
 G. Zheng, W. Liang, M. Hada, M. Ehara, K. Toyota, R. Fukuda, 
 J. Hasegawa, M. Ishida, T. Nakajima, Y. Honda, O. Kitao, H. Nakai, 
 T. Vreven, K. Throssell, J. A. Montgomery, Jr., J. E. Peralta, 
 F. Ogliaro, M. J. Bearpark, J. J. Heyd, E. N. Brothers, K. N. Kudin, 
 V. N. Staroverov, T. A. Keith, R. Kobayashi, J. Normand, 
 K. Raghavachari, A. P. Rendell, J. C. Burant, S. S. Iyengar, 
 J. Tomasi, M. Cossi, J. M. Millam, M. Klene, C. Adamo, R. Cammi, 
 J. W. Ochterski, R. L. Martin, K. Morokuma, O. Farkas, 
 J. B. Foresman, and D. J. Fox, Gaussian, Inc., Wallingford CT, 2016.
 
 ******************************************
 Gaussian 16:  ES64L-G16RevA.03 25-Dec-2016
                29-Jun-2022 
 ******************************************
 %mem=10GB
 %chk=4_addons_C84_11_mirror_Cl22_rank_1.chk
 %nprocshared=24
 Will use up to   24 processors via shared memory.
 ------------------------------------------------
 #P opt b3lyp/6-31G(d, p) empiricaldispersion=GD3
 ------------------------------------------------
 1/18=20,19=15,26=3,38=1/1,3;
 2/9=110,12=2,17=6,18=5,40=1/2;
 3/5=1,6=6,7=101,11=2,25=1,30=1,71=1,74=-5,124=31/1,2,3;
 4//1;
 5/5=2,38=5/2;
 6/7=2,8=2,9=2,10=2,28=1/1;
 7//1,2,3,16;
 1/18=20,19=15,26=3/3(2);
 2/9=110/2;
 99//99;
 2/9=110/2;
 3/5=1,6=6,7=101,11=2,25=1,30=1,71=1,74=-5,124=31/1,2,3;
 4/5=5,16=3,69=1/1;
 5/5=2,38=5/2;
 7//1,2,3,16;
 1/18=20,19=15,26=3/3(-5);
 2/9=110/2;
 6/7=2,8=2,9=2,10=2,19=2,28=1/1;
 99/9=1/99;
 Leave Link    1 at Wed Jun 29 19:15:33 2022, MaxMem=  1342177280 cpu:               1.6 elap:               0.1
 (Enter /home/mkliu/g16/l101.exe)
 -----
 force
 -----
 Symbolic Z-matrix:
 Charge =  0 Multiplicity = 1
 C                     8.53133   18.96076   10.77232 
 C                     12.4045   20.22306   8.8839 
 C                     8.29393   26.75579   10.55602 
 C                     12.49761   25.67003   8.87248 
 C                     8.05493   19.15109   9.46409 
 C                     12.04194   19.75566   10.18822 
 C                     7.99669   26.76654   9.1707 
 C                     11.82295   25.8347   10.21562 
 C                     9.01565   19.24913   8.37817 
 C                     12.27644   20.52111   11.34516 
 C                     12.04851   25.0771   11.34082 
 C                     8.97373   26.57858   8.16458 
 C                     10.37158   19.12544   8.69228 
 C                     10.3026   26.55137   8.62605 
 C                     10.83286   19.01031   10.04002 
 C                     10.59821   26.49299   10.02786 
 C                     9.9216    18.94783   11.07072 
 C                     9.60452   26.48109   11.01817 
 C                     10.16282   19.67669   12.28579 
 C                     9.85459   25.73536   12.20871 
 C                     8.89576   20.06442   12.81054 
 C                     8.6843    25.51087   13.15163 
 C                     7.89043   19.57344   11.91357 
 C                     7.37612   25.47896   12.40643 
 C                     6.71762   20.26674   11.75376 
 C                     7.17735   26.16244   11.24217 
 C                     6.12555   20.35615   10.45561 
 C                     6.23245   25.6938   10.26748 
 C                     6.76913   19.79787   9.32978 
 C                     6.69025   26.19396   9.01435 
 C                     6.43945   20.38238   8.10174 
 C                     6.37165   25.53841   7.8532 
 C                     7.35863   20.37507   6.99401 
 C                     7.32188   25.45332   6.7752 
 C                     8.68432   19.94065   7.1426 
 C                     8.65903   25.87304   6.94484 
 C                     9.71062   20.60306   6.36405 
 C                     9.70697   25.14107   6.26564 
 C                     11.0823   20.59338   6.82656 
 C                     12.85504   22.16152   7.54004 
 C                     12.84047   23.60019   7.54952 
 C                     11.06685   25.16297   6.78559 
 C                     11.39242   19.83127   7.96287 
 C                     13.09775   21.44188   8.72176 
 C                     13.0769   24.30039   8.74606 
 C                     11.34153   25.9221   7.92182 
 C                     13.40927   22.1777   9.88816 
 C                     13.40988   23.60015   9.883 
 C                     13.03007   21.71389   11.17472 
 C                     13.20367   24.10822   11.29397 
 C                     11.30827   20.48647   12.41638 
 C                     11.04409   25.03014   12.3535 
 C                     11.15585   21.63997   13.22345 
 C                     11.20751   24.0361   13.49412 
 C                     11.939    22.81078   13.02179 
 C                     12.85448   22.84165   12.01877 
 C                     8.71589   21.2883   13.49009 
 C                     8.71499   24.12401   13.72163 
 C                     7.48369   22.01628   13.31406 
 C                     7.51497   23.42415   13.41665 
 C                     6.49378   21.49536   12.45708 
 C                     6.69477   24.2559   12.59784 
 C                     5.70773   22.32344   11.60733 
 C                     5.82583   23.7208   11.60592 
 C                     5.45647   21.60993   10.38573 
 C                     5.60399   24.44251   10.37428 
 C                     5.25642   22.28049   9.16986 
 C                     5.29188   23.72808   9.15018 
 C                     5.62256   21.54573   8.01512 
 C                     5.59317   24.33977   7.91819 
 C                     5.94607   22.20679   6.78972 
 C                     5.93093   23.58296   6.74401 
 C                     7.00046   21.46702   6.14715 
 C                     6.98009   24.28288   6.03901 
 C                     7.98508   22.13083   5.44547 
 C                     7.9803    23.57781   5.39989 
 C                     9.3295    21.67976   5.53355 
 C                     9.32598   24.03447   5.47913 
 C                     11.92625   21.70167   6.57419 
 C                     11.92563   24.0469   6.56107 
 C                     10.15239   22.85528   5.40907 
 C                     11.41778   22.87247   5.92464 
 C                     9.89408   22.02705   13.75045 
 C                     9.87936   23.44459   13.87738 
 Cl                    8.70639   26.79188   14.42728 
 Cl                    12.03545   24.86082   14.86948 
 Cl                    14.69457   24.89583   11.94793 
 Cl                    13.78385   26.93064   8.64628 
 
 ITRead=  0  0  0  0  0  0  0  0  0  0  0  0  0  0  0  0  0  0  0  0
 ITRead=  0  0  0  0  0  0  0  0  0  0  0  0  0  0  0  0  0  0  0  0
 ITRead=  0  0  0  0  0  0  0  0  0  0  0  0  0  0  0  0  0  0  0  0
 ITRead=  0  0  0  0  0  0  0  0  0  0  0  0  0  0  0  0  0  0  0  0
 ITRead=  0  0  0  0  0  0  0  0
 MicOpt= -1 -1 -1 -1 -1 -1 -1 -1 -1 -1 -1 -1 -1 -1 -1 -1 -1 -1 -1 -1
 MicOpt= -1 -1 -1 -1 -1 -1 -1 -1 -1 -1 -1 -1 -1 -1 -1 -1 -1 -1 -1 -1
 MicOpt= -1 -1 -1 -1 -1 -1 -1 -1 -1 -1 -1 -1 -1 -1 -1 -1 -1 -1 -1 -1
 MicOpt= -1 -1 -1 -1 -1 -1 -1 -1 -1 -1 -1 -1 -1 -1 -1 -1 -1 -1 -1 -1
 MicOpt= -1 -1 -1 -1 -1 -1 -1 -1
 NAtoms=     88 NQM=       88 NQMF=       0 NMMI=      0 NMMIF=      0
                NMic=       0 NMicF=      0.
                    Isotopes and Nuclear Properties:
 (Nuclear quadrupole moments (NQMom) in fm**2, nuclear magnetic moments (NMagM)
  in nuclear magnetons)

  Atom         1           2           3           4           5           6           7           8           9          10
 IAtWgt=          12          12          12          12          12          12          12          12          12          12
 AtmWgt=  12.0000000  12.0000000  12.0000000  12.0000000  12.0000000  12.0000000  12.0000000  12.0000000  12.0000000  12.0000000
 NucSpn=           0           0           0           0           0           0           0           0           0           0
 AtZEff=  -0.0000000  -0.0000000  -0.0000000  -0.0000000  -0.0000000  -0.0000000  -0.0000000  -0.0000000  -0.0000000  -0.0000000
 NQMom=    0.0000000   0.0000000   0.0000000   0.0000000   0.0000000   0.0000000   0.0000000   0.0000000   0.0000000   0.0000000
 NMagM=    0.0000000   0.0000000   0.0000000   0.0000000   0.0000000   0.0000000   0.0000000   0.0000000   0.0000000   0.0000000
 AtZNuc=   6.0000000   6.0000000   6.0000000   6.0000000   6.0000000   6.0000000   6.0000000   6.0000000   6.0000000   6.0000000

  Atom        11          12          13          14          15          16          17          18          19          20
 IAtWgt=          12          12          12          12          12          12          12          12          12          12
 AtmWgt=  12.0000000  12.0000000  12.0000000  12.0000000  12.0000000  12.0000000  12.0000000  12.0000000  12.0000000  12.0000000
 NucSpn=           0           0           0           0           0           0           0           0           0           0
 AtZEff=  -0.0000000  -0.0000000  -0.0000000  -0.0000000  -0.0000000  -0.0000000  -0.0000000  -0.0000000  -0.0000000  -0.0000000
 NQMom=    0.0000000   0.0000000   0.0000000   0.0000000   0.0000000   0.0000000   0.0000000   0.0000000   0.0000000   0.0000000
 NMagM=    0.0000000   0.0000000   0.0000000   0.0000000   0.0000000   0.0000000   0.0000000   0.0000000   0.0000000   0.0000000
 AtZNuc=   6.0000000   6.0000000   6.0000000   6.0000000   6.0000000   6.0000000   6.0000000   6.0000000   6.0000000   6.0000000

  Atom        21          22          23          24          25          26          27          28          29          30
 IAtWgt=          12          12          12          12          12          12          12          12          12          12
 AtmWgt=  12.0000000  12.0000000  12.0000000  12.0000000  12.0000000  12.0000000  12.0000000  12.0000000  12.0000000  12.0000000
 NucSpn=           0           0           0           0           0           0           0           0           0           0
 AtZEff=  -0.0000000  -0.0000000  -0.0000000  -0.0000000  -0.0000000  -0.0000000  -0.0000000  -0.0000000  -0.0000000  -0.0000000
 NQMom=    0.0000000   0.0000000   0.0000000   0.0000000   0.0000000   0.0000000   0.0000000   0.0000000   0.0000000   0.0000000
 NMagM=    0.0000000   0.0000000   0.0000000   0.0000000   0.0000000   0.0000000   0.0000000   0.0000000   0.0000000   0.0000000
 AtZNuc=   6.0000000   6.0000000   6.0000000   6.0000000   6.0000000   6.0000000   6.0000000   6.0000000   6.0000000   6.0000000

  Atom        31          32          33          34          35          36          37          38          39          40
 IAtWgt=          12          12          12          12          12          12          12          12          12          12
 AtmWgt=  12.0000000  12.0000000  12.0000000  12.0000000  12.0000000  12.0000000  12.0000000  12.0000000  12.0000000  12.0000000
 NucSpn=           0           0           0           0           0           0           0           0           0           0
 AtZEff=  -0.0000000  -0.0000000  -0.0000000  -0.0000000  -0.0000000  -0.0000000  -0.0000000  -0.0000000  -0.0000000  -0.0000000
 NQMom=    0.0000000   0.0000000   0.0000000   0.0000000   0.0000000   0.0000000   0.0000000   0.0000000   0.0000000   0.0000000
 NMagM=    0.0000000   0.0000000   0.0000000   0.0000000   0.0000000   0.0000000   0.0000000   0.0000000   0.0000000   0.0000000
 AtZNuc=   6.0000000   6.0000000   6.0000000   6.0000000   6.0000000   6.0000000   6.0000000   6.0000000   6.0000000   6.0000000

  Atom        41          42          43          44          45          46          47          48          49          50
 IAtWgt=          12          12          12          12          12          12          12          12          12          12
 AtmWgt=  12.0000000  12.0000000  12.0000000  12.0000000  12.0000000  12.0000000  12.0000000  12.0000000  12.0000000  12.0000000
 NucSpn=           0           0           0           0           0           0           0           0           0           0
 AtZEff=  -0.0000000  -0.0000000  -0.0000000  -0.0000000  -0.0000000  -0.0000000  -0.0000000  -0.0000000  -0.0000000  -0.0000000
 NQMom=    0.0000000   0.0000000   0.0000000   0.0000000   0.0000000   0.0000000   0.0000000   0.0000000   0.0000000   0.0000000
 NMagM=    0.0000000   0.0000000   0.0000000   0.0000000   0.0000000   0.0000000   0.0000000   0.0000000   0.0000000   0.0000000
 AtZNuc=   6.0000000   6.0000000   6.0000000   6.0000000   6.0000000   6.0000000   6.0000000   6.0000000   6.0000000   6.0000000

  Atom        51          52          53          54          55          56          57          58          59          60
 IAtWgt=          12          12          12          12          12          12          12          12          12          12
 AtmWgt=  12.0000000  12.0000000  12.0000000  12.0000000  12.0000000  12.0000000  12.0000000  12.0000000  12.0000000  12.0000000
 NucSpn=           0           0           0           0           0           0           0           0           0           0
 AtZEff=  -0.0000000  -0.0000000  -0.0000000  -0.0000000  -0.0000000  -0.0000000  -0.0000000  -0.0000000  -0.0000000  -0.0000000
 NQMom=    0.0000000   0.0000000   0.0000000   0.0000000   0.0000000   0.0000000   0.0000000   0.0000000   0.0000000   0.0000000
 NMagM=    0.0000000   0.0000000   0.0000000   0.0000000   0.0000000   0.0000000   0.0000000   0.0000000   0.0000000   0.0000000
 AtZNuc=   6.0000000   6.0000000   6.0000000   6.0000000   6.0000000   6.0000000   6.0000000   6.0000000   6.0000000   6.0000000

  Atom        61          62          63          64          65          66          67          68          69          70
 IAtWgt=          12          12          12          12          12          12          12          12          12          12
 AtmWgt=  12.0000000  12.0000000  12.0000000  12.0000000  12.0000000  12.0000000  12.0000000  12.0000000  12.0000000  12.0000000
 NucSpn=           0           0           0           0           0           0           0           0           0           0
 AtZEff=  -0.0000000  -0.0000000  -0.0000000  -0.0000000  -0.0000000  -0.0000000  -0.0000000  -0.0000000  -0.0000000  -0.0000000
 NQMom=    0.0000000   0.0000000   0.0000000   0.0000000   0.0000000   0.0000000   0.0000000   0.0000000   0.0000000   0.0000000
 NMagM=    0.0000000   0.0000000   0.0000000   0.0000000   0.0000000   0.0000000   0.0000000   0.0000000   0.0000000   0.0000000
 AtZNuc=   6.0000000   6.0000000   6.0000000   6.0000000   6.0000000   6.0000000   6.0000000   6.0000000   6.0000000   6.0000000

  Atom        71          72          73          74          75          76          77          78          79          80
 IAtWgt=          12          12          12          12          12          12          12          12          12          12
 AtmWgt=  12.0000000  12.0000000  12.0000000  12.0000000  12.0000000  12.0000000  12.0000000  12.0000000  12.0000000  12.0000000
 NucSpn=           0           0           0           0           0           0           0           0           0           0
 AtZEff=  -0.0000000  -0.0000000  -0.0000000  -0.0000000  -0.0000000  -0.0000000  -0.0000000  -0.0000000  -0.0000000  -0.0000000
 NQMom=    0.0000000   0.0000000   0.0000000   0.0000000   0.0000000   0.0000000   0.0000000   0.0000000   0.0000000   0.0000000
 NMagM=    0.0000000   0.0000000   0.0000000   0.0000000   0.0000000   0.0000000   0.0000000   0.0000000   0.0000000   0.0000000
 AtZNuc=   6.0000000   6.0000000   6.0000000   6.0000000   6.0000000   6.0000000   6.0000000   6.0000000   6.0000000   6.0000000

  Atom        81          82          83          84          85          86          87          88
 IAtWgt=          12          12          12          12          35          35          35          35
 AtmWgt=  12.0000000  12.0000000  12.0000000  12.0000000  34.9688527  34.9688527  34.9688527  34.9688527
 NucSpn=           0           0           0           0           3           3           3           3
 AtZEff=  -0.0000000  -0.0000000  -0.0000000  -0.0000000  -0.0000000  -0.0000000  -0.0000000  -0.0000000
 NQMom=    0.0000000   0.0000000   0.0000000   0.0000000  -8.1650000  -8.1650000  -8.1650000  -8.1650000
 NMagM=    0.0000000   0.0000000   0.0000000   0.0000000   0.8218740   0.8218740   0.8218740   0.8218740
 AtZNuc=   6.0000000   6.0000000   6.0000000   6.0000000  17.0000000  17.0000000  17.0000000  17.0000000
 Leave Link  101 at Wed Jun 29 19:15:33 2022, MaxMem=  1342177280 cpu:               5.8 elap:               0.3
 (Enter /home/mkliu/g16/l103.exe)

 GradGradGradGradGradGradGradGradGradGradGradGradGradGradGradGradGradGrad
 Berny optimization.
 Initialization pass.
                           ----------------------------
                           !    Initial Parameters    !
                           ! (Angstroms and Degrees)  !
 --------------------------                            --------------------------
 ! Name  Definition              Value          Derivative Info.                !
 --------------------------------------------------------------------------------
 ! R1    R(1,5)                  1.4052         estimate D2E/DX2                !
 ! R2    R(1,17)                 1.422          estimate D2E/DX2                !
 ! R3    R(1,23)                 1.4452         estimate D2E/DX2                !
 ! R4    R(2,6)                  1.4322         estimate D2E/DX2                !
 ! R5    R(2,43)                 1.4234         estimate D2E/DX2                !
 ! R6    R(2,44)                 1.4115         estimate D2E/DX2                !
 ! R7    R(3,7)                  1.4169         estimate D2E/DX2                !
 ! R8    R(3,18)                 1.4166         estimate D2E/DX2                !
 ! R9    R(3,26)                 1.4386         estimate D2E/DX2                !
 ! R10   R(4,8)                  1.512          estimate D2E/DX2                !
 ! R11   R(4,45)                 1.4925         estimate D2E/DX2                !
 ! R12   R(4,46)                 1.5178         estimate D2E/DX2                !
 ! R13   R(4,88)                 1.8151         estimate D2E/DX2                !
 ! R14   R(5,9)                  1.4532         estimate D2E/DX2                !
 ! R15   R(5,29)                 1.4456         estimate D2E/DX2                !
 ! R16   R(6,10)                 1.4069         estimate D2E/DX2                !
 ! R17   R(6,15)                 1.4281         estimate D2E/DX2                !
 ! R18   R(7,12)                 1.415          estimate D2E/DX2                !
 ! R19   R(7,30)                 1.4349         estimate D2E/DX2                !
 ! R20   R(8,11)                 1.3751         estimate D2E/DX2                !
 ! R21   R(8,16)                 1.4031         estimate D2E/DX2                !
 ! R22   R(9,13)                 1.3973         estimate D2E/DX2                !
 ! R23   R(9,35)                 1.4542         estimate D2E/DX2                !
 ! R24   R(10,49)                1.4212         estimate D2E/DX2                !
 ! R25   R(10,51)                1.4443         estimate D2E/DX2                !
 ! R26   R(11,50)                1.5084         estimate D2E/DX2                !
 ! R27   R(11,52)                1.4271         estimate D2E/DX2                !
 ! R28   R(12,14)                1.407          estimate D2E/DX2                !
 ! R29   R(12,36)                1.4438         estimate D2E/DX2                !
 ! R30   R(13,15)                1.4291         estimate D2E/DX2                !
 ! R31   R(13,43)                1.4396         estimate D2E/DX2                !
 ! R32   R(14,16)                1.4338         estimate D2E/DX2                !
 ! R33   R(14,46)                1.404          estimate D2E/DX2                !
 ! R34   R(15,17)                1.3772         estimate D2E/DX2                !
 ! R35   R(16,18)                1.4029         estimate D2E/DX2                !
 ! R36   R(17,19)                1.4373         estimate D2E/DX2                !
 ! R37   R(18,20)                1.4269         estimate D2E/DX2                !
 ! R38   R(19,21)                1.4252         estimate D2E/DX2                !
 ! R39   R(19,51)                1.4088         estimate D2E/DX2                !
 ! R40   R(20,22)                1.5196         estimate D2E/DX2                !
 ! R41   R(20,52)                1.3904         estimate D2E/DX2                !
 ! R42   R(21,23)                1.434          estimate D2E/DX2                !
 ! R43   R(21,57)                1.4114         estimate D2E/DX2                !
 ! R44   R(22,24)                1.5059         estimate D2E/DX2                !
 ! R45   R(22,58)                1.4997         estimate D2E/DX2                !
 ! R46   R(22,85)                1.808          estimate D2E/DX2                !
 ! R47   R(23,25)                1.3717         estimate D2E/DX2                !
 ! R48   R(24,26)                1.3646         estimate D2E/DX2                !
 ! R49   R(24,62)                1.4131         estimate D2E/DX2                !
 ! R50   R(25,27)                1.4296         estimate D2E/DX2                !
 ! R51   R(25,61)                1.4333         estimate D2E/DX2                !
 ! R52   R(26,28)                1.4361         estimate D2E/DX2                !
 ! R53   R(27,29)                1.4119         estimate D2E/DX2                !
 ! R54   R(27,65)                1.4228         estimate D2E/DX2                !
 ! R55   R(28,30)                1.4248         estimate D2E/DX2                !
 ! R56   R(28,66)                1.4043         estimate D2E/DX2                !
 ! R57   R(29,31)                1.3994         estimate D2E/DX2                !
 ! R58   R(30,32)                1.371          estimate D2E/DX2                !
 ! R59   R(31,33)                1.4395         estimate D2E/DX2                !
 ! R60   R(31,69)                1.4241         estimate D2E/DX2                !
 ! R61   R(32,34)                1.4395         estimate D2E/DX2                !
 ! R62   R(32,70)                1.4307         estimate D2E/DX2                !
 ! R63   R(33,35)                1.4029         estimate D2E/DX2                !
 ! R64   R(33,73)                1.4275         estimate D2E/DX2                !
 ! R65   R(34,36)                1.4117         estimate D2E/DX2                !
 ! R66   R(34,74)                1.4243         estimate D2E/DX2                !
 ! R67   R(35,37)                1.4485         estimate D2E/DX2                !
 ! R68   R(36,38)                1.4475         estimate D2E/DX2                !
 ! R69   R(37,39)                1.4476         estimate D2E/DX2                !
 ! R70   R(37,77)                1.4122         estimate D2E/DX2                !
 ! R71   R(38,42)                1.4561         estimate D2E/DX2                !
 ! R72   R(38,78)                1.4101         estimate D2E/DX2                !
 ! R73   R(39,43)                1.4029         estimate D2E/DX2                !
 ! R74   R(39,79)                1.4157         estimate D2E/DX2                !
 ! R75   R(40,41)                1.4388         estimate D2E/DX2                !
 ! R76   R(40,44)                1.4047         estimate D2E/DX2                !
 ! R77   R(40,79)                1.4167         estimate D2E/DX2                !
 ! R78   R(41,45)                1.4064         estimate D2E/DX2                !
 ! R79   R(41,80)                1.419          estimate D2E/DX2                !
 ! R80   R(42,46)                1.3938         estimate D2E/DX2                !
 ! R81   R(42,80)                1.426          estimate D2E/DX2                !
 ! R82   R(44,47)                1.4138         estimate D2E/DX2                !
 ! R83   R(45,48)                1.3762         estimate D2E/DX2                !
 ! R84   R(47,48)                1.4225         estimate D2E/DX2                !
 ! R85   R(47,49)                1.4192         estimate D2E/DX2                !
 ! R86   R(48,50)                1.5138         estimate D2E/DX2                !
 ! R87   R(49,56)                1.4195         estimate D2E/DX2                !
 ! R88   R(50,56)                1.5005         estimate D2E/DX2                !
 ! R89   R(50,87)                1.8085         estimate D2E/DX2                !
 ! R90   R(51,53)                1.416          estimate D2E/DX2                !
 ! R91   R(52,54)                1.5218         estimate D2E/DX2                !
 ! R92   R(53,55)                1.423          estimate D2E/DX2                !
 ! R93   R(53,83)                1.4211         estimate D2E/DX2                !
 ! R94   R(54,55)                1.5032         estimate D2E/DX2                !
 ! R95   R(54,84)                1.5036         estimate D2E/DX2                !
 ! R96   R(54,86)                1.8048         estimate D2E/DX2                !
 ! R97   R(55,56)                1.3583         estimate D2E/DX2                !
 ! R98   R(57,59)                1.442          estimate D2E/DX2                !
 ! R99   R(57,83)                1.4148         estimate D2E/DX2                !
 ! R100  R(58,60)                1.4223         estimate D2E/DX2                !
 ! R101  R(58,84)                1.3571         estimate D2E/DX2                !
 ! R102  R(59,60)                1.412          estimate D2E/DX2                !
 ! R103  R(59,61)                1.4091         estimate D2E/DX2                !
 ! R104  R(60,62)                1.4265         estimate D2E/DX2                !
 ! R105  R(61,63)                1.4233         estimate D2E/DX2                !
 ! R106  R(62,64)                1.4231         estimate D2E/DX2                !
 ! R107  R(63,64)                1.4023         estimate D2E/DX2                !
 ! R108  R(63,65)                1.4369         estimate D2E/DX2                !
 ! R109  R(64,66)                1.4446         estimate D2E/DX2                !
 ! R110  R(65,67)                1.4029         estimate D2E/DX2                !
 ! R111  R(66,68)                1.4513         estimate D2E/DX2                !
 ! R112  R(67,68)                1.4482         estimate D2E/DX2                !
 ! R113  R(67,69)                1.4168         estimate D2E/DX2                !
 ! R114  R(68,70)                1.4081         estimate D2E/DX2                !
 ! R115  R(69,71)                1.4294         estimate D2E/DX2                !
 ! R116  R(70,72)                1.4372         estimate D2E/DX2                !
 ! R117  R(71,72)                1.377          estimate D2E/DX2                !
 ! R118  R(71,73)                1.4394         estimate D2E/DX2                !
 ! R119  R(72,74)                1.4449         estimate D2E/DX2                !
 ! R120  R(73,75)                1.3793         estimate D2E/DX2                !
 ! R121  R(74,76)                1.3806         estimate D2E/DX2                !
 ! R122  R(75,76)                1.4477         estimate D2E/DX2                !
 ! R123  R(75,77)                1.4208         estimate D2E/DX2                !
 ! R124  R(76,78)                1.4233         estimate D2E/DX2                !
 ! R125  R(77,81)                1.4403         estimate D2E/DX2                !
 ! R126  R(78,81)                1.4417         estimate D2E/DX2                !
 ! R127  R(79,82)                1.4322         estimate D2E/DX2                !
 ! R128  R(80,82)                1.4291         estimate D2E/DX2                !
 ! R129  R(81,82)                1.3665         estimate D2E/DX2                !
 ! R130  R(83,84)                1.4233         estimate D2E/DX2                !
 ! A1    A(5,1,17)             121.8739         estimate D2E/DX2                !
 ! A2    A(5,1,23)             121.8308         estimate D2E/DX2                !
 ! A3    A(17,1,23)            105.767          estimate D2E/DX2                !
 ! A4    A(6,2,43)             108.6299         estimate D2E/DX2                !
 ! A5    A(6,2,44)             120.7137         estimate D2E/DX2                !
 ! A6    A(43,2,44)            120.8343         estimate D2E/DX2                !
 ! A7    A(7,3,18)             120.9663         estimate D2E/DX2                !
 ! A8    A(7,3,26)             107.8557         estimate D2E/DX2                !
 ! A9    A(18,3,26)            118.849          estimate D2E/DX2                !
 ! A10   A(8,4,45)             110.3881         estimate D2E/DX2                !
 ! A11   A(8,4,46)             101.4454         estimate D2E/DX2                !
 ! A12   A(8,4,88)             110.5632         estimate D2E/DX2                !
 ! A13   A(45,4,46)            113.2652         estimate D2E/DX2                !
 ! A14   A(45,4,88)            110.5933         estimate D2E/DX2                !
 ! A15   A(46,4,88)            110.2633         estimate D2E/DX2                !
 ! A16   A(1,5,9)              118.73           estimate D2E/DX2                !
 ! A17   A(1,5,29)             116.6572         estimate D2E/DX2                !
 ! A18   A(9,5,29)             119.2375         estimate D2E/DX2                !
 ! A19   A(2,6,10)             121.9477         estimate D2E/DX2                !
 ! A20   A(2,6,15)             106.8675         estimate D2E/DX2                !
 ! A21   A(10,6,15)            120.6917         estimate D2E/DX2                !
 ! A22   A(3,7,12)             123.3212         estimate D2E/DX2                !
 ! A23   A(3,7,30)             107.128          estimate D2E/DX2                !
 ! A24   A(12,7,30)            119.8792         estimate D2E/DX2                !
 ! A25   A(4,8,11)             126.4179         estimate D2E/DX2                !
 ! A26   A(4,8,16)             108.7658         estimate D2E/DX2                !
 ! A27   A(11,8,16)            120.742          estimate D2E/DX2                !
 ! A28   A(5,9,13)             117.8768         estimate D2E/DX2                !
 ! A29   A(5,9,35)             121.089          estimate D2E/DX2                !
 ! A30   A(13,9,35)            117.0134         estimate D2E/DX2                !
 ! A31   A(6,10,49)            116.5128         estimate D2E/DX2                !
 ! A32   A(6,10,51)            119.02           estimate D2E/DX2                !
 ! A33   A(49,10,51)           117.6811         estimate D2E/DX2                !
 ! A34   A(8,11,50)            117.0055         estimate D2E/DX2                !
 ! A35   A(8,11,52)            118.9035         estimate D2E/DX2                !
 ! A36   A(50,11,52)           122.6768         estimate D2E/DX2                !
 ! A37   A(7,12,14)            114.9302         estimate D2E/DX2                !
 ! A38   A(7,12,36)            121.0043         estimate D2E/DX2                !
 ! A39   A(14,12,36)           118.2617         estimate D2E/DX2                !
 ! A40   A(9,13,15)            122.1632         estimate D2E/DX2                !
 ! A41   A(9,13,43)            122.0608         estimate D2E/DX2                !
 ! A42   A(15,13,43)           106.7647         estimate D2E/DX2                !
 ! A43   A(12,14,16)           121.0761         estimate D2E/DX2                !
 ! A44   A(12,14,46)           122.8908         estimate D2E/DX2                !
 ! A45   A(16,14,46)           108.637          estimate D2E/DX2                !
 ! A46   A(6,15,13)            109.2138         estimate D2E/DX2                !
 ! A47   A(6,15,17)            120.413          estimate D2E/DX2                !
 ! A48   A(13,15,17)           119.7266         estimate D2E/DX2                !
 ! A49   A(8,16,14)            109.2628         estimate D2E/DX2                !
 ! A50   A(8,16,18)            121.3204         estimate D2E/DX2                !
 ! A51   A(14,16,18)           122.9857         estimate D2E/DX2                !
 ! A52   A(1,17,15)            119.3053         estimate D2E/DX2                !
 ! A53   A(1,17,19)            109.6864         estimate D2E/DX2                !
 ! A54   A(15,17,19)           119.9099         estimate D2E/DX2                !
 ! A55   A(3,18,16)            115.0471         estimate D2E/DX2                !
 ! A56   A(3,18,20)            122.3904         estimate D2E/DX2                !
 ! A57   A(16,18,20)           117.9859         estimate D2E/DX2                !
 ! A58   A(17,19,21)           107.4591         estimate D2E/DX2                !
 ! A59   A(17,19,51)           120.4169         estimate D2E/DX2                !
 ! A60   A(21,19,51)           122.1632         estimate D2E/DX2                !
 ! A61   A(18,20,22)           117.3856         estimate D2E/DX2                !
 ! A62   A(18,20,52)           120.1257         estimate D2E/DX2                !
 ! A63   A(22,20,52)           121.2864         estimate D2E/DX2                !
 ! A64   A(19,21,23)           107.4473         estimate D2E/DX2                !
 ! A65   A(19,21,57)           121.769          estimate D2E/DX2                !
 ! A66   A(23,21,57)           120.5787         estimate D2E/DX2                !
 ! A67   A(20,22,24)           111.4136         estimate D2E/DX2                !
 ! A68   A(20,22,58)           110.8974         estimate D2E/DX2                !
 ! A69   A(20,22,85)           108.8894         estimate D2E/DX2                !
 ! A70   A(24,22,58)           100.7346         estimate D2E/DX2                !
 ! A71   A(24,22,85)           112.0109         estimate D2E/DX2                !
 ! A72   A(58,22,85)           112.7549         estimate D2E/DX2                !
 ! A73   A(1,23,21)            109.1597         estimate D2E/DX2                !
 ! A74   A(1,23,25)            120.0942         estimate D2E/DX2                !
 ! A75   A(21,23,25)           119.9491         estimate D2E/DX2                !
 ! A76   A(22,24,26)           122.5563         estimate D2E/DX2                !
 ! A77   A(22,24,62)           111.7272         estimate D2E/DX2                !
 ! A78   A(26,24,62)           118.6103         estimate D2E/DX2                !
 ! A79   A(23,25,27)           119.4389         estimate D2E/DX2                !
 ! A80   A(23,25,61)           120.6374         estimate D2E/DX2                !
 ! A81   A(27,25,61)           109.1049         estimate D2E/DX2                !
 ! A82   A(3,26,24)            120.0295         estimate D2E/DX2                !
 ! A83   A(3,26,28)            108.7573         estimate D2E/DX2                !
 ! A84   A(24,26,28)           120.7598         estimate D2E/DX2                !
 ! A85   A(25,27,29)           120.7021         estimate D2E/DX2                !
 ! A86   A(25,27,65)           107.1254         estimate D2E/DX2                !
 ! A87   A(29,27,65)           121.5752         estimate D2E/DX2                !
 ! A88   A(26,28,30)           105.7211         estimate D2E/DX2                !
 ! A89   A(26,28,66)           122.2485         estimate D2E/DX2                !
 ! A90   A(30,28,66)           121.5651         estimate D2E/DX2                !
 ! A91   A(5,29,27)            120.5499         estimate D2E/DX2                !
 ! A92   A(5,29,31)            118.5518         estimate D2E/DX2                !
 ! A93   A(27,29,31)           115.2903         estimate D2E/DX2                !
 ! A94   A(7,30,28)            109.6803         estimate D2E/DX2                !
 ! A95   A(7,30,32)            119.6479         estimate D2E/DX2                !
 ! A96   A(28,30,32)           120.1577         estimate D2E/DX2                !
 ! A97   A(29,31,33)           121.5164         estimate D2E/DX2                !
 ! A98   A(29,31,69)           121.9842         estimate D2E/DX2                !
 ! A99   A(33,31,69)           108.8823         estimate D2E/DX2                !
 ! A100  A(30,32,34)           120.6051         estimate D2E/DX2                !
 ! A101  A(30,32,70)           119.2475         estimate D2E/DX2                !
 ! A102  A(34,32,70)           110.0999         estimate D2E/DX2                !
 ! A103  A(31,33,35)           121.5652         estimate D2E/DX2                !
 ! A104  A(31,33,73)           107.0031         estimate D2E/DX2                !
 ! A105  A(35,33,73)           122.4646         estimate D2E/DX2                !
 ! A106  A(32,34,36)           121.176          estimate D2E/DX2                !
 ! A107  A(32,34,74)           106.095          estimate D2E/DX2                !
 ! A108  A(36,34,74)           122.257          estimate D2E/DX2                !
 ! A109  A(9,35,33)            116.9073         estimate D2E/DX2                !
 ! A110  A(9,35,37)            120.8443         estimate D2E/DX2                !
 ! A111  A(33,35,37)           118.0976         estimate D2E/DX2                !
 ! A112  A(12,36,34)           116.9527         estimate D2E/DX2                !
 ! A113  A(12,36,38)           119.0588         estimate D2E/DX2                !
 ! A114  A(34,36,38)           118.6202         estimate D2E/DX2                !
 ! A115  A(35,37,39)           119.7742         estimate D2E/DX2                !
 ! A116  A(35,37,77)           118.2636         estimate D2E/DX2                !
 ! A117  A(39,37,77)           116.6621         estimate D2E/DX2                !
 ! A118  A(36,38,42)           120.065          estimate D2E/DX2                !
 ! A119  A(36,38,78)           117.5778         estimate D2E/DX2                !
 ! A120  A(42,38,78)           117.6025         estimate D2E/DX2                !
 ! A121  A(37,39,43)           118.1559         estimate D2E/DX2                !
 ! A122  A(37,39,79)           120.1775         estimate D2E/DX2                !
 ! A123  A(43,39,79)           115.9691         estimate D2E/DX2                !
 ! A124  A(41,40,44)           120.5613         estimate D2E/DX2                !
 ! A125  A(41,40,79)           108.8099         estimate D2E/DX2                !
 ! A126  A(44,40,79)           121.3674         estimate D2E/DX2                !
 ! A127  A(40,41,45)           120.1158         estimate D2E/DX2                !
 ! A128  A(40,41,80)           108.4648         estimate D2E/DX2                !
 ! A129  A(45,41,80)           122.9774         estimate D2E/DX2                !
 ! A130  A(38,42,46)           118.904          estimate D2E/DX2                !
 ! A131  A(38,42,80)           119.633          estimate D2E/DX2                !
 ! A132  A(46,42,80)           115.8447         estimate D2E/DX2                !
 ! A133  A(2,43,13)            108.1383         estimate D2E/DX2                !
 ! A134  A(2,43,39)            122.1225         estimate D2E/DX2                !
 ! A135  A(13,43,39)           121.3321         estimate D2E/DX2                !
 ! A136  A(2,44,40)            117.009          estimate D2E/DX2                !
 ! A137  A(2,44,47)            117.57           estimate D2E/DX2                !
 ! A138  A(40,44,47)           117.7408         estimate D2E/DX2                !
 ! A139  A(4,45,41)            117.6273         estimate D2E/DX2                !
 ! A140  A(4,45,48)            119.3989         estimate D2E/DX2                !
 ! A141  A(41,45,48)           119.356          estimate D2E/DX2                !
 ! A142  A(4,46,14)            108.898          estimate D2E/DX2                !
 ! A143  A(4,46,42)            124.7659         estimate D2E/DX2                !
 ! A144  A(14,46,42)           120.4747         estimate D2E/DX2                !
 ! A145  A(44,47,48)           121.1665         estimate D2E/DX2                !
 ! A146  A(44,47,49)           121.2602         estimate D2E/DX2                !
 ! A147  A(48,47,49)           109.2819         estimate D2E/DX2                !
 ! A148  A(45,48,47)           120.779          estimate D2E/DX2                !
 ! A149  A(45,48,50)           124.4935         estimate D2E/DX2                !
 ! A150  A(47,48,50)           109.4016         estimate D2E/DX2                !
 ! A151  A(10,49,47)           121.6477         estimate D2E/DX2                !
 ! A152  A(10,49,56)           121.9971         estimate D2E/DX2                !
 ! A153  A(47,49,56)           108.206          estimate D2E/DX2                !
 ! A154  A(11,50,48)           110.4174         estimate D2E/DX2                !
 ! A155  A(11,50,56)           110.4237         estimate D2E/DX2                !
 ! A156  A(11,50,87)           109.8986         estimate D2E/DX2                !
 ! A157  A(48,50,56)           101.4567         estimate D2E/DX2                !
 ! A158  A(48,50,87)           111.7717         estimate D2E/DX2                !
 ! A159  A(56,50,87)           112.6304         estimate D2E/DX2                !
 ! A160  A(10,51,19)           119.3434         estimate D2E/DX2                !
 ! A161  A(10,51,53)           118.3808         estimate D2E/DX2                !
 ! A162  A(19,51,53)           115.6919         estimate D2E/DX2                !
 ! A163  A(11,52,20)           120.7664         estimate D2E/DX2                !
 ! A164  A(11,52,54)           118.541          estimate D2E/DX2                !
 ! A165  A(20,52,54)           120.0818         estimate D2E/DX2                !
 ! A166  A(51,53,55)           122.0218         estimate D2E/DX2                !
 ! A167  A(51,53,83)           121.9241         estimate D2E/DX2                !
 ! A168  A(55,53,83)           108.4875         estimate D2E/DX2                !
 ! A169  A(52,54,55)           110.4383         estimate D2E/DX2                !
 ! A170  A(52,54,84)           110.6812         estimate D2E/DX2                !
 ! A171  A(52,54,86)           108.7815         estimate D2E/DX2                !
 ! A172  A(55,54,84)           100.9099         estimate D2E/DX2                !
 ! A173  A(55,54,86)           112.8739         estimate D2E/DX2                !
 ! A174  A(84,54,86)           113.0008         estimate D2E/DX2                !
 ! A175  A(53,55,54)           110.9988         estimate D2E/DX2                !
 ! A176  A(53,55,56)           119.6222         estimate D2E/DX2                !
 ! A177  A(54,55,56)           122.7837         estimate D2E/DX2                !
 ! A178  A(49,56,50)           110.7693         estimate D2E/DX2                !
 ! A179  A(49,56,55)           120.2893         estimate D2E/DX2                !
 ! A180  A(50,56,55)           122.1888         estimate D2E/DX2                !
 ! A181  A(21,57,59)           119.2031         estimate D2E/DX2                !
 ! A182  A(21,57,83)           115.8017         estimate D2E/DX2                !
 ! A183  A(59,57,83)           118.0651         estimate D2E/DX2                !
 ! A184  A(22,58,60)           110.8714         estimate D2E/DX2                !
 ! A185  A(22,58,84)           121.6109         estimate D2E/DX2                !
 ! A186  A(60,58,84)           120.1441         estimate D2E/DX2                !
 ! A187  A(57,59,60)           118.3975         estimate D2E/DX2                !
 ! A188  A(57,59,61)           119.2034         estimate D2E/DX2                !
 ! A189  A(60,59,61)           115.3634         estimate D2E/DX2                !
 ! A190  A(58,60,59)           121.6634         estimate D2E/DX2                !
 ! A191  A(58,60,62)           108.741          estimate D2E/DX2                !
 ! A192  A(59,60,62)           121.7978         estimate D2E/DX2                !
 ! A193  A(25,61,59)           120.3713         estimate D2E/DX2                !
 ! A194  A(25,61,63)           106.9789         estimate D2E/DX2                !
 ! A195  A(59,61,63)           122.4109         estimate D2E/DX2                !
 ! A196  A(24,62,60)           107.7683         estimate D2E/DX2                !
 ! A197  A(24,62,64)           121.6981         estimate D2E/DX2                !
 ! A198  A(60,62,64)           122.1341         estimate D2E/DX2                !
 ! A199  A(61,63,64)           122.2656         estimate D2E/DX2                !
 ! A200  A(61,63,65)           108.3765         estimate D2E/DX2                !
 ! A201  A(64,63,65)           120.5768         estimate D2E/DX2                !
 ! A202  A(62,64,63)           115.1753         estimate D2E/DX2                !
 ! A203  A(62,64,66)           120.0096         estimate D2E/DX2                !
 ! A204  A(63,64,66)           119.0601         estimate D2E/DX2                !
 ! A205  A(27,65,63)           108.2755         estimate D2E/DX2                !
 ! A206  A(27,65,67)           122.0612         estimate D2E/DX2                !
 ! A207  A(63,65,67)           121.6304         estimate D2E/DX2                !
 ! A208  A(28,66,64)           116.1843         estimate D2E/DX2                !
 ! A209  A(28,66,68)           118.0813         estimate D2E/DX2                !
 ! A210  A(64,66,68)           120.4103         estimate D2E/DX2                !
 ! A211  A(65,67,68)           119.0844         estimate D2E/DX2                !
 ! A212  A(65,67,69)           114.9386         estimate D2E/DX2                !
 ! A213  A(68,67,69)           120.0659         estimate D2E/DX2                !
 ! A214  A(66,68,67)           119.07           estimate D2E/DX2                !
 ! A215  A(66,68,70)           118.562          estimate D2E/DX2                !
 ! A216  A(67,68,70)           116.8312         estimate D2E/DX2                !
 ! A217  A(31,69,67)           121.4866         estimate D2E/DX2                !
 ! A218  A(31,69,71)           107.4634         estimate D2E/DX2                !
 ! A219  A(67,69,71)           121.1546         estimate D2E/DX2                !
 ! A220  A(32,70,68)           121.3392         estimate D2E/DX2                !
 ! A221  A(32,70,72)           106.0322         estimate D2E/DX2                !
 ! A222  A(68,70,72)           122.4356         estimate D2E/DX2                !
 ! A223  A(69,71,72)           119.219          estimate D2E/DX2                !
 ! A224  A(69,71,73)           108.1074         estimate D2E/DX2                !
 ! A225  A(72,71,73)           120.4547         estimate D2E/DX2                !
 ! A226  A(70,72,71)           120.1141         estimate D2E/DX2                !
 ! A227  A(70,72,74)           108.3126         estimate D2E/DX2                !
 ! A228  A(71,72,74)           119.4943         estimate D2E/DX2                !
 ! A229  A(33,73,71)           108.1851         estimate D2E/DX2                !
 ! A230  A(33,73,75)           119.3944         estimate D2E/DX2                !
 ! A231  A(71,73,75)           120.1767         estimate D2E/DX2                !
 ! A232  A(34,74,72)           108.6703         estimate D2E/DX2                !
 ! A233  A(34,74,76)           119.0185         estimate D2E/DX2                !
 ! A234  A(72,74,76)           120.3018         estimate D2E/DX2                !
 ! A235  A(73,75,76)           119.6492         estimate D2E/DX2                !
 ! A236  A(73,75,77)           119.4163         estimate D2E/DX2                !
 ! A237  A(76,75,77)           108.8077         estimate D2E/DX2                !
 ! A238  A(74,76,75)           119.8849         estimate D2E/DX2                !
 ! A239  A(74,76,78)           119.6929         estimate D2E/DX2                !
 ! A240  A(75,76,78)           108.4105         estimate D2E/DX2                !
 ! A241  A(37,77,75)           122.2682         estimate D2E/DX2                !
 ! A242  A(37,77,81)           121.2584         estimate D2E/DX2                !
 ! A243  A(75,77,81)           106.0303         estimate D2E/DX2                !
 ! A244  A(38,78,76)           122.5697         estimate D2E/DX2                !
 ! A245  A(38,78,81)           120.9391         estimate D2E/DX2                !
 ! A246  A(76,78,81)           106.0717         estimate D2E/DX2                !
 ! A247  A(39,79,40)           121.5609         estimate D2E/DX2                !
 ! A248  A(39,79,82)           120.6084         estimate D2E/DX2                !
 ! A249  A(40,79,82)           106.0578         estimate D2E/DX2                !
 ! A250  A(41,80,42)           121.666          estimate D2E/DX2                !
 ! A251  A(41,80,82)           106.2972         estimate D2E/DX2                !
 ! A252  A(42,80,82)           119.9537         estimate D2E/DX2                !
 ! A253  A(77,81,78)           109.6252         estimate D2E/DX2                !
 ! A254  A(77,81,82)           120.4453         estimate D2E/DX2                !
 ! A255  A(78,81,82)           120.1453         estimate D2E/DX2                !
 ! A256  A(79,82,80)           110.101          estimate D2E/DX2                !
 ! A257  A(79,82,81)           119.3132         estimate D2E/DX2                !
 ! A258  A(80,82,81)           120.4937         estimate D2E/DX2                !
 ! A259  A(53,83,57)           121.932          estimate D2E/DX2                !
 ! A260  A(53,83,84)           108.2716         estimate D2E/DX2                !
 ! A261  A(57,83,84)           121.8601         estimate D2E/DX2                !
 ! A262  A(54,84,58)           122.1193         estimate D2E/DX2                !
 ! A263  A(54,84,83)           111.097          estimate D2E/DX2                !
 ! A264  A(58,84,83)           119.8196         estimate D2E/DX2                !
 ! D1    D(17,1,5,9)             4.0992         estimate D2E/DX2                !
 ! D2    D(17,1,5,29)         -149.8536         estimate D2E/DX2                !
 ! D3    D(23,1,5,9)           143.7947         estimate D2E/DX2                !
 ! D4    D(23,1,5,29)          -10.1581         estimate D2E/DX2                !
 ! D5    D(5,1,17,15)           -5.5744         estimate D2E/DX2                !
 ! D6    D(5,1,17,19)          138.3398         estimate D2E/DX2                !
 ! D7    D(23,1,17,15)        -150.7505         estimate D2E/DX2                !
 ! D8    D(23,1,17,19)          -6.8362         estimate D2E/DX2                !
 ! D9    D(5,1,23,21)         -138.4431         estimate D2E/DX2                !
 ! D10   D(5,1,23,25)            5.869          estimate D2E/DX2                !
 ! D11   D(17,1,23,21)           6.7516         estimate D2E/DX2                !
 ! D12   D(17,1,23,25)         151.0637         estimate D2E/DX2                !
 ! D13   D(43,2,6,10)         -141.7348         estimate D2E/DX2                !
 ! D14   D(43,2,6,15)            3.1157         estimate D2E/DX2                !
 ! D15   D(44,2,6,10)            4.3049         estimate D2E/DX2                !
 ! D16   D(44,2,6,15)          149.1554         estimate D2E/DX2                !
 ! D17   D(6,2,43,13)            0.7618         estimate D2E/DX2                !
 ! D18   D(6,2,43,39)          149.1669         estimate D2E/DX2                !
 ! D19   D(44,2,43,13)        -145.2294         estimate D2E/DX2                !
 ! D20   D(44,2,43,39)           3.1756         estimate D2E/DX2                !
 ! D21   D(6,2,44,40)         -149.1582         estimate D2E/DX2                !
 ! D22   D(6,2,44,47)           -0.3412         estimate D2E/DX2                !
 ! D23   D(43,2,44,40)          -7.2182         estimate D2E/DX2                !
 ! D24   D(43,2,44,47)         141.5988         estimate D2E/DX2                !
 ! D25   D(18,3,7,12)           -3.3664         estimate D2E/DX2                !
 ! D26   D(18,3,7,30)          142.3692         estimate D2E/DX2                !
 ! D27   D(26,3,7,12)         -145.0394         estimate D2E/DX2                !
 ! D28   D(26,3,7,30)            0.6963         estimate D2E/DX2                !
 ! D29   D(7,3,18,16)           12.1414         estimate D2E/DX2                !
 ! D30   D(7,3,18,20)         -143.3434         estimate D2E/DX2                !
 ! D31   D(26,3,18,16)         149.7716         estimate D2E/DX2                !
 ! D32   D(26,3,18,20)          -5.7133         estimate D2E/DX2                !
 ! D33   D(7,3,26,24)          150.198          estimate D2E/DX2                !
 ! D34   D(7,3,26,28)            5.0962         estimate D2E/DX2                !
 ! D35   D(18,3,26,24)           7.5784         estimate D2E/DX2                !
 ! D36   D(18,3,26,28)        -137.5234         estimate D2E/DX2                !
 ! D37   D(45,4,8,11)           20.4483         estimate D2E/DX2                !
 ! D38   D(45,4,8,16)         -136.7051         estimate D2E/DX2                !
 ! D39   D(46,4,8,11)          140.7917         estimate D2E/DX2                !
 ! D40   D(46,4,8,16)          -16.3617         estimate D2E/DX2                !
 ! D41   D(88,4,8,11)         -102.249          estimate D2E/DX2                !
 ! D42   D(88,4,8,16)          100.5976         estimate D2E/DX2                !
 ! D43   D(8,4,45,41)          133.6669         estimate D2E/DX2                !
 ! D44   D(8,4,45,48)          -24.7703         estimate D2E/DX2                !
 ! D45   D(46,4,45,41)          20.6982         estimate D2E/DX2                !
 ! D46   D(46,4,45,48)        -137.739          estimate D2E/DX2                !
 ! D47   D(88,4,45,41)        -103.6535         estimate D2E/DX2                !
 ! D48   D(88,4,45,48)          97.9093         estimate D2E/DX2                !
 ! D49   D(8,4,46,14)           16.5672         estimate D2E/DX2                !
 ! D50   D(8,4,46,42)         -136.3269         estimate D2E/DX2                !
 ! D51   D(45,4,46,14)         134.8585         estimate D2E/DX2                !
 ! D52   D(45,4,46,42)         -18.0357         estimate D2E/DX2                !
 ! D53   D(88,4,46,14)        -100.6106         estimate D2E/DX2                !
 ! D54   D(88,4,46,42)         106.4953         estimate D2E/DX2                !
 ! D55   D(1,5,9,13)             1.0626         estimate D2E/DX2                !
 ! D56   D(1,5,9,35)          -155.7111         estimate D2E/DX2                !
 ! D57   D(29,5,9,13)          154.3361         estimate D2E/DX2                !
 ! D58   D(29,5,9,35)           -2.4375         estimate D2E/DX2                !
 ! D59   D(1,5,29,27)            7.9132         estimate D2E/DX2                !
 ! D60   D(1,5,29,31)          160.2757         estimate D2E/DX2                !
 ! D61   D(9,5,29,27)         -145.9018         estimate D2E/DX2                !
 ! D62   D(9,5,29,31)            6.4607         estimate D2E/DX2                !
 ! D63   D(2,6,10,49)           -7.0318         estimate D2E/DX2                !
 ! D64   D(2,6,10,51)          143.4773         estimate D2E/DX2                !
 ! D65   D(15,6,10,49)        -147.1887         estimate D2E/DX2                !
 ! D66   D(15,6,10,51)           3.3204         estimate D2E/DX2                !
 ! D67   D(2,6,15,13)           -5.8824         estimate D2E/DX2                !
 ! D68   D(2,6,15,17)         -150.3189         estimate D2E/DX2                !
 ! D69   D(10,6,15,13)         139.5009         estimate D2E/DX2                !
 ! D70   D(10,6,15,17)          -4.9356         estimate D2E/DX2                !
 ! D71   D(3,7,12,14)           -7.9189         estimate D2E/DX2                !
 ! D72   D(3,7,12,36)          144.7702         estimate D2E/DX2                !
 ! D73   D(30,7,12,14)        -149.5646         estimate D2E/DX2                !
 ! D74   D(30,7,12,36)           3.1246         estimate D2E/DX2                !
 ! D75   D(3,7,30,28)           -6.3256         estimate D2E/DX2                !
 ! D76   D(3,7,30,32)         -151.1607         estimate D2E/DX2                !
 ! D77   D(12,7,30,28)         140.8153         estimate D2E/DX2                !
 ! D78   D(12,7,30,32)          -4.0198         estimate D2E/DX2                !
 ! D79   D(4,8,11,50)            8.652          estimate D2E/DX2                !
 ! D80   D(4,8,11,52)         -158.1473         estimate D2E/DX2                !
 ! D81   D(16,8,11,50)         163.3284         estimate D2E/DX2                !
 ! D82   D(16,8,11,52)          -3.471          estimate D2E/DX2                !
 ! D83   D(4,8,16,14)           10.7456         estimate D2E/DX2                !
 ! D84   D(4,8,16,18)          163.3371         estimate D2E/DX2                !
 ! D85   D(11,8,16,14)        -147.9376         estimate D2E/DX2                !
 ! D86   D(11,8,16,18)           4.6538         estimate D2E/DX2                !
 ! D87   D(5,9,13,15)           -4.8292         estimate D2E/DX2                !
 ! D88   D(5,9,13,43)         -147.5714         estimate D2E/DX2                !
 ! D89   D(35,9,13,15)         152.8943         estimate D2E/DX2                !
 ! D90   D(35,9,13,43)          10.1521         estimate D2E/DX2                !
 ! D91   D(5,9,35,33)           -6.7595         estimate D2E/DX2                !
 ! D92   D(5,9,35,37)          149.9069         estimate D2E/DX2                !
 ! D93   D(13,9,35,33)        -163.7248         estimate D2E/DX2                !
 ! D94   D(13,9,35,37)          -7.0583         estimate D2E/DX2                !
 ! D95   D(6,10,49,47)           6.1745         estimate D2E/DX2                !
 ! D96   D(6,10,49,56)         151.0452         estimate D2E/DX2                !
 ! D97   D(51,10,49,47)       -144.7399         estimate D2E/DX2                !
 ! D98   D(51,10,49,56)          0.1308         estimate D2E/DX2                !
 ! D99   D(6,10,51,19)           0.7768         estimate D2E/DX2                !
 ! D100  D(6,10,51,53)        -149.5665         estimate D2E/DX2                !
 ! D101  D(49,10,51,19)        150.9455         estimate D2E/DX2                !
 ! D102  D(49,10,51,53)          0.6023         estimate D2E/DX2                !
 ! D103  D(8,11,50,48)         -31.2496         estimate D2E/DX2                !
 ! D104  D(8,11,50,56)        -142.6431         estimate D2E/DX2                !
 ! D105  D(8,11,50,87)          92.5054         estimate D2E/DX2                !
 ! D106  D(52,11,50,48)        135.011          estimate D2E/DX2                !
 ! D107  D(52,11,50,56)         23.6175         estimate D2E/DX2                !
 ! D108  D(52,11,50,87)       -101.234          estimate D2E/DX2                !
 ! D109  D(8,11,52,20)           0.0934         estimate D2E/DX2                !
 ! D110  D(8,11,52,54)         171.1405         estimate D2E/DX2                !
 ! D111  D(50,11,52,20)       -165.9186         estimate D2E/DX2                !
 ! D112  D(50,11,52,54)          5.1285         estimate D2E/DX2                !
 ! D113  D(7,12,14,16)           9.9609         estimate D2E/DX2                !
 ! D114  D(7,12,14,46)         156.4826         estimate D2E/DX2                !
 ! D115  D(36,12,14,16)       -143.5203         estimate D2E/DX2                !
 ! D116  D(36,12,14,46)          3.0013         estimate D2E/DX2                !
 ! D117  D(7,12,36,34)           3.5517         estimate D2E/DX2                !
 ! D118  D(7,12,36,38)        -150.2531         estimate D2E/DX2                !
 ! D119  D(14,12,36,34)        155.363          estimate D2E/DX2                !
 ! D120  D(14,12,36,38)          1.5582         estimate D2E/DX2                !
 ! D121  D(9,13,15,6)         -141.2599         estimate D2E/DX2                !
 ! D122  D(9,13,15,17)           3.4593         estimate D2E/DX2                !
 ! D123  D(43,13,15,6)           6.339          estimate D2E/DX2                !
 ! D124  D(43,13,15,17)        151.0582         estimate D2E/DX2                !
 ! D125  D(9,13,43,2)          143.3087         estimate D2E/DX2                !
 ! D126  D(9,13,43,39)          -5.3952         estimate D2E/DX2                !
 ! D127  D(15,13,43,2)          -4.3308         estimate D2E/DX2                !
 ! D128  D(15,13,43,39)       -153.0347         estimate D2E/DX2                !
 ! D129  D(12,14,16,8)         150.9945         estimate D2E/DX2                !
 ! D130  D(12,14,16,18)         -1.0477         estimate D2E/DX2                !
 ! D131  D(46,14,16,8)           0.2584         estimate D2E/DX2                !
 ! D132  D(46,14,16,18)       -151.7838         estimate D2E/DX2                !
 ! D133  D(12,14,46,4)        -161.2172         estimate D2E/DX2                !
 ! D134  D(12,14,46,42)         -6.9577         estimate D2E/DX2                !
 ! D135  D(16,14,46,4)         -11.1246         estimate D2E/DX2                !
 ! D136  D(16,14,46,42)        143.1349         estimate D2E/DX2                !
 ! D137  D(6,15,17,1)          142.5485         estimate D2E/DX2                !
 ! D138  D(6,15,17,19)           2.324          estimate D2E/DX2                !
 ! D139  D(13,15,17,1)           1.7785         estimate D2E/DX2                !
 ! D140  D(13,15,17,19)       -138.446          estimate D2E/DX2                !
 ! D141  D(8,16,18,3)         -158.9232         estimate D2E/DX2                !
 ! D142  D(8,16,18,20)          -2.2999         estimate D2E/DX2                !
 ! D143  D(14,16,18,3)         -10.1261         estimate D2E/DX2                !
 ! D144  D(14,16,18,20)        146.4971         estimate D2E/DX2                !
 ! D145  D(1,17,19,21)           4.4235         estimate D2E/DX2                !
 ! D146  D(1,17,19,51)        -141.856          estimate D2E/DX2                !
 ! D147  D(15,17,19,21)        148.0862         estimate D2E/DX2                !
 ! D148  D(15,17,19,51)          1.8067         estimate D2E/DX2                !
 ! D149  D(3,18,20,22)         -13.8959         estimate D2E/DX2                !
 ! D150  D(3,18,20,52)         153.7382         estimate D2E/DX2                !
 ! D151  D(16,18,20,22)       -168.7013         estimate D2E/DX2                !
 ! D152  D(16,18,20,52)         -1.0673         estimate D2E/DX2                !
 ! D153  D(17,19,21,23)         -0.109          estimate D2E/DX2                !
 ! D154  D(17,19,21,57)       -145.3804         estimate D2E/DX2                !
 ! D155  D(51,19,21,23)        145.4524         estimate D2E/DX2                !
 ! D156  D(51,19,21,57)          0.1811         estimate D2E/DX2                !
 ! D157  D(17,19,51,10)         -3.3439         estimate D2E/DX2                !
 ! D158  D(17,19,51,53)        147.7686         estimate D2E/DX2                !
 ! D159  D(21,19,51,10)       -144.6198         estimate D2E/DX2                !
 ! D160  D(21,19,51,53)          6.4927         estimate D2E/DX2                !
 ! D161  D(18,20,22,24)         29.1429         estimate D2E/DX2                !
 ! D162  D(18,20,22,58)        140.4823         estimate D2E/DX2                !
 ! D163  D(18,20,22,85)        -94.8905         estimate D2E/DX2                !
 ! D164  D(52,20,22,24)       -138.3391         estimate D2E/DX2                !
 ! D165  D(52,20,22,58)        -26.9997         estimate D2E/DX2                !
 ! D166  D(52,20,22,85)         97.6275         estimate D2E/DX2                !
 ! D167  D(18,20,52,11)          2.1771         estimate D2E/DX2                !
 ! D168  D(18,20,52,54)       -168.7326         estimate D2E/DX2                !
 ! D169  D(22,20,52,11)        169.3205         estimate D2E/DX2                !
 ! D170  D(22,20,52,54)         -1.5891         estimate D2E/DX2                !
 ! D171  D(19,21,23,1)          -4.1597         estimate D2E/DX2                !
 ! D172  D(19,21,23,25)       -148.532          estimate D2E/DX2                !
 ! D173  D(57,21,23,1)         141.6062         estimate D2E/DX2                !
 ! D174  D(57,21,23,25)         -2.7661         estimate D2E/DX2                !
 ! D175  D(19,21,57,59)        143.3298         estimate D2E/DX2                !
 ! D176  D(19,21,57,83)         -7.0005         estimate D2E/DX2                !
 ! D177  D(23,21,57,59)          2.4738         estimate D2E/DX2                !
 ! D178  D(23,21,57,83)       -147.8566         estimate D2E/DX2                !
 ! D179  D(20,22,24,26)        -28.7875         estimate D2E/DX2                !
 ! D180  D(20,22,24,62)        121.2087         estimate D2E/DX2                !
 ! D181  D(58,22,24,26)       -146.4534         estimate D2E/DX2                !
 ! D182  D(58,22,24,62)          3.5428         estimate D2E/DX2                !
 ! D183  D(85,22,24,26)         93.4628         estimate D2E/DX2                !
 ! D184  D(85,22,24,62)       -116.541          estimate D2E/DX2                !
 ! D185  D(20,22,58,60)       -121.9827         estimate D2E/DX2                !
 ! D186  D(20,22,58,84)         27.9857         estimate D2E/DX2                !
 ! D187  D(24,22,58,60)         -3.9388         estimate D2E/DX2                !
 ! D188  D(24,22,58,84)        146.0296         estimate D2E/DX2                !
 ! D189  D(85,22,58,60)        115.6103         estimate D2E/DX2                !
 ! D190  D(85,22,58,84)        -94.4213         estimate D2E/DX2                !
 ! D191  D(1,23,25,27)           1.1168         estimate D2E/DX2                !
 ! D192  D(1,23,25,61)        -139.3324         estimate D2E/DX2                !
 ! D193  D(21,23,25,27)        141.6243         estimate D2E/DX2                !
 ! D194  D(21,23,25,61)          1.175          estimate D2E/DX2                !
 ! D195  D(22,24,26,3)          11.016          estimate D2E/DX2                !
 ! D196  D(22,24,26,28)        151.9346         estimate D2E/DX2                !
 ! D197  D(62,24,26,3)        -137.0365         estimate D2E/DX2                !
 ! D198  D(62,24,26,28)          3.882          estimate D2E/DX2                !
 ! D199  D(22,24,62,60)         -1.939          estimate D2E/DX2                !
 ! D200  D(22,24,62,64)       -150.6298         estimate D2E/DX2                !
 ! D201  D(26,24,62,60)        149.369          estimate D2E/DX2                !
 ! D202  D(26,24,62,64)          0.6782         estimate D2E/DX2                !
 ! D203  D(23,25,27,29)         -3.2337         estimate D2E/DX2                !
 ! D204  D(23,25,27,65)       -148.3381         estimate D2E/DX2                !
 ! D205  D(61,25,27,29)        141.329          estimate D2E/DX2                !
 ! D206  D(61,25,27,65)         -3.7753         estimate D2E/DX2                !
 ! D207  D(23,25,61,59)          0.6558         estimate D2E/DX2                !
 ! D208  D(23,25,61,63)        146.5989         estimate D2E/DX2                !
 ! D209  D(27,25,61,59)       -143.4092         estimate D2E/DX2                !
 ! D210  D(27,25,61,63)          2.534          estimate D2E/DX2                !
 ! D211  D(3,26,28,30)          -8.7853         estimate D2E/DX2                !
 ! D212  D(3,26,28,66)         136.3587         estimate D2E/DX2                !
 ! D213  D(24,26,28,30)       -153.5865         estimate D2E/DX2                !
 ! D214  D(24,26,28,66)         -8.4425         estimate D2E/DX2                !
 ! D215  D(25,27,29,5)          -1.4096         estimate D2E/DX2                !
 ! D216  D(25,27,29,31)       -154.6239         estimate D2E/DX2                !
 ! D217  D(65,27,29,5)         138.67           estimate D2E/DX2                !
 ! D218  D(65,27,29,31)        -14.5443         estimate D2E/DX2                !
 ! D219  D(25,27,65,63)          3.5419         estimate D2E/DX2                !
 ! D220  D(25,27,65,67)        152.6951         estimate D2E/DX2                !
 ! D221  D(29,27,65,63)       -141.1919         estimate D2E/DX2                !
 ! D222  D(29,27,65,67)          7.9613         estimate D2E/DX2                !
 ! D223  D(26,28,30,7)           9.305          estimate D2E/DX2                !
 ! D224  D(26,28,30,32)        153.9329         estimate D2E/DX2                !
 ! D225  D(66,28,30,7)        -136.1337         estimate D2E/DX2                !
 ! D226  D(66,28,30,32)          8.4942         estimate D2E/DX2                !
 ! D227  D(26,28,66,64)          7.7165         estimate D2E/DX2                !
 ! D228  D(26,28,66,68)       -146.6639         estimate D2E/DX2                !
 ! D229  D(30,28,66,64)        147.5009         estimate D2E/DX2                !
 ! D230  D(30,28,66,68)         -6.8795         estimate D2E/DX2                !
 ! D231  D(5,29,31,33)          -1.3241         estimate D2E/DX2                !
 ! D232  D(5,29,31,69)        -147.4741         estimate D2E/DX2                !
 ! D233  D(27,29,31,33)        152.4552         estimate D2E/DX2                !
 ! D234  D(27,29,31,69)          6.3051         estimate D2E/DX2                !
 ! D235  D(7,30,32,34)          -1.8236         estimate D2E/DX2                !
 ! D236  D(7,30,32,70)         140.2544         estimate D2E/DX2                !
 ! D237  D(28,30,32,34)       -142.9813         estimate D2E/DX2                !
 ! D238  D(28,30,32,70)         -0.9032         estimate D2E/DX2                !
 ! D239  D(29,31,33,35)         -8.4234         estimate D2E/DX2                !
 ! D240  D(29,31,33,73)       -156.2729         estimate D2E/DX2                !
 ! D241  D(69,31,33,35)        141.6207         estimate D2E/DX2                !
 ! D242  D(69,31,33,73)         -6.2288         estimate D2E/DX2                !
 ! D243  D(29,31,69,67)          9.0151         estimate D2E/DX2                !
 ! D244  D(29,31,69,71)        154.9775         estimate D2E/DX2                !
 ! D245  D(33,31,69,67)       -140.8617         estimate D2E/DX2                !
 ! D246  D(33,31,69,71)          5.1008         estimate D2E/DX2                !
 ! D247  D(30,32,34,36)          8.8563         estimate D2E/DX2                !
 ! D248  D(30,32,34,74)        154.3271         estimate D2E/DX2                !
 ! D249  D(70,32,34,36)       -136.3226         estimate D2E/DX2                !
 ! D250  D(70,32,34,74)          9.1483         estimate D2E/DX2                !
 ! D251  D(30,32,70,68)         -8.1464         estimate D2E/DX2                !
 ! D252  D(30,32,70,72)       -154.0776         estimate D2E/DX2                !
 ! D253  D(34,32,70,68)        137.5706         estimate D2E/DX2                !
 ! D254  D(34,32,70,72)         -8.3605         estimate D2E/DX2                !
 ! D255  D(31,33,35,9)          12.1269         estimate D2E/DX2                !
 ! D256  D(31,33,35,37)       -145.1986         estimate D2E/DX2                !
 ! D257  D(73,33,35,9)         155.0317         estimate D2E/DX2                !
 ! D258  D(73,33,35,37)         -2.2938         estimate D2E/DX2                !
 ! D259  D(31,33,73,71)          4.9255         estimate D2E/DX2                !
 ! D260  D(31,33,73,75)        147.3292         estimate D2E/DX2                !
 ! D261  D(35,33,73,71)       -142.5681         estimate D2E/DX2                !
 ! D262  D(35,33,73,75)         -0.1644         estimate D2E/DX2                !
 ! D263  D(32,34,36,12)         -9.4561         estimate D2E/DX2                !
 ! D264  D(32,34,36,38)        144.4672         estimate D2E/DX2                !
 ! D265  D(74,34,36,12)       -149.3652         estimate D2E/DX2                !
 ! D266  D(74,34,36,38)          4.5581         estimate D2E/DX2                !
 ! D267  D(32,34,74,72)         -6.2602         estimate D2E/DX2                !
 ! D268  D(32,34,74,76)       -149.0558         estimate D2E/DX2                !
 ! D269  D(36,34,74,72)        138.747          estimate D2E/DX2                !
 ! D270  D(36,34,74,76)         -4.0486         estimate D2E/DX2                !
 ! D271  D(9,35,37,39)          -0.7774         estimate D2E/DX2                !
 ! D272  D(9,35,37,77)        -154.2256         estimate D2E/DX2                !
 ! D273  D(33,35,37,39)        155.62           estimate D2E/DX2                !
 ! D274  D(33,35,37,77)          2.1718         estimate D2E/DX2                !
 ! D275  D(12,36,38,42)         -2.2645         estimate D2E/DX2                !
 ! D276  D(12,36,38,78)        152.7381         estimate D2E/DX2                !
 ! D277  D(34,36,38,42)       -155.6328         estimate D2E/DX2                !
 ! D278  D(34,36,38,78)         -0.6303         estimate D2E/DX2                !
 ! D279  D(35,37,39,43)          5.7249         estimate D2E/DX2                !
 ! D280  D(35,37,39,79)       -146.6173         estimate D2E/DX2                !
 ! D281  D(77,37,39,43)        159.5853         estimate D2E/DX2                !
 ! D282  D(77,37,39,79)          7.2431         estimate D2E/DX2                !
 ! D283  D(35,37,77,75)          0.3016         estimate D2E/DX2                !
 ! D284  D(35,37,77,81)        140.2364         estimate D2E/DX2                !
 ! D285  D(39,37,77,75)       -153.9664         estimate D2E/DX2                !
 ! D286  D(39,37,77,81)        -14.0316         estimate D2E/DX2                !
 ! D287  D(36,38,42,46)         -1.4971         estimate D2E/DX2                !
 ! D288  D(36,38,42,80)        150.997          estimate D2E/DX2                !
 ! D289  D(78,38,42,46)       -156.4935         estimate D2E/DX2                !
 ! D290  D(78,38,42,80)         -3.9995         estimate D2E/DX2                !
 ! D291  D(36,38,78,76)         -3.8019         estimate D2E/DX2                !
 ! D292  D(36,38,78,81)       -143.7882         estimate D2E/DX2                !
 ! D293  D(42,38,78,76)        151.8238         estimate D2E/DX2                !
 ! D294  D(42,38,78,81)         11.8376         estimate D2E/DX2                !
 ! D295  D(37,39,43,2)        -147.2113         estimate D2E/DX2                !
 ! D296  D(37,39,43,13)         -2.8646         estimate D2E/DX2                !
 ! D297  D(79,39,43,2)           6.2792         estimate D2E/DX2                !
 ! D298  D(79,39,43,13)        150.6259         estimate D2E/DX2                !
 ! D299  D(37,39,79,40)        141.1656         estimate D2E/DX2                !
 ! D300  D(37,39,79,82)          3.3854         estimate D2E/DX2                !
 ! D301  D(43,39,79,40)        -11.755          estimate D2E/DX2                !
 ! D302  D(43,39,79,82)       -149.5352         estimate D2E/DX2                !
 ! D303  D(44,40,41,45)          0.3247         estimate D2E/DX2                !
 ! D304  D(44,40,41,80)       -148.6664         estimate D2E/DX2                !
 ! D305  D(79,40,41,45)        147.4368         estimate D2E/DX2                !
 ! D306  D(79,40,41,80)         -1.5543         estimate D2E/DX2                !
 ! D307  D(41,40,44,2)         144.785          estimate D2E/DX2                !
 ! D308  D(41,40,44,47)         -3.9777         estimate D2E/DX2                !
 ! D309  D(79,40,44,2)           1.7967         estimate D2E/DX2                !
 ! D310  D(79,40,44,47)       -146.966          estimate D2E/DX2                !
 ! D311  D(41,40,79,39)       -138.7929         estimate D2E/DX2                !
 ! D312  D(41,40,79,82)          4.2061         estimate D2E/DX2                !
 ! D313  D(44,40,79,39)          8.0046         estimate D2E/DX2                !
 ! D314  D(44,40,79,82)        151.0036         estimate D2E/DX2                !
 ! D315  D(40,41,45,4)        -154.1068         estimate D2E/DX2                !
 ! D316  D(40,41,45,48)          4.34           estimate D2E/DX2                !
 ! D317  D(80,41,45,4)          -9.7332         estimate D2E/DX2                !
 ! D318  D(80,41,45,48)        148.7136         estimate D2E/DX2                !
 ! D319  D(40,41,80,42)        140.5586         estimate D2E/DX2                !
 ! D320  D(40,41,80,82)         -1.7697         estimate D2E/DX2                !
 ! D321  D(45,41,80,42)         -7.3537         estimate D2E/DX2                !
 ! D322  D(45,41,80,82)       -149.682          estimate D2E/DX2                !
 ! D323  D(38,42,46,4)         155.9836         estimate D2E/DX2                !
 ! D324  D(38,42,46,14)          5.995          estimate D2E/DX2                !
 ! D325  D(80,42,46,4)           2.4742         estimate D2E/DX2                !
 ! D326  D(80,42,46,14)       -147.5144         estimate D2E/DX2                !
 ! D327  D(38,42,80,41)       -142.4552         estimate D2E/DX2                !
 ! D328  D(38,42,80,82)         -5.0656         estimate D2E/DX2                !
 ! D329  D(46,42,80,41)         10.8496         estimate D2E/DX2                !
 ! D330  D(46,42,80,82)        148.2393         estimate D2E/DX2                !
 ! D331  D(2,44,47,48)        -145.4294         estimate D2E/DX2                !
 ! D332  D(2,44,47,49)          -0.4824         estimate D2E/DX2                !
 ! D333  D(40,44,47,48)          3.1571         estimate D2E/DX2                !
 ! D334  D(40,44,47,49)        148.1042         estimate D2E/DX2                !
 ! D335  D(4,45,48,47)         152.8465         estimate D2E/DX2                !
 ! D336  D(4,45,48,50)           1.3982         estimate D2E/DX2                !
[...]
 Alpha virt. eigenvalues --    1.17651   1.18137   1.18340   1.18681   1.18932
 Alpha virt. eigenvalues --    1.19231   1.19378   1.19789   1.20353   1.20710
 Alpha virt. eigenvalues --    1.20984   1.21288   1.21341   1.21494   1.21948
 Alpha virt. eigenvalues --    1.22119   1.22268   1.22492   1.23089   1.23301
 Alpha virt. eigenvalues --    1.23644   1.24279   1.24456   1.24767   1.25204
 Alpha virt. eigenvalues --    1.25539   1.25737   1.25951   1.26135   1.26381
 Alpha virt. eigenvalues --    1.26614   1.26982   1.27307   1.27587   1.27715
 Alpha virt. eigenvalues --    1.28111   1.28271   1.28876   1.29159   1.29562
 Alpha virt. eigenvalues --    1.29696   1.30003   1.30387   1.30820   1.31008
 Alpha virt. eigenvalues --    1.31384   1.31623   1.31942   1.32321   1.32456
 Alpha virt. eigenvalues --    1.32909   1.33060   1.33594   1.34120   1.34388
 Alpha virt. eigenvalues --    1.34826   1.34914   1.35612   1.35844   1.36676
 Alpha virt. eigenvalues --    1.37043   1.37453   1.37612   1.37830   1.38593
 Alpha virt. eigenvalues --    1.39597   1.39709   1.40385   1.40913   1.41222
 Alpha virt. eigenvalues --    1.42058   1.42667   1.43210   1.44065   1.44389
 Alpha virt. eigenvalues --    1.44606   1.45344   1.45828   1.46309   1.46947
 Alpha virt. eigenvalues --    1.47433   1.48205   1.48322   1.48931   1.49321
 Alpha virt. eigenvalues --    1.49854   1.50162   1.50360   1.51073   1.51666
 Alpha virt. eigenvalues --    1.52043   1.52452   1.52829   1.53322   1.54068
 Alpha virt. eigenvalues --    1.54382   1.54414   1.55498   1.55697   1.55990
 Alpha virt. eigenvalues --    1.56473   1.56970   1.57525   1.58353   1.58516
 Alpha virt. eigenvalues --    1.59031   1.59513   1.60277   1.60683   1.61248
 Alpha virt. eigenvalues --    1.61683   1.62099   1.62393   1.63632   1.63924
 Alpha virt. eigenvalues --    1.64191   1.64449   1.64798   1.64948   1.65297
 Alpha virt. eigenvalues --    1.65571   1.65700   1.65827   1.66518   1.66664
 Alpha virt. eigenvalues --    1.66728   1.67204   1.67513   1.67675   1.67801
 Alpha virt. eigenvalues --    1.68138   1.68548   1.68728   1.69165   1.69302
 Alpha virt. eigenvalues --    1.69595   1.69756   1.69974   1.70185   1.70506
 Alpha virt. eigenvalues --    1.70792   1.71060   1.71079   1.71325   1.71610
 Alpha virt. eigenvalues --    1.71857   1.72089   1.72475   1.72618   1.72855
 Alpha virt. eigenvalues --    1.73300   1.73555   1.73685   1.73724   1.74106
 Alpha virt. eigenvalues --    1.74278   1.74529   1.74657   1.74870   1.75375
 Alpha virt. eigenvalues --    1.75636   1.75846   1.76081   1.76236   1.76439
 Alpha virt. eigenvalues --    1.76703   1.76915   1.77100   1.77310   1.77357
 Alpha virt. eigenvalues --    1.77760   1.77910   1.78230   1.78452   1.78770
 Alpha virt. eigenvalues --    1.78816   1.79237   1.79664   1.79916   1.80309
 Alpha virt. eigenvalues --    1.80542   1.81178   1.81690   1.82152   1.82514
 Alpha virt. eigenvalues --    1.82621   1.82916   1.83792   1.84137   1.84608
 Alpha virt. eigenvalues --    1.85215   1.85970   1.86114   1.86247   1.86484
 Alpha virt. eigenvalues --    1.86668   1.87602   1.88360   1.88728   1.88914
 Alpha virt. eigenvalues --    1.89778   1.89898   1.90783   1.91085   1.91788
 Alpha virt. eigenvalues --    1.92123   1.92666   1.92783   1.93068   1.93393
 Alpha virt. eigenvalues --    1.93863   1.94124   1.94229   1.94590   1.94991
 Alpha virt. eigenvalues --    1.95516   1.95580   1.95887   1.96230   1.96648
 Alpha virt. eigenvalues --    1.97115   1.97154   1.97359   1.97625   1.98005
 Alpha virt. eigenvalues --    1.98212   1.98802   1.98935   1.98975   1.99202
 Alpha virt. eigenvalues --    1.99400   1.99563   1.99821   2.00004   2.00353
 Alpha virt. eigenvalues --    2.00393   2.00588   2.00833   2.01164   2.01238
 Alpha virt. eigenvalues --    2.01349   2.01641   2.01989   2.02143   2.02425
 Alpha virt. eigenvalues --    2.02557   2.02731   2.03170   2.03491   2.03651
 Alpha virt. eigenvalues --    2.03913   2.04270   2.04336   2.04963   2.05109
 Alpha virt. eigenvalues --    2.05517   2.06375   2.06622   2.06907   2.07583
 Alpha virt. eigenvalues --    2.07682   2.08101   2.08211   2.08660   2.09722
 Alpha virt. eigenvalues --    2.10038   2.10359   2.11179   2.11267   2.11877
 Alpha virt. eigenvalues --    2.12462   2.12631   2.13054   2.13175   2.13386
 Alpha virt. eigenvalues --    2.14062   2.14434   2.14637   2.15367   2.15806
 Alpha virt. eigenvalues --    2.16371   2.16675   2.16970   2.17583   2.18352
 Alpha virt. eigenvalues --    2.18496   2.19494   2.19826   2.20278   2.20917
 Alpha virt. eigenvalues --    2.21039   2.21433   2.21939   2.22208   2.22397
 Alpha virt. eigenvalues --    2.22602   2.22756   2.23231   2.23504   2.23841
 Alpha virt. eigenvalues --    2.24063   2.24625   2.24647   2.25594   2.25883
 Alpha virt. eigenvalues --    2.26306   2.26432   2.27151   2.27457   2.27896
 Alpha virt. eigenvalues --    2.28030   2.28368   2.29375   2.29405   2.30108
 Alpha virt. eigenvalues --    2.30447   2.30755   2.31014   2.31271   2.31507
 Alpha virt. eigenvalues --    2.32101   2.32576   2.33146   2.33518   2.33993
 Alpha virt. eigenvalues --    2.34469   2.35101   2.36780   2.37274   2.37974
 Alpha virt. eigenvalues --    2.38045   2.38482   2.39146   2.39335   2.40121
 Alpha virt. eigenvalues --    2.41115   2.41261   2.41715   2.42490   2.42717
 Alpha virt. eigenvalues --    2.42937   2.43184   2.43797   2.44224   2.44616
 Alpha virt. eigenvalues --    2.45429   2.45701   2.46241   2.46548   2.47190
 Alpha virt. eigenvalues --    2.47915   2.48956   2.49589   2.50162   2.51070
 Alpha virt. eigenvalues --    2.51105   2.51510   2.51849   2.52497   2.52792
 Alpha virt. eigenvalues --    2.53618   2.53889   2.54239   2.54882   2.55269
 Alpha virt. eigenvalues --    2.55380   2.55664   2.55802   2.56204   2.56410
 Alpha virt. eigenvalues --    2.56719   2.56966   2.57438   2.57635   2.57988
 Alpha virt. eigenvalues --    2.58242   2.58576   2.58733   2.58943   2.59126
 Alpha virt. eigenvalues --    2.59480   2.59894   2.60197   2.60370   2.60550
 Alpha virt. eigenvalues --    2.61010   2.61464   2.62088   2.62315   2.62531
 Alpha virt. eigenvalues --    2.62708   2.62905   2.63585   2.64085   2.64307
 Alpha virt. eigenvalues --    2.64798   2.65155   2.65256   2.65869   2.66031
 Alpha virt. eigenvalues --    2.66601   2.66782   2.67202   2.67261   2.67460
 Alpha virt. eigenvalues --    2.68025   2.68344   2.68630   2.68870   2.69458
 Alpha virt. eigenvalues --    2.70103   2.70252   2.71141   2.71377   2.71563
 Alpha virt. eigenvalues --    2.71904   2.72472   2.72981   2.73290   2.73908
 Alpha virt. eigenvalues --    2.74130   2.74758   2.74868   2.75380   2.76031
 Alpha virt. eigenvalues --    2.76620   2.77082   2.77300   2.77510   2.78429
 Alpha virt. eigenvalues --    2.78851   2.79326   2.79875   2.80165   2.80397
 Alpha virt. eigenvalues --    2.81150   2.81724   2.82052   2.82831   2.83041
 Alpha virt. eigenvalues --    2.83635   2.84036   2.84278   2.84716   2.85251
 Alpha virt. eigenvalues --    2.85335   2.85832   2.86702   2.87039   2.87325
 Alpha virt. eigenvalues --    2.87732   2.88256   2.88731   2.89035   2.89452
 Alpha virt. eigenvalues --    2.89905   2.90072   2.90947   2.91106   2.91605
 Alpha virt. eigenvalues --    2.92126   2.92291   2.92362   2.92834   2.93114
 Alpha virt. eigenvalues --    2.93768   2.94376   2.94799   2.95412   2.96239
 Alpha virt. eigenvalues --    2.96705   2.96919   2.97559   2.98751   2.99181
 Alpha virt. eigenvalues --    2.99387   3.00915   3.01199   3.03154   3.03474
 Alpha virt. eigenvalues --    3.04761   3.06468   3.08414   3.09060   3.09559
 Alpha virt. eigenvalues --    3.11707   3.13194   3.15213   3.15619   3.17921
 Alpha virt. eigenvalues --    3.18078   3.19656   3.19895   3.21444   3.24551
 Alpha virt. eigenvalues --    3.25024   3.26343   3.28887   3.30016   3.30756
 Alpha virt. eigenvalues --    3.32494   3.34304   3.35573   3.36299   3.38270
 Alpha virt. eigenvalues --    3.40697   3.43090   3.43756   3.44161   3.46770
 Alpha virt. eigenvalues --    3.48854   3.49394   3.51579   3.54250   3.56150
 Alpha virt. eigenvalues --    3.58441   3.60531   4.00643   4.01415   4.01764
 Alpha virt. eigenvalues --    4.02476   4.03423   4.03830   4.04292   4.04890
 Alpha virt. eigenvalues --    4.05223   4.06074   4.06402   4.06936   4.07108
 Alpha virt. eigenvalues --    4.08068   4.08361   4.09409   4.09684   4.10537
 Alpha virt. eigenvalues --    4.11000   4.11567   4.11825   4.13092   4.14309
 Alpha virt. eigenvalues --    4.15756   4.16140   4.17176   4.17846   4.18951
 Alpha virt. eigenvalues --    4.19913   4.20060   4.20578   4.21519   4.21902
 Alpha virt. eigenvalues --    4.23015   4.23567   4.24876   4.26918   4.27462
 Alpha virt. eigenvalues --    4.27950   4.28680   4.29233   4.30028   4.30432
 Alpha virt. eigenvalues --    4.30972   4.31659   4.32984   4.35752   4.37707
 Alpha virt. eigenvalues --    4.38225   4.38540   4.40291   4.43370   4.44776
 Alpha virt. eigenvalues --    4.46093   4.46550   4.46854   4.48834   4.51362
 Alpha virt. eigenvalues --    4.51951   4.52071   4.53341   4.56271   4.57210
 Alpha virt. eigenvalues --    4.58091   4.59064   4.61413   4.65191   4.65775
 Alpha virt. eigenvalues --    4.67351   4.68349   4.69924   4.73237   4.78089
 Alpha virt. eigenvalues --    4.81062   4.82092   4.84923   4.86536   4.88513
 Alpha virt. eigenvalues --    4.92772   4.93868   5.00322   5.01898   5.05257
 Alpha virt. eigenvalues --    5.11180   5.14745   5.18461   5.22237   5.25138
          Condensed to atoms (all electrons):
 Mulliken charges:
               1
     1  C   -0.027987
     2  C   -0.023570
     3  C   -0.040829
     4  C   -0.370124
     5  C    0.052192
     6  C   -0.020303
     7  C   -0.010793
     8  C    0.082364
     9  C    0.043651
    10  C    0.053701
    11  C    0.146816
    12  C    0.043872
    13  C   -0.027971
    14  C    0.013590
    15  C   -0.013328
    16  C    0.004923
    17  C   -0.009941
    18  C    0.082806
    19  C   -0.017968
    20  C    0.103677
    21  C   -0.019080
    22  C   -0.359396
    23  C   -0.001268
    24  C    0.072000
    25  C   -0.015752
    26  C   -0.001194
    27  C   -0.020632
    28  C   -0.020767
    29  C    0.050968
    30  C   -0.016247
    31  C   -0.031310
    32  C   -0.006790
    33  C   -0.024399
    34  C   -0.019298
    35  C    0.041597
    36  C    0.043511
    37  C    0.040904
    38  C    0.040726
    39  C    0.056405
    40  C   -0.031720
    41  C    0.004359
    42  C    0.067917
    43  C   -0.030891
    44  C    0.064927
    45  C    0.150358
    46  C    0.042073
    47  C    0.006064
    48  C    0.072569
    49  C    0.005306
    50  C   -0.377928
    51  C    0.049770
    52  C    0.123930
    53  C    0.007332
    54  C   -0.372386
    55  C    0.086392
    56  C    0.091090
    57  C    0.048497
    58  C    0.087653
    59  C    0.050296
    60  C    0.001242
    61  C   -0.020099
    62  C    0.012281
    63  C   -0.026713
    64  C    0.043136
    65  C   -0.031207
    66  C    0.046422
    67  C    0.053175
    68  C    0.044957
    69  C   -0.020232
    70  C   -0.024643
    71  C   -0.008806
    72  C    0.004411
    73  C   -0.010892
    74  C   -0.009353
    75  C    0.000747
    76  C   -0.000898
    77  C   -0.023099
    78  C   -0.022255
    79  C   -0.023467
    80  C   -0.047982
    81  C    0.003409
    82  C   -0.019591
    83  C    0.004898
    84  C    0.087249
    85  Cl  -0.010592
    86  Cl   0.002341
    87  Cl  -0.005433
    88  Cl  -0.019369
 Sum of Mulliken charges =  -0.00000
 Mulliken charges with hydrogens summed into heavy atoms:
               1
     1  C   -0.027987
     2  C   -0.023570
     3  C   -0.040829
     4  C   -0.370124
     5  C    0.052192
     6  C   -0.020303
     7  C   -0.010793
     8  C    0.082364
     9  C    0.043651
    10  C    0.053701
    11  C    0.146816
    12  C    0.043872
    13  C   -0.027971
    14  C    0.013590
    15  C   -0.013328
    16  C    0.004923
    17  C   -0.009941
    18  C    0.082806
    19  C   -0.017968
    20  C    0.103677
    21  C   -0.019080
    22  C   -0.359396
    23  C   -0.001268
    24  C    0.072000
    25  C   -0.015752
    26  C   -0.001194
    27  C   -0.020632
    28  C   -0.020767
    29  C    0.050968
    30  C   -0.016247
    31  C   -0.031310
    32  C   -0.006790
    33  C   -0.024399
    34  C   -0.019298
    35  C    0.041597
    36  C    0.043511
    37  C    0.040904
    38  C    0.040726
    39  C    0.056405
    40  C   -0.031720
    41  C    0.004359
    42  C    0.067917
    43  C   -0.030891
    44  C    0.064927
    45  C    0.150358
    46  C    0.042073
    47  C    0.006064
    48  C    0.072569
    49  C    0.005306
    50  C   -0.377928
    51  C    0.049770
    52  C    0.123930
    53  C    0.007332
    54  C   -0.372386
    55  C    0.086392
    56  C    0.091090
    57  C    0.048497
    58  C    0.087653
    59  C    0.050296
    60  C    0.001242
    61  C   -0.020099
    62  C    0.012281
    63  C   -0.026713
    64  C    0.043136
    65  C   -0.031207
    66  C    0.046422
    67  C    0.053175
    68  C    0.044957
    69  C   -0.020232
    70  C   -0.024643
    71  C   -0.008806
    72  C    0.004411
    73  C   -0.010892
    74  C   -0.009353
    75  C    0.000747
    76  C   -0.000898
    77  C   -0.023099
    78  C   -0.022255
    79  C   -0.023467
    80  C   -0.047982
    81  C    0.003409
    82  C   -0.019591
    83  C    0.004898
    84  C    0.087249
    85  Cl  -0.010592
    86  Cl   0.002341
    87  Cl  -0.005433
    88  Cl  -0.019369
 Electronic spatial extent (au):  <R**2>=          41922.8416
 Charge=              0.0000 electrons
 Dipole moment (field-independent basis, Debye):
    X=              6.0509    Y=             -1.5311    Z=              1.6058  Tot=              6.4449
 Quadrupole moment (field-independent basis, Debye-Ang):
   XX=           -527.5285   YY=           -515.0703   ZZ=           -500.4501
   XY=              3.3313   XZ=             -7.1111   YZ=             -1.2086
 Traceless Quadrupole moment (field-independent basis, Debye-Ang):
   XX=            -13.1789   YY=             -0.7207   ZZ=             13.8995
   XY=              3.3313   XZ=             -7.1111   YZ=             -1.2086
 Octapole moment (field-independent basis, Debye-Ang**2):
  XXX=             29.8840  YYY=            -32.3997  ZZZ=             -9.9762  XYY=             17.4441
  XXY=              3.8883  XXZ=              2.4875  XZZ=            -25.8670  YZZ=              3.4511
  YYZ=             20.2806  XYZ=              2.9296
 Hexadecapole moment (field-independent basis, Debye-Ang**3):
 XXXX=         -24643.2420 YYYY=         -19903.7125 ZZZZ=         -17155.1618 XXXY=             -4.4119
 XXXZ=             61.2217 YYYX=             42.4537 YYYZ=             22.6375 ZZZX=              9.2614
 ZZZY=            -18.1686 XXYY=          -7499.2212 XXZZ=          -6909.6523 YYZZ=          -6195.8709
 XXYZ=            -27.3120 YYXZ=            -77.6386 ZZXY=            -18.4566
 N-N= 1.717234510198D+04 E-N=-4.612339407592D+04  KE= 5.006207981075D+03
 No NMR shielding tensors so no spin-rotation constants.
 Leave Link  601 at Wed Jun 29 20:40:01 2022, MaxMem=  1342177280 cpu:              60.3 elap:               2.9
 (Enter /home/mkliu/g16/l9999.exe)
 1\1\GINC-NODE02\FOpt\RB3LYP\6-31G(d,p)\C84Cl4\MKLIU\29-Jun-2022\0\\#P 
 opt b3lyp/6-31G(d, p) empiricaldispersion=GD3\\force\\0,1\C,8.52243552
 85,18.9279500055,10.7820319718\C,12.4229328978,20.1990941973,8.8757156
 103\C,8.2839362656,26.7869897563,10.5647607442\C,12.5176482906,25.6889
 59835,8.8640618022\C,8.0417272906,19.119675965,9.4657999806\C,12.05129
 42949,19.7326786885,10.1858983364\C,7.9834072339,26.7950603902,9.17524
 20002\C,11.844094892,25.8820138218,10.2214214162\C,9.014784498,19.2110
 637006,8.3675903081\C,12.2864856084,20.5085771221,11.3449689371\C,12.0
 736397615,25.1199583612,11.3491749151\C,8.9732620859,26.6089919319,8.1
 626697648\C,10.3779981951,19.0889439376,8.6848679323\C,10.3079263505,2
 6.5809633825,8.6187894631\C,10.8338541642,18.9786533516,10.0420488998\
 C,10.6119719943,26.5368211995,10.030272179\C,9.9193263459,18.916766261
 5,11.0744588831\C,9.6076698172,26.5237619836,11.0225720138\C,10.159469
 9755,19.6540486729,12.3003483928\C,9.8587157384,25.7719775669,12.22553
 54224\C,8.889200431,20.0433284051,12.8322019206\C,8.6774493765,25.5276
 524232,13.1709876555\C,7.8738507647,19.5538141268,11.9273683415\C,7.35
 72975898,25.4941643095,12.4186184332\C,6.6980371997,20.2449977869,11.7
 678883717\C,7.1606366183,26.1835585249,11.2582469886\C,6.0966018174,20
 .3329665598,10.4643698114\C,6.2118977625,25.7116012469,10.2745094985\C
 ,6.7424152365,19.7753802766,9.325493917\C,6.669025469,26.210802572,9.0
 13047125\C,6.4123635418,20.3556747851,8.0891486063\C,6.3505984237,25.5
 523839311,7.8511086536\C,7.3441906446,20.3540043506,6.9720942796\C,7.3
 06872065,25.4659593082,6.7593399676\C,8.6763365104,19.9110981679,7.119
 965248\C,8.6533333239,25.8930626056,6.9319375107\C,9.7163006662,20.583
 1232373,6.3387411698\C,9.7116481446,25.1547478965,6.245275844\C,11.101
 372921,20.5709385797,6.8095018349\C,12.8839884236,22.150292861,7.51587
 92523\C,12.8732789714,23.6053003987,7.5204484191\C,11.0876174213,25.18
 05828367,6.7707725615\C,11.4081892702,19.798677214,7.9453402057\C,13.1
 172487606,21.4279970066,8.7090373877\C,13.0983425652,24.3097722186,8.7
 330932014\C,11.3504469551,25.944985529,7.9070626624\C,13.4308376539,22
 .1701590785,9.8830395852\C,13.4265319485,23.6067854138,9.8719969775\C,
 13.0469730737,21.7111803002,11.1717276358\C,13.2172144939,24.121105087
 7,11.2937552128\C,11.3091452671,20.4737564376,12.4307447121\C,11.05821
 91459,25.0672705371,12.3731047586\C,11.1607336766,21.6353196494,13.243
 2076663\C,11.2147366702,24.0481138629,13.5101011498\C,11.9524923626,22
 .8127329093,13.0301701328\C,12.865268669,22.8448464854,12.0255705661\C
 ,8.7135772972,21.2777776812,13.5128520364\C,8.7119360345,24.1324072827
 ,13.7551388123\C,7.4674704459,22.0132638845,13.3353684689\C,7.50195365
 83,23.429096577,13.4447002825\C,6.4697631282,21.4821883725,12.47667474
 45\C,6.6772397842,24.2627573475,12.6204220985\C,5.6750031041,22.312222
 7766,11.6263245067\C,5.8007965944,23.7175040184,11.6256949224\C,5.4200
 783699,21.5915069853,10.3943257\C,5.5787173228,24.4521450284,10.384138
 0529\C,5.227765612,22.264210054,9.1699844423\C,5.2641236439,23.7277247
 537,9.1471079404\C,5.5972131514,21.5299619904,8.0011705968\C,5.5682487
 766,24.3459083568,7.9080125048\C,5.9312221929,22.2008945006,6.77478063
 23\C,5.9177184489,23.5805158993,6.7309712721\C,6.9941182934,21.4556948
 581,6.1253543012\C,6.9743993867,24.2920697765,6.0191460574\C,7.9863261
 45,22.1223768623,5.4254410249\C,7.9814112268,23.584634497,5.3785475635
 \C,9.3336131168,21.6695718069,5.5037241882\C,9.3296261598,24.041092175
 6,5.4508038898\C,11.9542487035,21.6895689978,6.5448193251\C,11.9595539
 737,24.051925684,6.5334691354\C,10.1696696142,22.8528037769,5.39100422
 38\C,11.4395877234,22.8684424178,5.8955740234\C,9.8979277403,22.024418
 8035,13.7780217\C,9.8768665435,23.4531033723,13.907542052\Cl,8.6522250
 97,26.8333138079,14.4865203968\Cl,12.0739538606,24.8419158124,14.94072
 70361\Cl,14.772755039,24.874830204,11.9653815837\Cl,13.8417772426,26.9
 765301685,8.6031482041\\Version=ES64L-G16RevA.03\State=1-A\HF=-5041.81
 48742\RMSD=4.399e-09\RMSF=7.542e-05\Dipole=-1.6508436,-1.6057191,-1.06
 10123\Quadrupole=-2.8838161,2.9383613,-0.0545452,-8.2926536,-1.0388551
 ,-7.6230232\PG=C01 [X(C84Cl4)]\\@


 CURIOUSER AND CURIOUSER

                  -- ALICE, IN WONDERLAND
 Job cpu time:       1 days  9 hours 36 minutes  3.2 seconds.
 Elapsed time:       0 days  1 hours 24 minutes 13.0 seconds.
 File lengths (MBytes):  RWF=   1098 Int=      0 D2E=      0 Chk=    138 Scr=      1
 Normal termination of Gaussian 16 at Wed Jun 29 20:40:04 2022.
