63
 energy: -142.112400362783 gnorm: 0.045408499993 xtb: 6.4.1 (a3dbbd7)
C        -1.28424946007605    0.01633490979290    3.53814211867447
C        -0.34753984579174   -1.15165127474296    3.28496920581463
C         0.92449589468448   -0.72198019231695    3.20197684963882
C         0.95542193027523    0.73935781235917    3.23964391788971
C        -0.37811799382650    1.19527900668351    3.30737580121846
C         2.29198816135874   -2.55518165366678    0.56971034939075
C         3.14572339376645   -1.40176154720624    0.56671301358163
C         2.93555788237383   -0.70482075584369    1.79668451311158
C         2.08654871481515   -1.52566193788504    2.72797803319533
C         1.56318800060442   -2.59538764405906    1.80021028929015
C         3.15634354301209    1.38607968695989    0.56272680685120
C         2.32084818051938    2.55789364565435    0.56916625077621
C         1.56437463383836    2.57492686123131    1.79139356479895
C         1.92639609315282    1.41710931396910    2.53770809846164
C         2.92657061922106    0.66318231812124    1.78703363545066
C        -0.36179525781780    3.45331561821751    0.57896969586792
C        -1.73982816945480    3.01164829983469    0.57995744460244
C        -1.96289936566869    2.31333807029837    1.80360611557254
C        -0.74203541138437    2.30565248660773    2.58024974349957
C         0.24495527137110    3.00703820600742    1.80331385747537
C        -3.35770971605113    0.71224695746017    0.56554671160212
C        -3.33536970609614   -0.71522271636205    0.56919097704294
C        -2.71236564601573   -1.15801725872075    1.80591614939715
C        -2.37871338702832    0.01459397495512    2.54419075562878
C        -2.74770252030045    1.15678668991896    1.80763082570150
C        -1.70437610860015   -2.97042528243295    0.58688564165944
C        -0.33597502944474   -3.40848305744103    0.58207968077357
C         0.27093970155623   -3.00999362696728    1.81666656142846
C        -0.78382599430940   -2.48321146266660    2.76522656521290
C        -1.93999798463354   -2.29990474787230    1.81532948459328
C        -0.24244958993499   -2.97964444479456   -1.84492744613294
C         0.73712560391355   -2.26554162653239   -2.61774078880357
C         1.95569339441240   -2.26516567697393   -1.84981158842337
C         1.71991989801835   -2.96731236699034   -0.62010631814182
C         0.36203888389151   -3.40443403868157   -0.61023044322138
C         2.77180305468178   -1.14925199419887   -1.84587873659161
C         2.39954600737975    0.01242916330182   -2.61632762154012
C         2.77406514807539    1.16742598001040   -1.84934920209231
C         3.38145487799881    0.71874172967898   -0.62461831702340
C         3.36997081835085   -0.71212378802959   -0.61661843217749
C         1.96111959501355    2.28884241493633   -1.83884437260871
C         0.73745881054632    2.29224577877051   -2.59026264797633
C        -0.24718464745657    3.00928998488282   -1.82973934621772
C         0.36033673770459    3.44025355475471   -0.59909167173802
C         1.72864822783654    2.99005609141250   -0.60426177753453
C        -1.56627610786047    2.58684148868421   -1.82676987090341
C        -1.94607705105950    1.42504469018623   -2.59192734940916
C        -2.93493648228328    0.70526917152077   -1.83843551161719
C        -3.15641735221745    1.41320037710766   -0.60395996708741
C        -2.32073293411645    2.58969054588166   -0.60781859798810
C        -2.92739632904085   -0.68193488731653   -1.84113919489135
C        -1.94522106528224   -1.39684500502914   -2.60619557394312
C        -1.55971085399606   -2.55627526735814   -1.83445296260216
C        -2.29479744840409   -2.55494638236204   -0.60733551881371
C        -3.13842968914244   -1.39731789468543   -0.61014851552457
C        -0.99645307849864   -0.70422145734256   -3.33367740471929
C        -0.99681377889926    0.73610863587609   -3.32726717588369
C         0.37343450612329    1.17856673088737   -3.33280001320931
C         1.21895662523342    0.01570838713929   -3.34013344307992
C         0.37319035253909   -1.14826592972083   -3.34648527293511
Cl       -2.02378536174713   -0.03191954925120    5.19795540241429
Cl        2.99198389348121   -2.20576391932380    4.13969845811754
Cl       -1.12763827780948   -3.58054310699548    4.16104867470097
63
 energy: -142.116157924041 gnorm: 0.019463886705 xtb: 6.4.1 (a3dbbd7)
C        -1.28628806591795    0.01432939035553    3.52440118077205
C        -0.34413252059103   -1.15086769857170    3.28089224331741
C         0.93128776335861   -0.71955415712365    3.21783946814040
C         0.96332633480487    0.73957208324117    3.24617000540821
C        -0.37530876564630    1.19793969088774    3.30608513844099
C         2.30279778467489   -2.56047939150433    0.57069062304499
C         3.15372789964331   -1.39863348395878    0.57031760120057
C         2.94765276149121   -0.69533135722159    1.79633762012901
C         2.08896889608886   -1.52175312073047    2.72364929512936
C         1.56855667133290   -2.59833007133334    1.79722229845717
C         3.16515455472855    1.40216900501185    0.56727103542412
C         2.32723295486058    2.57503788821536    0.57212849039221
C         1.57238811556014    2.58499225807659    1.79917800833745
C         1.93783216029914    1.42610287721384    2.54883640704755
C         2.93259226843402    0.67748793614669    1.78748777873574
C        -0.36192041775944    3.45942836650241    0.58019210904435
C        -1.73999018129134    3.01626305980707    0.58311001985132
C        -1.97244852818840    2.31773887820958    1.80723319911909
C        -0.74097354500753    2.30940411720905    2.57352915716482
C         0.24828100875555    3.01695057993043    1.80597109688247
C        -3.37735226300399    0.71949089525114    0.56689659314901
C        -3.36426536997149   -0.71257793025900    0.56834154918841
C        -2.73264622797522   -1.14952095957782    1.79793892239883
C        -2.39774943039933    0.01676887323420    2.54420370076721
C        -2.76019967541974    1.16051336601311    1.80444365287150
C        -1.71536334965073   -2.97383332127305    0.58478945848814
C        -0.34402579608172   -3.41946829600412    0.57978499334613
C         0.27022535720248   -3.01836880630933    1.80947813523836
C        -0.78753225613024   -2.47635794192587    2.75106914145965
C        -1.95778861480310   -2.29623117441888    1.80960169474235
C        -0.24641597086454   -2.99596342104406   -1.84353532598133
C         0.74014427977222   -2.27798768565413   -2.60752877043092
C         1.96617379350011   -2.27711323721221   -1.84755654274121
C         1.72791944418509   -2.98578169815317   -0.61912972308778
C         0.36544989768629   -3.42568410975814   -0.61229662804957
C         2.78234162030005   -1.15557702162765   -1.84510905750502
C         2.40664807757701    0.00929889450791   -2.60751147366095
C         2.78461971613818    1.17104627132430   -1.84532637708077
C         3.39521737821905    0.72344221292178   -0.62051221551923
C         3.38606130841084   -0.71096921349724   -0.61650744802616
C         1.96653272785700    2.29290611437110   -1.83594164102320
C         0.73965018478333    2.29435323854027   -2.58866589699974
C        -0.24802812351973    3.01426017528959   -1.82953808877430
C         0.36322348502349    3.45207460965658   -0.60038832610757
C         1.73469719881857    3.00477663330991   -0.60472824374014
C        -1.57057277985734    2.58817350955021   -1.82732950540715
C        -1.94992933582671    1.42363104086896   -2.59146385154752
C        -2.94205101367130    0.70327023163369   -1.83769651811517
C        -3.16960803387064    1.41923036428424   -0.60699521201871
C        -2.32645130405562    2.59151504581663   -0.60692565609222
C        -2.94000443964246   -0.68581342579067   -1.84070301350860
C        -1.95110816556282   -1.40517624643821   -2.60149533477414
C        -1.56719044511516   -2.56787242291736   -1.83566872273125
C        -2.31113161923600   -2.56242450511253   -0.60924103547680
C        -3.16041799534839   -1.40368308422033   -0.61219698721789
C        -0.99711712457407   -0.71053427425046   -3.32947716471195
C        -0.99679267139141    0.73125820921305   -3.32463462975989
C         0.37500370826413    1.17500118340628   -3.32744945833202
C         1.22135951340368    0.01070839134736   -3.33282586208065
C         0.37486997857450   -1.15541012689820   -3.33660736233352
Cl       -1.96760339761964   -0.03541278425864    5.21115715648503
Cl        3.01482906950186   -2.19223225698009    4.12496706846057
Cl       -1.15908167375588   -3.60890407798990    4.11231134080507
63
 energy: -142.116751701697 gnorm: 0.006176744089 xtb: 6.4.1 (a3dbbd7)
C        -1.28713505706919    0.01377036473546    3.51689974444506
C        -0.34428930966980   -1.15046530804758    3.27561648754644
C         0.93280436785590   -0.71809348888834    3.22636791084423
C         0.96498498737810    0.73858265975167    3.24789942318122
C        -0.37500599290144    1.20007065180978    3.30174963205604
C         2.30629359563622   -2.56204833243507    0.57264845596522
C         3.15477879802734   -1.39659560713181    0.57314637311217
C         2.94968853120546   -0.69092882334696    1.79519459091360
C         2.08857168087190   -1.51988339824737    2.72459616205033
C         1.56936096450123   -2.59582240478887    1.79602829236186
C         3.16754546132459    1.40892933490148    0.57025034625466
C         2.32809421099918    2.58172842106958    0.57383070414357
C         1.57447611686930    2.58885904988503    1.80311658531518
C         1.94125474870973    1.42981564210343    2.55438143816676
C         2.93207494080912    0.68386543455715    1.78716419763692
C        -0.36296713988375    3.46140284755887    0.57852884728593
C        -1.73950994071267    3.01771402187770    0.58249312855392
C        -1.97703196626604    2.31850944817598    1.80685186947465
C        -0.74069911326960    2.31061085967432    2.56688086636184
C         0.24862653957579    3.02136514707297    1.80518164081330
C        -3.38598192406929    0.72267411306080    0.56792339376197
C        -3.37713768800483   -0.71162986853668    0.56846429836338
C        -2.74120905274850   -1.14442066241559    1.79363176839783
C        -2.40851750097400    0.01730290729459    2.54774687081817
C        -2.76503950670269    1.16109901019724    1.80178828813092
C        -1.71883463846270   -2.97366775052671    0.58362945852445
C        -0.34741041283256   -3.42244333592231    0.57895478977368
C         0.26881965468811   -3.01784886696852    1.80419042344618
C        -0.78909083740070   -2.47130946970458    2.74481065622337
C        -1.96382568512899   -2.29176049126365    1.80515284687535
C        -0.24733759478561   -3.00180098052843   -1.84158005137774
C         0.74161361226778   -2.28253700240240   -2.60170699908105
C         1.96962162592390   -2.28142342415184   -1.84452156484688
C         1.73117757397266   -2.99526572392324   -0.61708552394147
C         0.36825250117320   -3.43620425114328   -0.61263166572584
C         2.78487493614451   -1.15769024379737   -1.84345616818129
C         2.40851372687738    0.00752212250149   -2.60163248351588
C         2.78832504321334    1.17201295164624   -1.84156403176143
C         3.40052046171720    0.72395333021151   -0.61718665159820
C         3.39335930672400   -0.71085807790363   -0.61552980902999
C         1.96838447007172    2.29347319129598   -1.83340370154172
C         0.74073921798879    2.29476078598666   -2.58738109066446
C        -0.24835995642123    3.01615835852563   -1.82981944307496
C         0.36430948984589    3.45831049772052   -0.60241594218523
C         1.73657018732460    3.01085874318323   -0.60482493521531
C        -1.57180084074700    2.58789312638585   -1.82816322700313
C        -1.95058248444251    1.42252267247952   -2.59109262021650
C        -2.94396926351031    0.70153366368938   -1.83735443563346
C        -3.17428396537367    1.42115649282583   -0.60898402580941
C        -2.32901097355925    2.59141833164057   -0.60787137030056
C        -2.94477149500837   -0.68760386997384   -1.84013985660124
C        -1.95177576544857   -1.40855627279990   -2.59855196244206
C        -1.56890187760251   -2.57125636436166   -1.83591137396616
C        -2.31835348437343   -2.56587256257518   -0.61008625410539
C        -3.16880831184255   -1.40679873490529   -0.61295728127849
C        -0.99629095830889   -0.71271413413157   -3.32665227939876
C        -0.99583678952994    0.72899962138470   -3.32252226602010
C         0.37594184096322    1.17318163273230   -3.32350194917674
C         1.22204429830517    0.00864597946125   -3.32811071019539
C         0.37592056047940   -1.15773746689413   -3.33068548211359
Cl       -1.92349381319935   -0.03521233430120    5.22557147803120
Cl        3.03512245482498   -2.19065558350294    4.11235918570576
Cl       -1.18212575451847   -3.62830849054411    4.08281511207140
63
 energy: -142.116792235315 gnorm: 0.002715357321 xtb: 6.4.1 (a3dbbd7)
C        -1.28720186839973    0.01356947436202    3.51482204386581
C        -0.34474757073856   -1.15101814555224    3.27436938961857
C         0.93268652067930   -0.71820686454976    3.22818920556124
C         0.96437916204459    0.73773553405467    3.24758168346240
C        -0.37539314610335    1.20020371192541    3.29964835131328
C         2.30582807980944   -2.56185886257704    0.57378814759174
C         3.15378413309091   -1.39604947539336    0.57410013678697
C         2.94890222859914   -0.69031754225477    1.79482441191878
C         2.08790794844401   -1.51985266842402    2.72550818455533
C         1.56903789407226   -2.59521499867029    1.79672218095141
C         3.16705399500449    1.40932004239863    0.57087924154880
C         2.32725389083202    2.58186797846441    0.57414484967490
C         1.57377032344638    2.58884827247391    1.80354556418488
C         1.94066611195384    1.42994412446770    2.55486630687162
C         2.93133313151131    0.68460135247905    1.78724672220777
C        -0.36371553336753    3.46121317154481    0.57756627782566
C        -1.73941826414185    3.01770307305238    0.58152583799799
C        -1.97763089323622    2.31799671489217    1.80597184477197
C        -0.74087632489807    2.31023186373314    2.56507623748320
C         0.24795975247540    3.02160985946909    1.80438188803600
C        -3.38635367668832    0.72308205383231    0.56797373817280
C        -3.37785975165377   -0.71147725263963    0.56848075633741
C        -2.74242678304492   -1.14370258464246    1.79320993993737
C        -2.41064663429038    0.01712331492107    2.54986565727061
C        -2.76530655176116    1.16087439494110    1.80099281578094
C        -1.71881835184242   -2.97282990566118    0.58355525619558
C        -0.34778054507415   -3.42169941035078    0.57929949972035
C         0.26837223642714   -3.01704521619276    1.80343432928785
C        -0.78915467687180   -2.46969126059457    2.74397698201490
C        -1.96408335365626   -2.29027142193670    1.80406119262964
C        -0.24721222024829   -3.00165137706151   -1.84082924722365
C         0.74171664794827   -2.28232444326706   -2.60050962631244
C         1.96939647880392   -2.28124089976044   -1.84325975745017
C         1.73095981100770   -2.99622842845178   -0.61590473542383
C         0.36881586819913   -3.43711345539281   -0.61212264861641
C         2.78424891898124   -1.15756286453945   -1.84271342821867
C         2.40807438170879    0.00717106001081   -2.60033014027003
C         2.78809833210217    1.17189866222222   -1.84044314912906
C         3.40043805355346    0.72334283973893   -0.61628433979129
C         3.39398230864316   -0.71082808853954   -0.61485353692497
C         1.96822707738916    2.29301669813932   -1.83262716104646
C         0.74086629064503    2.29454849061644   -2.58713415063207
C        -0.24833760416890    3.01625240496583   -1.83006335772336
C         0.36416340179869    3.45916539046928   -0.60308762060121
C         1.73629740958291    3.01114508543955   -0.60466815730137
C        -1.57157345129627    2.58768056944076   -1.82868028955235
C        -1.95011520071846    1.42242010248306   -2.59125800222847
C        -2.94352355205173    0.70122337496373   -1.83746172370328
C        -3.17399555714642    1.42112596905206   -0.60957304506146
C        -2.32931281243549    2.59120623710451   -0.60863979948773
C        -2.94469983971022   -0.68761348800624   -1.84006143005401
C        -1.95093324143526   -1.40873816646432   -2.59812391987548
C        -1.56849419643998   -2.57084906607757   -1.83598025179456
C        -2.31916363095810   -2.56605033431778   -0.61017058680330
C        -3.16870395288652   -1.40692978668283   -0.61311553299464
C        -0.99575966335791   -0.71269455909480   -3.32629858765832
C        -0.99536985509416    0.72883686929023   -3.32228313939929
C         0.37615906049967    1.17296439322860   -3.32281012164249
C         1.22200260318283    0.00848740470773   -3.32732002325627
C         0.37612393444342   -1.15756376777510   -3.32969878616939
Cl       -1.91132906580604   -0.03467896527193    5.22960334362587
Cl        3.04078439757138   -2.19240159518256    4.10808066879100
Cl       -1.18607580342765   -3.63141750422697    4.07755372095754
63
 energy: -142.116796843699 gnorm: 0.001132035585 xtb: 6.4.1 (a3dbbd7)
C        -1.28732231307261    0.01353138714142    3.51369515378871
C        -0.34499214946034   -1.15140933063506    3.27379173172573
C         0.93261898482461   -0.71829873896841    3.22874934899302
C         0.96388462260717    0.73732479022039    3.24735885072574
C        -0.37573432495673    1.20004104196410    3.29840887772706
C         2.30538050882575   -2.56200756078699    0.57441333539683
C         3.15314467192633   -1.39618709187089    0.57453189311610
C         2.94818940303861   -0.69031782004530    1.79455575962431
C         2.08755085310114   -1.51997356395963    2.72613608371012
C         1.56891675891925   -2.59514939844827    1.79738782247450
C         3.16650934562762    1.40878917288796    0.57094001922223
C         2.32660414172012    2.58125188161346    0.57410968655324
C         1.57300226605298    2.58848452323689    1.80337680892522
C         1.93995101342433    1.42983168223730    2.55471766986376
C         2.93095358569775    0.68457675631818    1.78735908369432
C        -0.36434701594895    3.46092642821415    0.57706647277807
C        -1.73962243226720    3.01757702708202    0.58092971029392
C        -1.97790694788239    2.31747798349629    1.80541193456369
C        -0.74117288158054    2.30986901290598    2.56441361907304
C         0.24736103286427    3.02144653116511    1.80387577980563
C        -3.38600266763835    0.72293860032745    0.56790940913882
C        -3.37736117811180   -0.71162035068197    0.56848314232511
C        -2.74273396250133   -1.14383671932472    1.79335443817704
C        -2.41143201468690    0.01687394142245    2.55121298365845
C        -2.76533806664674    1.16063527039965    1.80064478050838
C        -1.71845180848815   -2.97234380533610    0.58360773788081
C        -0.34769188171785   -3.42110390313115    0.57959229175741
C         0.26826113342447   -3.01666831383948    1.80330986324290
C        -0.78896959283465   -2.46899562070736    2.74394411778661
C        -1.96377720539346   -2.28975860323040    1.80370361972462
C        -0.24704390333169   -3.00084960195693   -1.84061609201421
C         0.74155661083587   -2.28112380687726   -2.60011201754934
C         1.96911751562568   -2.28151926985666   -1.84293642773166
C         1.73055421477311   -2.99647211823311   -0.61529071576275
C         0.36896622612889   -3.43693871639861   -0.61185311458072
C         2.78426938495255   -1.15869873348008   -1.84272216927749
C         2.40797780818702    0.00650308999896   -2.59979941596877
C         2.78774379300970    1.17135089345472   -1.83995615466710
C         3.39995720119857    0.72234893797163   -0.61597131980017
C         3.39400188623936   -0.71142463160859   -0.61460011258187
C         1.96802157827487    2.29240608956017   -1.83226148407992
C         0.74090833052283    2.29466231634553   -2.58707321277715
C        -0.24841214562491    3.01630509577423   -1.83017986311618
C         0.36388804723671    3.45922777241375   -0.60332856734275
C         1.73592182072246    3.01072975634027   -0.60456216966813
C        -1.57152872096732    2.58777409159366   -1.82897177898260
C        -1.94997471690864    1.42273879563290   -2.59147553976138
C        -2.94321532654047    0.70120183215774   -1.83757050307370
C        -3.17363255448912    1.42088750405102   -0.60979356177150
C        -2.32958385888938    2.59106560838260   -0.60903422548897
C        -2.94433871802081   -0.68744261054621   -1.84003682691383
C        -1.95026948185966   -1.40837411182755   -2.59811325096862
C        -1.56805188131643   -2.57017342441692   -1.83612719771612
C        -2.31909762091799   -2.56588716386660   -0.61016995801894
C        -3.16796919162556   -1.40686215189774   -0.61317551931435
C        -0.99556869735305   -0.71191994917417   -3.32627263558838
C        -0.99521888890723    0.72945690333778   -3.32241256768537
C         0.37631376274589    1.17343100161653   -3.32274953937888
C         1.22228430207981    0.00910842673463   -3.32711532858495
C         0.37617786603396   -1.15595141330215   -3.32907359577766
Cl       -1.90690204524416   -0.03421790678940    5.23102353310209
Cl        3.04295978632946   -2.19262997108658    4.10666846046605
Cl       -1.18600745026545   -3.63132965438191    4.07721095672405
63
 energy: -142.116799149726 gnorm: 0.000347068466 xtb: 6.4.1 (a3dbbd7)
C        -1.28730610775001    0.01356593758869    3.51363718404206
C        -0.34500622093449   -1.15153588212627    3.27371761262653
C         0.93264656100060   -0.71847964759107    3.22850961030587
C         0.96399793183610    0.73721950634968    3.24756373656817
C        -0.37560860965567    1.19980910049751    3.29851381867094
C         2.30526966395322   -2.56181410343705    0.57430699483753
C         3.15306564140351   -1.39596481336248    0.57440076015334
C         2.94809041809704   -0.69040618976031    1.79460395312827
C         2.08756860172213   -1.52021588116885    2.72614419029975
C         1.56885279501481   -2.59530727570021    1.79739608365717
C         3.16659550888487    1.40878563909191    0.57103168042102
C         2.32668518940010    2.58113451614617    0.57418204381128
C         1.57305691085310    2.58833189338209    1.80342089995637
C         1.93992825618609    1.42972238495166    2.55475108815879
C         2.93119848095601    0.68445283377632    1.78760338386842
C        -0.36415514509793    3.46089785450323    0.57727090766066
C        -1.73944113359612    3.01758611564606    0.58101641938190
C        -1.97760699846749    2.31744947599434    1.80551799505472
C        -0.74101663063418    2.30981847508335    2.56484199176770
C         0.24753249749306    3.02135776273400    1.80408897252002
C        -3.38558050622337    0.72297264712079    0.56787927004702
C        -3.37694351972775   -0.71150972668752    0.56845920558212
C        -2.74267087681342   -1.14395651620434    1.79353727469395
C        -2.41116693944375    0.01692610224829    2.55132357091337
C        -2.76514428489601    1.16079156280143    1.80073867288624
C        -1.71848345230619   -2.97233453942775    0.58360673192865
C        -0.34769099562458   -3.42104950425158    0.57955701632107
C         0.26817762286833   -3.01674417675052    1.80332267725212
C        -0.78909291130694   -2.46919540932551    2.74402503054230
C        -1.96378926739163   -2.28987518610969    1.80375566783369
C        -0.24705936371939   -3.00089737767091   -1.84071191556311
C         0.74163809270668   -2.28162645783363   -2.60048176535346
C         1.96893825791539   -2.28068760070364   -1.84288195525044
C         1.73039680495951   -2.99588167451002   -0.61535298778288
C         0.36892091333755   -3.43657166326982   -0.61184235632108
C         2.78385108706528   -1.15755659103018   -1.84260956360362
C         2.40771530479614    0.00702182231962   -2.60023412134432
C         2.78751930674330    1.17170973608925   -1.84017165328906
C         3.39976659870458    0.72280354072035   -0.61602831450414
C         3.39374583891240   -0.71076760481986   -0.61450481722776
C         1.96788175873359    2.29261662043209   -1.83242001368250
C         0.74077642831320    2.29443929361529   -2.58720327114206
C        -0.24832691272651    3.01620118445105   -1.83015630728399
C         0.36392462302918    3.45902792552959   -0.60319018455548
C         1.73592528347560    3.01059274106999   -0.60446043784019
C        -1.57137256858952    2.58774042358115   -1.82899809316729
C        -1.94978901695490    1.42262334692817   -2.59153784543759
C        -2.94304501709346    0.70125723733997   -1.83756945959867
C        -3.17332780099751    1.42091117516305   -0.60973382131595
C        -2.32931942112041    2.59110186194350   -0.60893997597461
C        -2.94413519960583   -0.68738886696771   -1.84007067786302
C        -1.95031592228951   -1.40858341830430   -2.59826116212506
C        -1.56809304211688   -2.57031549011951   -1.83617687857114
C        -2.31904541307723   -2.56574444868346   -0.61015070969558
C        -3.16773268399321   -1.40668160490391   -0.61315203047352
C        -0.99555373187019   -0.71247654360290   -3.32652190635814
C        -0.99526424108520    0.72907732927186   -3.32258948108047
C         0.37616520544709    1.17315409576083   -3.32303981143949
C         1.22203941086786    0.00869697165855   -3.32749782518197
C         0.37617831943016   -1.15697224541013   -3.32979551505120
Cl       -1.90822609337512   -0.03438186668710    5.23064547202681
Cl        3.04196695306271   -2.19313830829029    4.10699256504443
Cl       -1.18542942718352   -3.63044840974665    4.07846248671967
63
 energy: -142.116799305194 gnorm: 0.000121933622 xtb: 6.4.1 (a3dbbd7)
C        -1.28725553412568    0.01362552867231    3.51348591252179
C        -0.34492628614499   -1.15145420187940    3.27364440894740
C         0.93270653785321   -0.71842623931530    3.22856197272221
C         0.96409354255803    0.73728991682275    3.24764809363140
C        -0.37556652825364    1.19986729026089    3.29853435145829
C         2.30527357713415   -2.56184325099109    0.57428077527542
C         3.15307098663186   -1.39598281464395    0.57441645879431
C         2.94814592008364   -0.69038777103932    1.79462602881093
C         2.08763204905866   -1.52023691609758    2.72618847090367
C         1.56887667809115   -2.59534072262567    1.79737627003951
C         3.16671202428329    1.40889123419674    0.57109131192075
C         2.32680249990910    2.58128034683713    0.57422485373430
C         1.57312844497973    2.58842513180484    1.80345843159639
C         1.94000930315664    1.42980634472452    2.55478921955660
C         2.93129942452726    0.68451397429341    1.78765328731579
C        -0.36412119046520    3.46095845497463    0.57731094940302
C        -1.73943903785542    3.01759063553402    0.58105015007245
C        -1.97765413471437    2.31744168297418    1.80554167580447
C        -0.74102069605086    2.30992527276058    2.56487620531259
C         0.24757905476411    3.02147124328109    1.80413078424573
C        -3.38573236955864    0.72297532751972    0.56789166046527
C        -3.37711680226119   -0.71151315397898    0.56845488137241
C        -2.74275400435120   -1.14393740474056    1.79348755788805
C        -2.41120078505264    0.01693724415963    2.55127014969651
C        -2.76524159015933    1.16081069830063    1.80071472948390
C        -1.71856175021107   -2.97240241743372    0.58356267693775
C        -0.34773889420880   -3.42117450440795    0.57950465697432
C         0.26817057969354   -3.01683247390956    1.80326541390854
C        -0.78910921308275   -2.46917136278669    2.74392614125382
C        -1.96386957188523   -2.28990204044416    1.80371671757989
C        -0.24713725291463   -3.00111180279968   -1.84078894595872
C         0.74164579345782   -2.28181412417725   -2.60045385519180
C         1.96901136926221   -2.28067748279135   -1.84292037297016
C         1.73037216896472   -2.99586644785727   -0.61540079546192
C         0.36888977718549   -3.43668528880811   -0.61191371218847
C         2.78376199738363   -1.15734114751064   -1.84256513635891
C         2.40768929092333    0.00712688099680   -2.60022024099377
C         2.78763669614575    1.17180295105907   -1.84017436039822
C         3.39985713913022    0.72288136783146   -0.61599424870455
C         3.39368991587322   -0.71070249798941   -0.61445658512815
C         1.96798155978651    2.29270481605359   -1.83239767241171
C         0.74084096305648    2.29440443680852   -2.58715388977658
C        -0.24827622471410    3.01614926461367   -1.83009704023409
C         0.36399078983910    3.45906210728974   -0.60314842774570
C         1.73602457359048    3.01072772195638   -0.60442070837801
C        -1.57135916712014    2.58769991808288   -1.82896121612477
C        -1.94978255085673    1.42259087394255   -2.59149952063741
C        -2.94309275249301    0.70125201450255   -1.83754902105721
C        -3.17345492819261    1.42093720016780   -0.60972324646921
C        -2.32933784842732    2.59107783742760   -0.60889635739832
C        -2.94419286714994   -0.68739056204140   -1.84008395973446
C        -1.95039057251275   -1.40861154229598   -2.59830732492596
C        -1.56817778571072   -2.57043694276289   -1.83624705738571
C        -2.31911114433513   -2.56577941263744   -0.61018785030214
C        -3.16784959013204   -1.40671299188638   -0.61317486088599
C        -0.99558362461411   -0.71256390680779   -3.32662001652311
C        -0.99525203092253    0.72902495490188   -3.32255147305900
C         0.37619364509606    1.17307944516025   -3.32297710294648
C         1.22201163471975    0.00855798565199   -3.32752341990745
C         0.37615134914280   -1.15729912093510   -3.32994240815270
Cl       -1.90809862843232   -0.03451440570481    5.23082176105183
Cl        3.04205390395710   -2.19297375512922    4.10701556797338