62
 energy: -137.511485975553 gnorm: 0.142351733106 xtb: 6.4.1 (a3dbbd7)
C        -1.29770965891222    0.00000000000000    3.53163224767276
C        -0.37107604425475   -1.17478800586359    3.31058196643012
C         0.97979757550459   -0.72157705231961    3.28110534952822
C         0.97979757550459    0.72157705231961    3.28110534952822
C        -0.37107604425475    1.17478800586360    3.31058196643013
C         2.33544184946295   -2.58264348698296    0.58346340581249
C         3.18207169571150   -1.41543014636129    0.58234433372313
C         2.94373959867916   -0.69404060100004    1.80708186552027
C         1.95046398470883   -1.41556779135961    2.56176558167067
C         1.57767488865866   -2.57871801508103    1.80912454278211
C         3.18207169571150    1.41543014636129    0.58234433372313
C         2.33544184946295    2.58264348698296    0.58346340581249
C         1.57767488865866    2.57871801508103    1.80912454278211
C         1.95046398470883    1.41556779135961    2.56176558167066
C         2.94373959867916    0.69404060100004    1.80708186552027
C        -0.36119281684147    3.44519252612879    0.58582996047390
C        -1.73469290191499    3.00153459982720    0.58916793337350
C        -1.97220713510261    2.29308475607878    1.81059639720294
C        -0.73400332666893    2.27691900303500    2.56853480078419
C         0.25309257506893    2.99789064535074    1.80898867763471
C        -3.39649784746455    0.71758744312072    0.57410478167568
C        -3.39649784746455   -0.71758744312072    0.57410478167568
C        -2.77168037603652   -1.14964415915414    1.80664876434809
C        -2.42168465399864    0.00000000000000    2.56054627302143
C        -2.77168037603652    1.14964415915414    1.80664876434809
C        -1.73469290191499   -3.00153459982719    0.58916793337351
C        -0.36119281684148   -3.44519252612879    0.58582996047390
C         0.25309257506893   -2.99789064535073    1.80898867763471
C        -0.73400332666892   -2.27691900303499    2.56853480078419
C        -1.97220713510261   -2.29308475607878    1.81059639720295
C        -0.24585893810850   -3.00970705822685   -1.82232538763502
C         0.74439012833927   -2.28841876480361   -2.57822875384061
C         1.97268106729833   -2.28861170675520   -1.82114897801170
C         1.74031203428013   -3.00832022201671   -0.59623578829480
C         0.36724813466371   -3.45114129717027   -0.59443426078026
C         2.79027372790168   -1.16551010025889   -1.82330670861298
C         2.41077011246349    0.00000000000000   -2.58030971859023
C         2.79027372790168    1.16551010025889   -1.82330670861298
C         3.40598095600767    0.72109250237888   -0.59875668403540
C         3.40598095600767   -0.72109250237888   -0.59875668403540
C         1.97268106729833    2.28861170675520   -1.82114897801170
C         0.74439012833927    2.28841876480360   -2.57822875384062
C        -0.24585893810850    3.00970705822685   -1.82232538763502
C         0.36724813466371    3.45114129717027   -0.59443426078026
C         1.74031203428013    3.00832022201671   -0.59623578829480
C        -1.56847069976934    2.58049680433801   -1.82122736601016
C        -1.94730857051169    1.41533687195356   -2.58360676406823
C        -2.94243160962768    0.69434475341889   -1.82977489504240
C        -3.17479380115303    1.41444285760430   -0.60326970185865
C        -2.32688654321742    2.58113588269429   -0.60086409487791
C        -2.94243160962768   -0.69434475341889   -1.82977489504240
C        -1.94730857051169   -1.41533687195356   -2.58360676406823
C        -1.56847069976934   -2.58049680433801   -1.82122736601016
C        -2.32688654321742   -2.58113588269429   -0.60086409487790
C        -3.17479380115303   -1.41444285760429   -0.60326970185865
C        -0.99138524268633   -0.72097607833148   -3.31029871234527
C        -0.99138524268633    0.72097607833148   -3.31029871234528
C         0.38054100031802    1.16548515734434   -3.30884687187952
C         1.22668597234242    0.00000000000000   -3.30783368151334
C         0.38054100031802   -1.16548515734434   -3.30884687187952
Cl       -1.93737486741132   -0.00000000000005    5.25509316806359
Cl        3.53385685516137   -3.90160748574120    0.90006322276841
62
 energy: -137.536207763247 gnorm: 0.065702765859 xtb: 6.4.1 (a3dbbd7)
C        -1.29991864879221    0.00363879139088    3.53617334135369
C        -0.37327681403868   -1.17072035262823    3.31524674681352
C         0.97803485720427   -0.71662187714800    3.28799977656622
C         0.97629080180184    0.72477827748782    3.28293171681997
C        -0.37297919023287    1.17809225591255    3.31394101777860
C         2.40903372787315   -2.65866341416530    0.60487686055543
C         3.18369430664256   -1.39836774055571    0.58582720723855
C         2.94214313415125   -0.68803201417398    1.80572946418379
C         1.94527070557185   -1.40795882340156    2.56149036118786
C         1.56729042176146   -2.56703681721284    1.81668381736174
C         3.18113203607819    1.42382097760714    0.58451573605687
C         2.33589458541981    2.58944190443235    0.58510911274879
C         1.57731406051729    2.58419289611817    1.80984272440145
C         1.94822499070285    1.41932615485451    2.56176574202554
C         2.93902877137778    0.70240691682558    1.80653397117268
C        -0.36067682923512    3.44699865494400    0.58560212424896
C        -1.73469582635183    3.00214234598026    0.59143475066611
C        -1.97006703212562    2.29657078693062    1.81086162639310
C        -0.73493891124929    2.27975232279536    2.56856359136708
C         0.25342151766955    3.00068212383501    1.80872807465932
C        -3.39649595743570    0.71485130529976    0.57347327926199
C        -3.39635450519555   -0.71771322518415    0.57121483434465
C        -2.76953514041425   -1.14752632212443    1.80269777725773
C        -2.42046791654305    0.00425553944118    2.56136842669805
C        -2.76877316403265    1.14726656112529    1.80793422342054
C        -1.73774031734088   -2.99787354528278    0.58397391419999
C        -0.36680257198688   -3.43204540057079    0.57923309789201
C         0.24965090412203   -2.98195981353311    1.80981861948925
C        -0.73564247795366   -2.27200500191979    2.57313555809864
C        -1.97215835118369   -2.28744555825331    1.80560499801617
C        -0.25781241335607   -3.01013271058783   -1.83533889418496
C         0.73231016011298   -2.28886014480637   -2.58522163695414
C         1.95800210499371   -2.28495563620982   -1.81765534260363
C         1.73445726382250   -3.01726641282271   -0.61718028561088
C         0.35873526244587   -3.43653009067328   -0.60473717677131
C         2.78703397551349   -1.15911710811680   -1.82164551928442
C         2.41015099788599   -0.00129637716459   -2.57774306045121
C         2.78842300376880    1.16851275022781   -1.82240643423439
C         3.40154814416384    0.72917837415629   -0.59639523167050
C         3.40253707380363   -0.71042635957353   -0.59487887001663
C         1.97169074445488    2.28943371668617   -1.82000008976777
C         0.74171282947026    2.28891007259062   -2.57794413053498
C        -0.24606841419133    3.00844835920219   -1.82368590063731
C         0.36743052561408    3.45145213878898   -0.59393515280365
C         1.74031414510527    3.01116985956075   -0.59573860356404
C        -1.56962708839500    2.57941005441113   -1.82058853906732
C        -1.94908172389346    1.41542479444296   -2.58462855340077
C        -2.94454557742579    0.69479351765250   -1.83120549047282
C        -3.17506193047600    1.41428887894041   -0.60335773570951
C        -2.32708852613288    2.57921688255955   -0.60078323747246
C        -2.94660354023239   -0.69295759281725   -1.83343094910932
C        -1.95382217932027   -1.41365451405020   -2.58937395512204
C        -1.57979016155970   -2.58126085587156   -1.82894484996711
C        -2.33737374578216   -2.58343826306628   -0.60955528505577
C        -3.17754133532397   -1.41598893668901   -0.60762758669266
C        -0.99693256255723   -0.71974734530735   -3.31484090461403
C        -0.99443802295546    0.72159423653370   -3.31249928153360
C         0.37865643424497    1.16391398421610   -3.30944435882238
C         1.22246026672565   -0.00019848145458   -3.30860962178111
C         0.37448132349646   -1.16445257786912   -3.31374722016855
Cl       -1.93583158386692   -0.00414314917562    5.26094254391936
Cl        3.63076386920068   -4.00717645828096    0.93310716063841
62
 energy: -137.542964857697 gnorm: 0.016070022693 xtb: 6.4.1 (a3dbbd7)
C        -1.30105444282721    0.00740068294626    3.53798304643071
C        -0.37439062499801   -1.16633424757732    3.31365598123794
C         0.97558891143110   -0.71272500755490    3.28559074335482
C         0.97518149544926    0.72851645346854    3.28473812401809
C        -0.37271464654716    1.18223111158519    3.31545799842421
C         2.47433736366963   -2.72802635325420    0.62559234597730
C         3.18298398535710   -1.39526007922423    0.58744062201425
C         2.93072555503026   -0.68730338530661    1.79404096320834
C         1.93669393839788   -1.40626131060188    2.55235367594669
C         1.56553648553403   -2.56759144538180    1.81937510086176
C         3.18360507415993    1.43074707718380    0.58781971878293
C         2.33872757943157    2.59717379418024    0.58772940810455
C         1.57822458831123    2.59051837411709    1.81141312367222
C         1.94951258062155    1.42287031354333    2.56219636587328
C         2.93913070407809    0.70771618180216    1.80734964084942
C        -0.36096441551830    3.45060786863514    0.58592343224769
C        -1.73547741106610    3.00345702314745    0.59373464630955
C        -1.96722971417627    2.30000092255997    1.81055825860706
C        -0.73540503300246    2.28419591383851    2.56865968255080
C         0.25424676006739    3.00495729174217    1.80903391524920
C        -3.39258114088135    0.71057874574196    0.57195171304461
C        -3.40325985189800   -0.71955786283898    0.56879306607608
C        -2.77042807480032   -1.14766119459937    1.79673828358461
C        -2.41908382962725    0.00831748923594    2.55972912458367
C        -2.76633493817617    1.14448313538963    1.80939466860962
C        -1.73700390746866   -2.99526752777193    0.57692393835071
C        -0.37047096603423   -3.42879873451424    0.57366233361353
C         0.25382442637930   -2.97432469322878    1.80804753804103
C        -0.73173180318960   -2.26516945462472    2.56788246045880
C        -1.97023510856298   -2.28054827517260    1.79639117001624
C        -0.26383304353501   -3.00600423672344   -1.83789759552500
C         0.72405768869939   -2.28460582276421   -2.58261549720738
C         1.94871958722886   -2.28199572202257   -1.80512931294616
C         1.72964096788789   -3.01116124837595   -0.62240681042637
C         0.35835266210413   -3.42587853416356   -0.60610001546627
C         2.78609477658916   -1.15450783706512   -1.82266707194330
C         2.40720944521879   -0.00287598055746   -2.57262514551055
C         2.78537624808947    1.17128111281862   -1.81817757438948
C         3.40098006099302    0.73253789780005   -0.59246110749794
C         3.39110180753249   -0.70781338921822   -0.58917550497410
C         1.96984517178803    2.29091397552630   -1.81683636702140
C         0.73778741449401    2.29085282000523   -2.57627745476007
C        -0.24740221681606    3.00723672588838   -1.82392695716500
C         0.36688198270731    3.45305218201848   -0.59214158982709
C         1.73997601848403    3.01543437606299   -0.59364415167638
C        -1.57202001533014    2.57856488738004   -1.81945459861723
C        -1.95240411801099    1.41563514036338   -2.58531583776747
C        -2.94819491401264    0.69437847115495   -1.83282271752599
C        -3.17408673045182    1.41311215907021   -0.60335954923154
C        -2.32721983968005    2.57686868240664   -0.60033842380485
C        -2.95284293030482   -0.69287009339668   -1.83719381872999
C        -1.96150397349616   -1.41350519987206   -2.59557638833388
C        -1.58797738847473   -2.58101101899146   -1.83344210168759
C        -2.34778926826517   -2.58600908081928   -0.61750580292457
C        -3.18416240702517   -1.41966594386605   -0.61188364071123
C        -1.00350865984639   -0.71889561865418   -3.31955557778508
C        -0.99868173591876    0.72256736634536   -3.31394958433148
C         0.37572398635083    1.16340777442802   -3.30826680561885
C         1.21697135647253    0.00140673922381   -3.30771416485985
C         0.36904138672503   -1.16184559608362   -3.31421569267921
Cl       -1.93734906380103    0.00779365899694    5.26131324229444
Cl        3.70625269059609   -4.08694894012257    0.95442082730799
62
 energy: -137.543335748199 gnorm: 0.009372946675 xtb: 6.4.1 (a3dbbd7)
C        -1.30124419097361    0.00880550592667    3.53710250697886
C        -0.37369170859402   -1.16421991516569    3.31068834966925
C         0.97605241011075   -0.71215189512857    3.28228081081006
C         0.97425706933621    0.72952612638428    3.28335414359854
C        -0.37279284515140    1.18426105627972    3.31500228390315
C         2.49001456357019   -2.74285960573663    0.63170254931423
C         3.19132688590235   -1.40276613527831    0.58902934239738
C         2.93042523558410   -0.68992918278107    1.79083951658894
C         1.93693789858101   -1.40863491170721    2.54955918995056
C         1.57214959248235   -2.57531602837006    1.82115039806447
C         3.18009107251798    1.43024724873653    0.58812284111902
C         2.33827359203118    2.59936135944131    0.58820562888235
C         1.57753414404439    2.59287961472345    1.81183581869043
C         1.94819386320061    1.42318582685837    2.56080127495645
C         2.93648060080841    0.70658234673203    1.80640876773046
C        -0.36166106307963    3.45328500300887    0.58613425200562
C        -1.73643923604733    3.00531056093153    0.59410591885838
C        -1.96710077386647    2.30224392664585    1.81004226954677
C        -0.73624775534554    2.28699300137000    2.56897322110060
C         0.25380455952614    3.00809330713700    1.80969231270403
C        -3.39378758650716    0.71148971359468    0.57108422971849
C        -3.40487679080425   -0.71832061714117    0.56809543273120
C        -2.77153766660122   -1.14725460471959    1.79493996299381
C        -2.41858409311604    0.01054682571840    2.55776741543701
C        -2.76644327727026    1.14514375137934    1.80874197911158
C        -1.73614316053021   -2.99449508894650    0.57510768168472
C        -0.37139309621744   -3.43124595599192    0.57316925533205
C         0.25784251438550   -2.97593012960820    1.80730456649802
C        -0.72836979984859   -2.26164935281921    2.56252952662289
C        -1.96850932614702   -2.27720534314690    1.79278599752550
C        -0.26377125589468   -3.00348371808009   -1.83502633290045
C         0.72311778736331   -2.28158915629411   -2.57798112482903
C         1.94948059071140   -2.28236089498326   -1.79922660472231
C         1.73120005934799   -3.00835179561030   -0.61784013742526
C         0.36097423453211   -3.42603059175253   -0.60343095945311
C         2.78811366759607   -1.15399536984793   -1.82318604206833
C         2.40558832869363   -0.00378300072452   -2.57082011793164
C         2.78252029187340    1.17100329029123   -1.81639645722750
C         3.39577279881266    0.72958850028129   -0.59038206378465
C         3.39393993079395   -0.71191672479535   -0.58770729820933
C         1.96835231909931    2.29110313867265   -1.81590370809185
C         0.73593407187297    2.29201785161655   -2.57578690587711
C        -0.24837133367666    3.00764114716860   -1.82386553044621
C         0.36609449981584    3.45469572203292   -0.59162334430733
C         1.73886957867696    3.01699086806002   -0.59319942360221
C        -1.57343898633474    2.57928242070918   -1.81913303669610
C        -1.95424872214728    1.41656598114402   -2.58564459269224
C        -2.95041106281850    0.69504271216265   -1.83345383842613
C        -3.17578139715735    1.41433323766012   -0.60370318724776
C        -2.32768601943964    2.57718458997900   -0.60027368579949
C        -2.95573555251351   -0.69232027646440   -1.83859219394734
C        -1.96392946236029   -1.41328066978022   -2.59700099556011
C        -1.58921514919505   -2.58030067571494   -1.83376837214659
C        -2.35016515237103   -2.58563385686837   -0.61877842191391
C        -3.18592354469510   -1.41942476492507   -0.61289868313102
C        -1.00552454123763   -0.71828535151156   -3.32014841164850
C        -1.00060971308862    0.72347768285798   -3.31428479706827
C         0.37429454475104    1.16377288440197   -3.30744817698841
C         1.21498366486645    0.00250572336439   -3.30667684779322
C         0.36760259838451   -1.16059736413561   -3.31213955952523
Cl       -1.93855286344492    0.00812390842634    5.25871119504898
Cl        3.71695464333874   -4.09955934140886    0.95427051064369
62
 energy: -137.543465536831 gnorm: 0.004711286497 xtb: 6.4.1 (a3dbbd7)
C        -1.30148879626409    0.00945819203453    3.53684256939963
C        -0.37343361730917   -1.16312708377894    3.30929356947393
C         0.97610235596737   -0.71167722517208    3.27989527008500
C         0.97364736487603    0.73019225668791    3.28229495872967
C        -0.37279480100808    1.18538214941121    3.31493269423128
C         2.49725240726829   -2.74973244461560    0.63476412310402
C         3.19604064052343   -1.40765342663139    0.58951633338237
C         2.92973690174762   -0.69108870025822    1.78844653830281
C         1.93635783396758   -1.40955416413154    2.54720083607896
C         1.57606081382950   -2.58015880756792    1.82152216636290
C         3.17845411498731    1.43010681934286    0.58799961281890
C         2.33818969693174    2.60066749394977    0.58828084891448
C         1.57738387729940    2.59432907168519    1.81198841148993
C         1.94724709729823    1.42329340537290    2.55972321625840
C         2.93423927335705    0.70584011339339    1.80540521387392
C        -0.36171151851937    3.45483194300771    0.58631741020669
C        -1.73665150313397    3.00605814735253    0.59443233878781
C        -1.96683356132594    2.30331233835213    1.80990848741361
C        -0.73665645302044    2.28858778712358    2.56950077065372
C         0.25378305219814    3.00999842339306    1.81029252180948
C        -3.39448378592800    0.71178105255839    0.57078187608119
C        -3.40604333455294   -0.71794696563242    0.56822055461759
C        -2.77275116196577   -1.14754648527854    1.79439399703534
C        -2.41817278943377    0.01173821979927    2.55655337400899
C        -2.76657954654725    1.14535284254180    1.80858606403783
C        -1.73636509320759   -2.99505313223206    0.57478657453461
C        -0.37293742636980   -3.43368255873785    0.57328364421091
C         0.25971680118696   -2.97673326384428    1.80659059834753
C        -0.72638442342628   -2.25961599798031    2.55934398259894
C        -1.96728790416356   -2.27528543689017    1.79090662032519
C        -0.26340026635198   -3.00163431388504   -1.83266377008508
C         0.72275668285448   -2.27943211029885   -2.57459506759061
C         1.95051813312206   -2.28234781821328   -1.79534142202157
C         1.73165659246215   -3.00500318426356   -0.61373931066883
C         0.36252693769955   -3.42660738628775   -0.60103976973814
C         2.79001746464771   -1.15328849140168   -1.82442264694055
C         2.40528818296935   -0.00422167728272   -2.57040562271865
C         2.78096010310928    1.17068854256157   -1.81528313581187
C         3.39302872391474    0.72788641894204   -0.58910343661527
C         3.39556692393030   -0.71405087599587   -0.58728111310512
C         1.96798191356810    2.29122309679417   -1.81555087442724
C         0.73538732305881    2.29278830705268   -2.57570805889362
C        -0.24841667940086    3.00774063159078   -1.82389033688807
C         0.36598796481825    3.45572823895871   -0.59133586622171
C         1.73841298690258    3.01780382402464   -0.59308197586143
C        -1.57373465556163    2.57933218469320   -1.81879941857463
C        -1.95466217676544    1.41663577700125   -2.58568381024994
C        -2.95108760274597    0.69490631327602   -1.83359862470049
C        -3.17628287838569    1.41455926059827   -0.60371342759018
C        -2.32726291981121    2.57686178273472   -0.60015325924124
C        -2.95698640312635   -0.69245889886083   -1.83893148494362
C        -1.96464744530613   -1.41350001149992   -2.59727184002749
C        -1.58958376870535   -2.58020320194699   -1.83349137900580
C        -2.35149062958935   -2.58562410534991   -0.61872673361424
C        -3.18697052275271   -1.41962600685465   -0.61295006107026
C        -1.00603005292450   -0.71828123091290   -3.31996242844854
C        -1.00104594996495    0.72369029030453   -3.31436984468842
C         0.37413970525696    1.16389166552049   -3.30710367048654
C         1.21439895145976    0.00323250388068   -3.30631904666897
C         0.36732295411821   -1.16008656401518   -3.31089008156639
Cl       -1.93955757476650    0.00689513511299    5.25637469689939
Cl        3.71656195314006   -4.10118014497371    0.95024594314632
62
 energy: -137.543503277719 gnorm: 0.002678477675 xtb: 6.4.1 (a3dbbd7)
C        -1.30168955115138    0.00945311720891    3.53732585110283
C        -0.37350828078383   -1.16302368096047    3.30942123405731
C         0.97597337928987   -0.71153411771758    3.27944709605475
C         0.97356665573904    0.73033175067243    3.28213920972052
C        -0.37273379407541    1.18548292857512    3.31512978254224
C         2.49835080633336   -2.75108887399887    0.63518621487305
C         3.19616812220902   -1.40824511608497    0.58929511463519
C         2.92910716084677   -0.69091049733981    1.78764427233744
C         1.93560570925615   -1.40925636070140    2.54627577671667
C         1.57632654982691   -2.58062688256583    1.82104836588681
C         3.17869744889722    1.43032456260545    0.58793533341270
C         2.33842670546607    2.60094893305133    0.58827214481525
C         1.57758642411505    2.59455127381660    1.81198131272617
C         1.94716454864506    1.42325472417344    2.55952303143226
C         2.93379898182175    0.70580943113821    1.80521517822087
C        -0.36148064452149    3.45487257264339    0.58635961151225
C        -1.73649724291938    3.00588008658811    0.59458111154529
C        -1.96657954227116    2.30331176624153    1.80997100006935
C        -0.73664056634386    2.28873325723719    2.56973482780217
C         0.25397653610894    3.01020052159515    1.81046257748715
C        -3.39441822034810    0.71146691749599    0.57083127468151
C        -3.40638088967362   -0.71828272720430    0.56852895529647
C        -2.77327022235153   -1.14805021731604    1.79458809284109
C        -2.41791206022083    0.01185440280466    2.55633860653785
C        -2.76649132238453    1.14509533504697    1.80872960687096
C        -1.73688196591230   -2.99588831631835    0.57520491215429
C        -0.37379227213062   -3.43443240017771    0.57349578371387
C         0.25969080731664   -2.97641360116243    1.80635166751819
C        -0.72607533297203   -2.25929990504358    2.55892879412537
C        -1.96700218779637   -2.27507579398971    1.79081609657678
C        -0.26320569890488   -3.00116204434582   -1.83210528796721
C         0.72271184674868   -2.27895726478859   -2.57380606422773
C         1.95073190412252   -2.28204148946272   -1.79425804447616
C         1.73111902394930   -3.00281896672417   -0.61227337319847
C         0.36271902835567   -3.42641793485353   -0.60021303941518
C         2.79068107138150   -1.15283294315944   -1.82513297163627
C         2.40577457016415   -0.00423487294915   -2.57071664665395
C         2.78100316359402    1.17066572235873   -1.81510427523064
C         3.39301040163817    0.72777385019498   -0.58881642479196
C         3.39538521406264   -0.71397609225264   -0.58731569970232
C         1.96833764871909    2.29126075785267   -1.81561484076621
C         0.73560205954186    2.29289981937279   -2.57577691132650
C        -0.24812023654930    3.00753688577049   -1.82395555093083
C         0.36619468490352    3.45571921409571   -0.59127036377657
C         1.73851573905764    3.01780521737629   -0.59307192052998
C        -1.57350108807519    2.57900196900335   -1.81862148640459
C        -1.95432864111561    1.41625607052972   -2.58558370169068
C        -2.95076736465207    0.69445633955755   -1.83349900928875
C        -3.17594069924976    1.41413582256247   -0.60357595467239
C        -2.32679273589392    2.57639908968952   -0.60009875839677
C        -2.95684998721948   -0.69282265296259   -1.83871935190912
C        -1.96430656295286   -1.41380925929469   -2.59701029232105
C        -1.58947723595287   -2.58048838767076   -1.83326138794764
C        -2.35170699143205   -2.58583922378077   -0.61832707132716
C        -3.18711179909684   -1.42004107473709   -0.61272271194272
C        -1.00570836786260   -0.71855204832579   -3.31964827136082
C        -1.00071474568628    0.72346177515093   -3.31429812410693
C         0.37454178202799    1.16374575511683   -3.30714695247900
C         1.21469389098404    0.00341340877575   -3.30647732591941
C         0.36763906410631   -1.16019086932686   -3.31079180108562
Cl       -1.94015207880404    0.00668090087417    5.25549372433507
Cl        3.71192788621158   -4.09807804970198    0.94617535263776
62
 energy: -137.543516477842 gnorm: 0.001458095933 xtb: 6.4.1 (a3dbbd7)
C        -1.30181881999398    0.00930138620712    3.53793426109197
C        -0.37362516455859   -1.16320816628105    3.30992751282260
C         0.97587103172664   -0.71157077871290    3.27979730973024
C         0.97366481801141    0.73027799626980    3.28232757765546
C        -0.37268483590278    1.18529874980198    3.31529336776323
C         2.49792464124320   -2.75103358707857    0.63488271032402
C         3.19512862838093   -1.40734125466975    0.58909861177331
C         2.92889615923754   -0.69049094598534    1.78773463910121
C         1.93525579735476   -1.40882768148887    2.54627415458055
C         1.57553454763168   -2.57966162549816    1.82071417111084
C         3.17931029581446    1.43052333380394    0.58797926782031
C         2.33862462227576    2.60081346130989    0.58829209840416
C         1.57774542498859    2.59431341662854    1.81194174341683
C         1.94738338154882    1.42320041648824    2.55969387919830
C         2.93420216762242    0.70599799471362    1.80544531724007
C        -0.36133249098039    3.45444832679518    0.58632218870690
C        -1.73638660890605    3.00555104170532    0.59459903532479
C        -1.96648844741555    2.30307634303664    1.81003083379109
C        -0.73654981124222    2.28842476181179    2.56971975500739
C         0.25409532304237    3.00981543483036    1.81039176720506
C        -3.39416112247168    0.71111880084992    0.57090712992210
C        -3.40630084883293   -0.71865415824337    0.56868684404727
C        -2.77330158443366   -1.14836069113078    1.79484664680700
C        -2.41780304192350    0.01164858882061    2.55649310378112
C        -2.76634560850685    1.14480301778252    1.80885917568312
C        -1.73718364280516   -2.99639360515374    0.57564131614989
C        -0.37394771370467   -3.43428894025608    0.57368322633166
C         0.25925389355751   -2.97596176791537    1.80649194492620
C        -0.72636777351119   -2.25957214757932    2.55949987643565
C        -1.96716896644690   -2.27547683307864    1.79132604907108
C        -0.26313459477997   -3.00134275737069   -1.83235592279473
C         0.72279998880685   -2.27924008843944   -2.57416763301778
C         1.95056899211654   -2.28175189499030   -1.79443191374472
C         1.73044909928542   -3.00169509223657   -0.61216584968361
C         0.36244932313126   -3.42591302863093   -0.60019215495336
C         2.79071152258340   -1.15268179699012   -1.82525757712375
C         2.40628101007444   -0.00412666666068   -2.57101611037166
C         2.78152755280300    1.17077256045148   -1.81527357279255
C         3.39373646292885    0.72812470009858   -0.58890013943097
C         3.39490547369121   -0.71338109820618   -0.58734872401167
C         1.96869546835219    2.29124006569172   -1.81573882897732
C         0.73587343805696    2.29274987340774   -2.57583027335651
C        -0.24791399275293    3.00731902558176   -1.82401765321614
C         0.36634241152578    3.45537045324712   -0.59129772279842
C         1.73870109574174    3.01756739394234   -0.59306223689069
C        -1.57329892582102    2.57872786595381   -1.81858644534288
C        -1.95399836084148    1.41593020211238   -2.58551413229232
C        -2.95036493272035    0.69413710558229   -1.83342205273069
C        -3.17556766503611    1.41374166268023   -0.60349417189524
C        -2.32662019288142    2.57615199898565   -0.60013152217084
C        -2.95641003039764   -0.69307132337809   -1.83850904548741
C        -1.96386898053457   -1.41401560607572   -2.59677242188816
C        -1.58928638235504   -2.58075032626003   -1.83315787411966
C        -2.35148503920319   -2.58600358471797   -0.61805760340415
C        -3.18689562517441   -1.42033564232828   -0.61258969233068
C        -1.00534331964538   -0.71878039090739   -3.31949030605124
C        -1.00037384339445    0.72320532380191   -3.31421310022512
C         0.37487620549912    1.16355364028307   -3.30726849350458
C         1.21509454496748    0.00336225912101   -3.30668399046000
C         0.36797623849536   -1.16041510340301   -3.31104244781758
Cl       -1.94036652940294    0.00711850088426    5.25536269438946
Cl        3.70750582221765   -4.09494660475472    0.94300970202843
62
 energy: -137.543519010241 gnorm: 0.000449285159 xtb: 6.4.1 (a3dbbd7)
C        -1.30185515208403    0.00921551000397    3.53826205658388
C        -0.37366789878298   -1.16338438609514    3.31025740866369
C         0.97583289253740   -0.71165211649850    3.28026392183916
C         0.97374715560275    0.73019934470493    3.28251939030326
C        -0.37269504027602    1.18515708311371    3.31530332622965