156
 energy: -495.844763833357 gnorm: 8.814256071454 xtb: 6.4.1 (a3dbbd7)
C        -1.23626340000000    0.00000000000000    3.32997640000000
C        -0.38202640000000   -1.17575640000000    3.32997640000000
C         1.00015810000000   -0.72665740000000    3.32997640000000
C         1.00015810000000    0.72665740000000    3.32997640000000
C        -0.38202640000000    1.17575640000000    3.32997640000000
C         2.34433560000000   -2.60145750000000    0.59464210000000
C         3.19857260000000   -1.42570110000000    0.59464210000000
C         2.96246730000000   -0.69904370000000    1.83090550000000
C         1.96230920000000   -1.42570110000000    2.59495830000000
C         1.58028280000000   -2.60145750000000    1.83090550000000
C         3.19857260000000    1.42570110000000    0.59464210000000
C         2.34433560000000    2.60145750000000    0.59464210000000
C         1.58028280000000    2.60145750000000    1.83090550000000
C         1.96230920000000    1.42570110000000    2.59495830000000
C         2.96246730000000    0.69904370000000    1.83090550000000
C        -0.36750900000000    3.48258920000000    0.59464210000000
C        -1.74969350000000    3.03349030000000    0.59464210000000
C        -1.98579880000000    2.30683290000000    1.83090550000000
C        -0.74953540000000    2.30683290000000    2.59495830000000
C         0.25062270000000    3.03349030000000    1.83090550000000
C        -3.42570570000000    0.72665740000000    0.59464210000000
C        -3.42570570000000   -0.72665740000000    0.59464210000000
C        -2.80757400000000   -1.17575640000000    1.83090550000000
C        -2.42554760000000    0.00000000000000    2.59495830000000
C        -2.80757400000000    1.17575640000000    1.83090550000000
C        -1.74969350000000   -3.03349030000000    0.59464210000000
C        -0.36750900000000   -3.48258920000000    0.59464210000000
C         0.25062270000000   -3.03349030000000    1.83090550000000
C        -0.74953540000000   -2.30683290000000    2.59495830000000
C        -1.98579880000000   -2.30683290000000    1.83090550000000
C        -0.25062270000000   -3.03349030000000   -1.83090550000000
C         0.74953540000000   -2.30683290000000   -2.59495830000000
C         1.98579880000000   -2.30683290000000   -1.83090550000000
C         1.74969350000000   -3.03349030000000   -0.59464210000000
C         0.36750900000000   -3.48258920000000   -0.59464210000000
C         2.80757400000000   -1.17575640000000   -1.83090550000000
C         2.42554760000000    0.00000000000000   -2.59495830000000
C         2.80757400000000    1.17575640000000   -1.83090550000000
C         3.42570570000000    0.72665740000000   -0.59464210000000
C         3.42570570000000   -0.72665740000000   -0.59464210000000
C         1.98579880000000    2.30683290000000   -1.83090550000000
C         0.74953540000000    2.30683290000000   -2.59495830000000
C        -0.25062270000000    3.03349030000000   -1.83090550000000
C         0.36750900000000    3.48258920000000   -0.59464210000000
C         1.74969350000000    3.03349030000000   -0.59464210000000
C        -1.58028280000000    2.60145750000000   -1.83090550000000
C        -1.96230920000000    1.42570110000000   -2.59495830000000
C        -2.96246730000000    0.69904370000000   -1.83090550000000
C        -3.19857260000000    1.42570110000000   -0.59464210000000
C        -2.34433560000000    2.60145750000000   -0.59464210000000
C        -2.96246730000000   -0.69904370000000   -1.83090550000000
C        -1.96230920000000   -1.42570110000000   -2.59495830000000
C        -1.58028280000000   -2.60145750000000   -1.83090550000000
C        -2.34433560000000   -2.60145750000000   -0.59464210000000
C        -3.19857260000000   -1.42570110000000   -0.59464210000000
C        -1.00015810000000   -0.72665740000000   -3.32997640000000
C        -1.00015810000000    0.72665740000000   -3.32997640000000
C         0.38202640000000    1.17575640000000   -3.32997640000000
C         1.23626340000000    0.00000000000000   -3.32997640000000
C         0.38202640000000   -1.17575640000000   -3.32997640000000
C        -1.76086815247998    0.00000000000000    4.78849957557021
F        -0.76911826531252    0.00000000000000    5.67468926254662
F        -2.50968386795825   -1.06794314680471    5.04863888333743
F        -2.50968386795825    1.06794314680471    5.04863888333743
C        -0.54413818249354   -1.67468516033722    4.78849957845317
F        -0.23767107904745   -0.73147481112462    5.67468925997942
F        -1.79120914301982   -2.05683909935453    5.04863874564184
F         0.24013968171955   -2.71686350152345    5.04863903502921
C         1.42457227037960   -1.03501233722714    4.78849957248258
F         0.62223011468481   -0.45207589682711    5.67468926529602
F         1.40265511061956   -2.33913928186680    5.04863905501621
F         2.65809836182651   -0.61117154425495    5.04863869666890
C         1.42457227037960    1.03501233722714    4.78849957248258
F         0.62223011468481    0.45207589682711    5.67468926529602
F         2.65809836182651    0.61117154425495    5.04863869666891
F         1.40265511061956    2.33913928186680    5.04863905501621
C         3.37204091334889   -3.72927672645244    0.86730596148276
F         4.06564647311729   -3.51265957144658    1.98125763710227
F         4.25569947457670   -3.84739838595791   -0.11965645964809
F         2.78580317558591   -4.91533944031226    1.00324916143780
C         4.58877084110522   -2.05459160147071    0.86730597290559
F         4.59709252483521   -2.78118520641283    1.98125951001435
F         4.97417519512416   -2.85850196315549   -0.11965482382298
F         5.53562669678859   -1.13053295630600    1.00324569798425
C         4.58877084110522    2.05459160147071    0.86730597290559
F         4.59709252483521    2.78118520641283    1.98125951001435
F         4.97417519512416    2.85850196315549   -0.11965482382298
F         5.53562669678859    1.13053295630600    1.00324569798425
C         3.37204091334889    3.72927672645244    0.86730596148276
F         4.06564647311729    3.51265957144658    1.98125763710227
F         4.25569947457670    3.84739838595791   -0.11965645964809
F         2.78580317558591    4.91533944031226    1.00324916143780
C        -0.53602450593361    4.99908416128281    0.86730591619822
F        -1.22448605650957    5.23152837615597    1.98125850960180
F        -1.18149064144157    5.61404773804446   -0.11965571789346
F         0.63540201352706    5.61404743764837    1.00324736766175
C        -4.92005227074660    1.03501232949151    0.86730592957069
F        -5.35386609588658    0.45207588830481    1.98125865327758
F        -5.70437742108406    0.61117153086585   -0.11965558739362
F        -5.14292645153878    2.33913927311179    1.00324714649869
C        -3.49548004549360    0.00000000000000    3.71645041414084
F        -4.73163621497510    0.00000000000000    3.22571838476757
F        -3.39327517264965   -1.06794314680471    4.50254938956302
F        -3.39327517264965    1.06794314680471    4.50254938956303
C        -0.53602450593361   -4.99908416128281    0.86730591619822
F        -1.22448605650957   -5.23152837615597    1.98125850960180
F        -1.18149064144157   -5.61404773804446   -0.11965571789346
F         0.63540201352706   -5.61404743764837    1.00324736766175
C         0.34440953624153   -4.35941144868709    2.62817404748705
F        -0.83992598883967   -4.95213069234126    2.75037577510431
F         1.15529636597892   -5.23632261667420    2.04303359185445
F         0.80829780400759   -4.16837989546168    3.85992670963205
C        -2.84103082519036   -3.32439911178427    2.62817407941587
F        -2.23127406184888   -4.50005340761388    2.75037746012492
F        -4.01248672303643   -3.55720929213525    2.04303264409737
F        -3.10404037880941   -2.89718378306488    3.85992609894427
C         4.03961820246674   -1.67468514775899   -2.62817407948106
F         4.96930660042402   -0.73147479244130   -2.75037763231443
F         3.71458666614023   -2.05683907990834   -3.85992603200073
F         4.62303373288713   -2.71686348978893   -2.04303253910982
C         4.03961820246674    1.67468514775899   -2.62817407948106
F         4.96930660042402    0.73147479244129   -2.75037763231441
F         3.71458666614022    2.05683907990832   -3.85992603200073
F         4.62303373288711    2.71686348978894   -2.04303253910982
C         4.92005227074660    1.03501232949151   -0.86730592957069
F         5.35386609588658    0.45207588830481   -1.98125865327758
F         5.14292645153878    2.33913927311179   -1.00324714649869
F         5.70437742108406    0.61117153086585    0.11965558739362
C        -2.82790274436383    2.05459160758554   -3.71645040671519
F        -3.82797483682855    2.78118494419178   -3.22571836876305
F        -2.11749631416700    2.85850222732984   -4.50254863174647
F        -3.37293748548841    1.13053297859378   -4.50255013394648
C        -3.37204091334889    3.72927672645244   -0.86730596148276
F        -4.06564647311728    3.51265957144662   -1.98125763710229
F        -2.78580317558593    4.91533944031228   -1.00324916143777
F        -4.25569947457673    3.84739838595791    0.11965645964807
C        -2.82790274436383   -2.05459160758554   -3.71645040671519
F        -3.82797483682855   -2.78118494419178   -3.22571836876305
F        -3.37293748548841   -1.13053297859378   -4.50255013394648
F        -2.11749631416700   -2.85850222732984   -4.50254863174647
C        -4.58877084110522   -2.05459160147071   -0.86730597290559
F        -4.59709252483521   -2.78118520641283   -1.98125951001435
F        -5.53562669678859   -1.13053295630600   -1.00324569798425
F        -4.97417519512416   -2.85850196315549    0.11965482382298
C        -1.42457227037960    1.03501233722714   -4.78849957248258
F        -0.62223011468481    0.45207589682711   -5.67468926529602
F        -2.65809836182651    0.61117154425495   -5.04863869666891
F        -1.40265511061956    2.33913928186680   -5.04863905501621
C         1.76086815247998    0.00000000000000   -4.78849957557021
F         0.76911826531252    0.00000000000000   -5.67468926254662
F         2.50968386795825    1.06794314680471   -5.04863888333743
F         2.50968386795825   -1.06794314680471   -5.04863888333743
C         0.54413818249354   -1.67468516033722   -4.78849957845317
F         0.23767107904745   -0.73147481112462   -5.67468925997942
F        -0.24013968171955   -2.71686350152345   -5.04863903502921
F         1.79120914301982   -2.05683909935453   -5.04863874564184
156
 energy: -501.937312576637 gnorm: 6.288319599903 xtb: 6.4.1 (a3dbbd7)
C        -1.23006425969191    0.00085989448257    3.31957038511939
C        -0.38226051999693   -1.17698200040043    3.32027796603642
C         1.00211557253810   -0.72781443230588    3.32096625322953
C         1.00004371736376    0.72857637655967    3.32377940444864
C        -0.38296351399029    1.17560581772908    3.33296378892567
C         2.34133214863528   -2.60158590672374    0.59471539890546
C         3.19591573689686   -1.42192396137327    0.59571451708593
C         2.96289555709370   -0.70078723701255    1.83232497179118
C         1.96423118280340   -1.42595722120394    2.59285136239368
C         1.58242777625714   -2.60178813419849    1.83191017517013
C         3.18814214325148    1.42039362877228    0.59728989994601
C         2.33937475990388    2.60078576191592    0.59427879247655
C         1.57874457390093    2.60238471428561    1.83198799600066
C         1.96365026010567    1.42748540838262    2.59383967942523
C         2.96338472400532    0.70094925790061    1.83139588995331
C        -0.36871202532201    3.48413318217286    0.59624661889189
C        -1.74956596766851    3.03117144214209    0.60027157124297
C        -1.98306788103482    2.30740833113137    1.82892978013261
C        -0.74943187880114    2.31000360212665    2.59216804292633
C         0.24994089489638    3.02956907147278    1.83328224410931
C        -3.42820101287130    0.72651750244754    0.59560716129623
C        -3.42475097039921   -0.72666791685682    0.59845519028984
C        -2.80936780404428   -1.17254256970686    1.82987388807531
C        -2.42476275345442    0.00055432813089    2.58538142974605
C        -2.80654459456866    1.17753228320354    1.83145140169171
C        -1.75064491186524   -3.03306529216705    0.59223548555258
C        -0.36900182945752   -3.48054775381683    0.59225472585298
C         0.25107717812808   -3.03020394042530    1.83086747758489
C        -0.74974637522121   -2.30875611391372    2.59279313878474
C        -1.98658786616514   -2.30862442962917    1.83021039762609
C        -0.24912194478237   -3.03231230422860   -1.82984120097660
C         0.75031740778247   -2.30995099214411   -2.59108799376433
C         1.98117506828849   -2.31002595441806   -1.83053613189274
C         1.74700633122450   -3.03290507175972   -0.59881885113469
C         0.36929515823591   -3.48304126169740   -0.59920401618309
C         2.80971670870822   -1.17597941330389   -1.83106157972688
C         2.42643804075072    0.00035299159812   -2.59434929329541
C         2.80245014892792    1.17564789493261   -1.83121595768127
C         3.41850048374429    0.72212926755485   -0.59497632733216
C         3.42610811281158   -0.72566227228262   -0.59500401210246
C         1.98185222798898    2.30906141671534   -1.83183040271548
C         0.74983657741875    2.30922926751318   -2.59181660476606
C        -0.24744854512464    3.03289885319572   -1.83021439321145
C         0.37011937603384    3.48288319598178   -0.59967184890210
C         1.74569311574251    3.03381764869026   -0.59780852293320
C        -1.57942520221462    2.60273593540938   -1.83194398286394
C        -1.96198235825562    1.42726337637353   -2.58779544304902
C        -2.96317477043192    0.69822907531686   -1.82743544422784
C        -3.19693155601994    1.42416207437610   -0.60007991369043
C        -2.34772322008769    2.60248905360979   -0.59564941181776
C        -2.96079924341215   -0.69647203337718   -1.82992671850771
C        -1.96568985388037   -1.42796399768604   -2.59635873491914
C        -1.58032189539584   -2.60245021050286   -1.82665489916753
C        -2.33954406378705   -2.60161416016080   -0.59648232221300
C        -3.20215050135415   -1.42820442866283   -0.59567755217469
C        -0.99810094280623   -0.72543084183410   -3.33138160376123
C        -0.99474038683560    0.72291286042876   -3.32618117854847
C         0.38185451538776    1.17699368992814   -3.33224205411535
C         1.23606634244982    0.00178923904820   -3.32731858895387
C         0.38023274775931   -1.17682144514236   -3.32842735735111
C        -1.78183686330366    0.00176968900772    4.73655228379384
F        -0.79691792736024    0.04491090352090    5.71768660631664
F        -2.54006495718447   -1.02465034464136    5.08062823284613
F        -2.48991950669871    1.09244757480928    5.07982087262645
C        -0.54803399701551   -1.69847088671002    4.75466637815294
F        -0.26294600607040   -0.78018955735223    5.72019869338065
F        -1.74773183426842   -2.13396649882215    5.05508430317830
F         0.16404400309542   -2.74930924064407    5.05351661671942
C         1.44489014778196   -1.05189046283177    4.75552514284630
F         0.67267778975077   -0.47444770823074    5.71604748653215
F         1.48367674252734   -2.32240871828884    5.05165135063123
F         2.66554570335037   -0.69353715863495    5.05154854734899
C         1.44593232328704    1.04780108543603    4.76151058685617
F         0.62911230632286    0.51560131512700    5.70554326602250
F         2.66587417979460    0.69625044401204    5.05126238995279
F         1.40111414370834    2.34421684309124    5.05192497652417
C         3.36370984412091   -3.73225757102506    0.85615960569041
F         4.03665961855768   -3.56359469623743    1.99381611454028
F         4.20902807584215   -3.91820129903572   -0.12116893261966
F         2.78794550964458   -4.91814072701106    1.00268392999414
C         4.58742860966970   -2.04814166556207    0.85703484074746
F         4.63641794636929   -2.73755182925929    1.99360014430011
F         5.02819451816654   -2.79237117812540   -0.11819788852953
F         5.54031066511121   -1.13041376778646    1.00655502748727
C         4.56195889438698    2.04279622931158    0.83765035317959
F         4.64228142401389    2.74930832897136    2.01861907847520
F         5.02682447781335    2.83176034947044   -0.08797457255532
F         5.55174711147658    1.13362096128289    1.05817780881607
C         3.36076243216963    3.72747391608911    0.85405930985249
F         4.03916817897024    3.56438557011668    2.00140247721999
F         4.20849202551149    3.92561960548801   -0.12950853013754
F         2.78589010163436    4.91868020731970    1.00495897748942
C        -0.53665978314661    4.99817562557283    0.86694809869738
F        -1.22512100956554    5.23270908836805    1.98259403221636
F        -1.17875256096191    5.61666557002362   -0.11857012568540
F         0.63593044927230    5.61588471276127    1.00368881078543
C        -4.91994352442035    1.03584163347174    0.86455318010163
F        -5.37038567278074    0.46094642144980    1.95656808235395
F        -5.70624291513733    0.61453420746751   -0.11939401938637
F        -5.14567202889083    2.33778329619083    1.00543185215964
C        -3.49383123959512    0.00012635222284    3.69659108527073
F        -4.72107719403592   -0.01048106590612    3.25381287883651
F        -3.43435457642745   -1.07863328709970    4.49474146101272
F        -3.42969454919605    1.09520434548514    4.49557605065616
C        -0.53113257046992   -4.99769628107537    0.85453517030907
F        -1.24140336439040   -5.26362596664601    1.93288166843912
F        -1.18355565382009   -5.61583045386407   -0.12162496937311
F         0.60127618665682   -5.64395962562993    0.93047745103896
C         0.35570292030279   -4.35319792084888    2.62756569407229
F        -0.80756703867912   -4.94830533220634    2.80094601815010
F         1.19129074542237   -5.21365075479857    2.11801545907246
F         0.81052226324920   -4.17128973216359    3.86273523108987
C        -2.84448089133971   -3.32084049502045    2.62509309589814
F        -2.26360339926841   -4.48962204470217    2.76312978163554
F        -4.01365887538430   -3.55812224915147    2.04399251834305
F        -3.10731403330120   -2.90151056743374    3.86091365982422
C         4.03543225071522   -1.67918415609432   -2.62814859679351
F         4.96859684882182   -0.76658440415604   -2.76547098330824
F         3.71733245936437   -2.05950374380186   -3.85967128348883
F         4.62420125343848   -2.71826923665115   -2.04640186824637
C         4.02618278410962    1.68326637711514   -2.62372964943964
F         4.96118183913817    0.75566991952730   -2.80256269635372
F         3.71703144795415    2.05931213700049   -3.86279900594538
F         4.58735026783007    2.75584380932551   -2.11888458693130
C         4.88379597800603    1.05273741382447   -0.85237951141995
F         5.40308073829302    0.43420106414450   -1.94968937984569
F         5.19553362288544    2.30521943000398   -0.98062854092054
F         5.73865629738517    0.56955886917240    0.09782338462191
C        -2.82490545948658    2.05579273200937   -3.69914225940225
F        -3.82516338868714    2.76605053009513   -3.25397663197594
F        -2.13594678744942    2.89048794449782   -4.49312819892741
F        -3.40991766066189    1.13386265552884   -4.49793466407138
C        -3.37131974488244    3.72956147345874   -0.86435676985338
F        -4.07387039871065    3.52958262830898   -1.95666467879795
F        -2.78879510564573    4.91596115617125   -1.00552761020429
F        -4.25518150100616    3.85121548943298    0.11930853445407
C        -2.82706853687935   -2.05633290685855   -3.71490327251532
F        -3.81269807033416   -2.78287472756528   -3.25424640007806
F        -3.37573552597923   -1.13154731598055   -4.50469831012623
F        -2.11989275824894   -2.85995527406358   -4.50423413093260
C        -4.58919905432151   -2.05403647931938   -0.86587926845756
F        -4.61565236333009   -2.78335226397674   -1.95523920172998
F        -5.53680110517376   -1.13331799633424   -1.00514035250167
F        -4.97566659402598   -2.85953499239893    0.12083912853129
C        -1.41918157495915    1.02974270740301   -4.76731811823916
F        -0.64959520770768    0.47224454530602   -5.68620731725642
F        -2.65523320478889    0.58252658206582   -5.07661667281885
F        -1.36955858778320    2.34741216050578   -5.07789364224176
C         1.77097971286047    0.00374136210715   -4.77958999875294
F         0.81350157648713    0.03720635818813   -5.68579278543194
F         2.50980844702283    1.07020651629087   -5.05285402892443
F         2.56034820588182   -0.99876250307420   -5.05289977855541
C         0.54575145350576   -1.68628942705370   -4.77911563675710
F         0.21363370974764   -0.78644601772381   -5.68562415638101
F        -0.23888662580358   -2.71907839311243   -5.05105590802000
F         1.74351259320860   -2.12774025112964   -5.05088175329429
156
 energy: -507.013079033270 gnorm: 5.081787652721 xtb: 6.4.1 (a3dbbd7)
C        -1.22648951216065    0.00484643052217    3.31720273872126
C        -0.38199690461915   -1.17975404671500    3.31527066874522
C         1.00488850101524   -0.72938714750996    3.31442956501261
C         0.99951218986216    0.73138702801149    3.32370552764414
C        -0.38378101749132    1.17625076146268    3.33421993682114
C         2.33925264796833   -2.60395459073193    0.59584722545238
C         3.19542209639378   -1.41834683103588    0.59770416625700
C         2.96255454348387   -0.70281020021491    1.83495885806108
C         1.96632700420136   -1.42535438337846    2.58926920872973
C         1.58510615697893   -2.60150301608010    1.83331719170667
C         3.18548025450587    1.41887202773072    0.60266272061502
C         2.33501908861446    2.60477047222968    0.59443619270801
C         1.57600732957565    2.60034312297425    1.83526241119883
C         1.96618054952241    1.43032813140746    2.58847150020429
C         2.96230153803038    0.70279929580032    1.83371745758158
C        -0.37019891403728    3.49253418484063    0.59942518453925
C        -1.74901302779695    3.02764528719160    0.60671479643078
C        -1.97968423216408    2.30754500878519    1.82509862567910
C        -0.74900839311981    2.31385029648403    2.58782623957353
C         0.24889162443070    3.02487325754931    1.83591559401072
C        -3.43475792810560    0.72659075744064    0.59767774896940
C        -3.41934401200758   -0.72669515051425    0.60337509837300
C        -2.81161597820756   -1.16776703123168    1.82389285857283
C        -2.42773730251355    0.00113688481570    2.57609562848562
C        -2.80474404390303    1.17981254283436    1.83293706476345
C        -1.75181392871125   -3.03208616849662    0.58877931051304
C        -0.37147513099847   -3.48221785932520    0.58972101958312
C         0.25119416364775   -3.02697276317306    1.83207485364049
C        -0.75011414247060   -2.31042843952316    2.59023151456291
C        -1.98865067367698   -2.31224671511340    1.83201948742695
C        -0.24726445066120   -3.03087807196904   -1.82762259337695
C         0.75205721820415   -2.31445320495732   -2.58480214720505
C         1.97347557755900   -2.31334852471089   -1.82733947953187
C         1.74328861116333   -3.03195432351178   -0.60472138740681
C         0.37165175331967   -3.47970823925365   -0.60509686460979
C         2.81365867491025   -1.17703150608142   -1.83437425334341
C         2.42747639404268    0.00076507795587   -2.59356720654772
C         2.79678807637528    1.17529173994382   -1.83458226520157
C         3.41638404238967    0.71679231557253   -0.59745293820203
C         3.42623980414363   -0.72436854264309   -0.59600302252757
C         1.97697734442996    2.31284866118116   -1.83206176797478
C         0.75045678237003    2.31044747297839   -2.58729558380016
C        -0.24399058749737    3.03150057520247   -1.82778356805092
C         0.37308389443144    3.47723141619055   -0.60585803279688
C         1.74131381429160    3.03468474517031   -0.60144605278009
C        -1.57741673795748    2.60260659021456   -1.83344948873127
C        -1.96464221597621    1.43115158026009   -2.58455598291678
C        -2.96112711129518    0.69668929367543   -1.81960434172082
C        -3.19437648690970    1.42213026074434   -0.60651006781593
C        -2.35268290612464    2.60678384497275   -0.59823520487954
C        -2.96101383428814   -0.69251562472168   -1.83068143967153
C        -1.97066723197470   -1.43126977498028   -2.59897751049994
C        -1.58065830376629   -2.60422060130055   -1.82174634537026
C        -2.33294177302646   -2.60072858110551   -0.59863113700626
C        -3.20796060394910   -1.43179092834232   -0.59814706515975
C        -0.99545270761726   -0.72403207592694   -3.33194823111266
C        -0.99011068190661    0.71985527435054   -3.32680334615191
C         0.38242661058547    1.17905055558173   -3.33280304122823
C         1.23566778344612    0.00522660169916   -3.32618050234123
C         0.37740185656753   -1.17808008232299   -3.32929443896179
C        -1.81099116455813   -0.01226416692472    4.68463586124585
F        -0.82590823898104    0.11775498568363    5.77106514328816
F        -2.53906795448822   -0.97982893875962    5.11911710073730
F        -2.41913834929652    1.10369432946308    5.13200060039467
C        -0.55156812798240   -1.72247873343809    4.71771076926253
F        -0.34654437744596   -0.85808312838342    5.76363417560363
F        -1.71604920478695   -2.18092416309660    5.06025212920147
F         0.11683740455633   -2.76849191946367    5.05856171190684
C         1.46541854933375   -1.07044805822617    4.72175153156488
F         0.79740649299517   -0.51266688168365    5.75502403963390
F         1.53318514799770   -2.31236505249480    5.05353118829033
F         2.66990214417446   -0.74132447266126    5.05377116762052
C         1.46587134378512    1.05912122466868    4.73529115808234
F         0.62333740800905    0.61282420183047    5.73391521651450
F         2.67177195682539    0.74638028338599    5.05412036759346
F         1.39930517124867    2.34725607440948    5.05395593211553
C         3.35480189704144   -3.73437368183169    0.84125068721350
F         4.02392150627090   -3.59435630316160    2.00864133633051
F         4.18407415311663   -3.95923417898883   -0.12211526929158
F         2.79173646573764   -4.91930432054693    1.00132153099194
C         4.58643159587205   -2.04058740050121    0.84372123493610
F         4.66144723429101   -2.71580255450948    2.00793836955077
F         5.06105130022992   -2.75624885692465   -0.11466181124493
F         5.54181793195687   -1.13439438729345    1.01097336111095
C         4.53459669523436    2.02332600032271    0.79502737377883
F         4.67888726167638    2.73925298186320    2.06969123034439
F         5.06370155413969    2.82486589868154   -0.04561155801006
F         5.54862695947551    1.17668681046447    1.15301284274831
C         3.34962544382387    3.72633676908175    0.84024624396421
F         4.02454982813188    3.59908823627120    2.01887160098875
F         4.17697896329524    3.97536075718199   -0.13590519108639
F         2.78704397784068    4.92007870339610    1.00660771325557
C        -0.53770065284483    4.99786584460273    0.86656495133680
F        -1.22563518328753    5.23399373824142    1.98412917058593
F        -1.17480539322212    5.61985201927423   -0.11686047535832
F         0.63666602097810    5.61789168771695    1.00429751572016
C        -4.92012382751325    1.03682889697636    0.86203061464321
F        -5.38723740162475    0.46985332810274    1.93165328298579
F        -5.70835759046798    0.61905170391328   -0.11893298996446
F        -5.14876112339997    2.33567285910878    1.00821644131366
C        -3.48857698384170    0.00260605077547    3.67477784000670
F        -4.71139288633618   -0.02101714610837    3.28371305674710
F        -3.48671771155656   -1.10582977796693    4.48156806563141
F        -3.50910797406216    1.11737734183774    4.46232329566920
C        -0.52350356087733   -4.99566724194835    0.84053708027123
F        -1.24968989940285   -5.29165907070404    1.90519085159658
F        -1.18520814505997   -5.61672359764643   -0.12244238472563
F         0.58357879483006   -5.66286233775086    0.89039565566105
C         0.36919607468599   -4.34675526933461    2.62574145815228
F        -0.78567639839592   -4.95446602725997    2.83377233755950
F         1.21003950230458   -5.20384524164915    2.16143355217827
F         0.81237766004778   -4.17533706341600    3.86246838546738
C        -2.84881888603806   -3.31683408784479    2.62146308524169
F        -2.29861228301751   -4.47864878210865    2.77703823079726
F        -4.01510140478326   -3.55912181122092    2.04499148107668
F        -3.11139695960281   -2.90741224487400    3.86107421233463
C         4.03091032582955   -1.68435463922091   -2.62812680227364
F         4.96782177805738   -0.80559930003300   -2.77997799836096
F         3.72051924935262   -2.06331984424266   -3.85910727573873
F         4.62514270386190   -2.72047949902995   -2.05071503153947
C         4.01334621642470    1.69190774438829   -2.62009732744074
F         4.95969036781646    0.77770488332439   -2.83984230353871
F         3.72050018479391    2.06196721941304   -3.86274693959550
F         4.56425957701594    2.78230688680144   -2.16680082286403
C         4.84140235856892    1.07375510692104   -0.83120421663831
F         5.45285191776320    0.41961826580070   -1.93799255539373
F         5.24011630800721    2.27278761654939   -0.98488035516567
F         5.77791891690325    0.51003220651460    0.01988901063201
C        -2.82444368335724    2.06150958572230   -3.68365717034180
F        -3.82428138199387    2.75142903370457   -3.28240146595953
F        -2.20004568411778    2.94291397945942   -4.44825816895323
F        -3.47089982171839    1.16439894982306   -4.46822634865333