63
 energy: -142.084106367088 gnorm: 0.143810707477 xtb: 6.4.1 (a3dbbd7)
C        -1.30524132879597    0.00000000000538    3.57807329023422
C        -0.38198622120159   -1.16615737488772    3.28622995044209
C         0.97316446785684   -0.71953336628746    3.26852105894251
C         0.97316446785530    0.71953336630216    3.26852105894473
C        -0.38198622120459    1.16615737490379    3.28622995045274
C         2.33525790565848   -2.58178581715533    0.58265918378867
C         3.18402429064640   -1.41551052449968    0.58305164633927
C         2.94575551469093   -0.69331830539435    1.80727245276214
C         1.94633616722705   -1.41428833030776    2.55691587181014
C         1.57537284635923   -2.57710002453835    1.80571263196464
C         3.18402429064568    1.41551052450295    0.58305164633618
C         2.33525790565840    2.58178581715875    0.58265918378237
C         1.57537284635929    2.57710002454614    1.80571263195897
C         1.94633616722623    1.41428833031814    2.55691587180842
C         2.94575551468950    0.69331830540176    1.80727245276124
C        -0.36286725388684    3.43716117593932    0.57905462418204
C        -1.73307079475598    2.99275061625332    0.57524951534827
C        -1.97752320629156    2.27496221823572    1.79457083857807
C        -0.73661625909686    2.27496497778529    2.56523814188962
C         0.24797249911112    2.99276091828423    1.80557303834060
C        -3.36590164017822    0.71953732333088    0.57375248902312
C        -3.36590164017888   -0.71953732332215    0.57375248902510
C        -2.78105190250946   -1.16617827543313    1.79633080427055
C        -2.63331800734743    0.00000000000824    2.75326019131418
C        -2.78105190250706    1.16617827544612    1.79633080426590
C        -1.73307079475815   -2.99275061624643    0.57524951535621
C        -0.36286725388906   -3.43716117593443    0.57905462419038
C         0.24797249911082   -2.99276091827599    1.80557303834608
C        -0.73661625909661   -2.27496497777287    2.56523814188986
C        -1.97752320629363   -2.27496221822376    1.79457083858313
C        -0.24045690066217   -3.00743782548085   -1.83034246730529
C         0.75231661586805   -2.28840993805800   -2.58424128273324
C         1.97824017738855   -2.28845527885670   -1.82288383798471
C         1.74258918722144   -3.00745695556584   -0.59875134393160
C         0.36899288245124   -3.44813425118672   -0.59934302533638
C         2.79566620008723   -1.16591822783908   -1.82325695863853
C         2.41697359109874   -0.00000000000271   -2.58108531976838
C         2.79566620008779    1.16591822783556   -1.82325695864148
C         3.40959680691412    0.72110795434846   -0.59778286565664
C         3.40959680691433   -0.72110795434857   -0.59778286565546
C         1.97824017738961    2.28845527885345   -1.82288383799084
C         0.75231661586926    2.28840993805322   -2.58424128273948
C        -0.24045690066036    3.00743782547884   -1.83034246731341
C         0.36899288245285    3.44813425118749   -0.59934302534530
C         1.74258918722258    3.00745695556589   -0.59875134393955
C        -1.56217286029713    2.58178679356912   -1.83784975797872
C        -1.93879975252934    1.41553008402889   -2.59849355392507
C        -2.93052386427469    0.69331652856981   -1.84222173469045
C        -3.15943698990261    1.41427069975303   -0.61403881020582
C        -2.32163160591617    2.57707956787764   -0.61452432163280
C        -2.93052386427455   -0.69331652856949   -1.84222173468868
C        -1.93879975252999   -1.41553008403179   -2.59849355392122
C        -1.56217286029877   -2.58178679357009   -1.83784975797151
C        -2.32163160591823   -2.57707956787401   -0.61452432162573
C        -3.15943698990344   -1.41427069974849   -0.61403881020168
C        -0.98033776527170   -0.72109715720207   -3.32415755726590
C        -0.98033776527144    0.72109715719620   -3.32415755726739
C         0.39032106020777    1.16579648770428   -3.31706046827290
C         1.23757908177170   -0.00000000000348   -3.31355725238661
C         0.39032106020722   -1.16579648771087   -3.31706046826971
Cl       -1.60949318930206   -0.00000000015797    5.36443419001363
Cl       -4.09957109178614    0.00000000004209    3.81802953081684
Cl       -2.97346810388744    3.46726616685299    2.72333617765162
63
 energy: -142.109324603190 gnorm: 0.063369951713 xtb: 6.4.1 (a3dbbd7)
C        -1.30625301223350   -0.00489542054553    3.57412180855131
C        -0.38123304438452   -1.17011205512733    3.28510357642323
C         0.97429511484444   -0.72271561733912    3.26807256694366
C         0.97579961648032    0.71603128230057    3.26831530608054
C        -0.38043228445656    1.15527658682626    3.26939495872325
C         2.33579352715954   -2.58316397245793    0.58187123301031
C         3.18474933435655   -1.41700287314812    0.58253305442749
C         2.94618754206131   -0.69531744120627    1.80607107758279
C         1.94750260820316   -1.41668873331980    2.55626580626331
C         1.57659688231022   -2.57940536877553    1.80523184986617
C         3.18601256382768    1.41433760752017    0.58147377388908
C         2.33963668014224    2.58116213768301    0.57932900960779
C         1.57965499651960    2.57379056543693    1.80243106920104
C         1.94875676753231    1.41210025095156    2.55622607453182
C         2.94646411006555    0.69173926299771    1.80585567973267
C        -0.35746495060288    3.43362941882929    0.56952617727599
C        -1.72095559088007    2.99867971516604    0.56026137359963
C        -2.03472399212526    2.35341687328796    1.84859993958101
C        -0.72736538149095    2.26467465206871    2.55189249039140
C         0.25204931503464    2.98478447540737    1.79625893195019
C        -3.35840879858376    0.71051107343940    0.57852001610414
C        -3.35937773700858   -0.73143282116377    0.57448032307787
C        -2.78149326882306   -1.18006852931012    1.79735305522274
C        -2.63305952464691   -0.01049652802190    2.74956893729231
C        -2.80548610886064    1.15384100375139    1.80020262258494
C        -1.73120631116935   -2.99975073806447    0.57532439829421
C        -0.36091048371082   -3.44124881326492    0.57894023333257
C         0.24972341210514   -2.99635428147198    1.80540536185841
C        -0.73516155504071   -2.28056265250743    2.56591713452346
C        -1.97640486523742   -2.28581561522284    1.79640983766277
C        -0.23959862302016   -3.00857510902336   -1.83049077493473
C         0.75311449643585   -2.28910513525259   -2.58478558679268
C         1.97799759967507   -2.28905212515563   -1.82393558789065
C         1.74291045112979   -3.00852062364254   -0.59936205253935
C         0.37018428916661   -3.45011248065400   -0.59991889080421
C         2.79623197839814   -1.16668855144915   -1.82419559096841
C         2.41817629232411   -0.00114228211846   -2.58254544353019
C         2.79829312702097    1.16446798303932   -1.82532989772973
C         3.41129986782105    0.71939083092055   -0.59929446678554
C         3.40997780447072   -0.72219113114234   -0.59900826455946
C         1.98326945308383    2.28804145178671   -1.82711560365671
C         0.75763178113964    2.28872112133334   -2.58901316265332
C        -0.23334408662322    3.01127245563635   -1.83758692954252
C         0.37683886296714    3.45135230166801   -0.60957261676852
C         1.74810890632091    3.00787547991847   -0.60344578785693
C        -1.55573069734947    2.58408629506640   -1.84444898082079
C        -1.93548393696354    1.41666336203475   -2.59894244942343
C        -2.92770073315586    0.69474616685156   -1.83858882918200
C        -3.15775446585006    1.41352566081721   -0.61614743489338
C        -2.30802078059990    2.57382586796345   -0.61949466244339
C        -2.92762632185995   -0.69607177295406   -1.84101582940354
C        -1.93849871953571   -1.41580154820025   -2.59722755876859
C        -1.56075518917930   -2.58362301570155   -1.83775364126714
C        -2.31962878061402   -2.58286831322552   -0.61445979693700
C        -3.15631891204990   -1.42083780407837   -0.61348662695780
C        -0.97902291579557   -0.72095138313051   -3.32438488552000
C        -0.97855176160084    0.72136618474001   -3.32489203440623
C         0.39277429750043    1.16577527159327   -3.31919905371590
C         1.23862768618808   -0.00049404527751   -3.31469313995298
C         0.39022582525632   -1.16576381540965   -3.31739399379180
Cl       -1.60734983514772    0.00098787103583    5.36137401515571
Cl       -4.10005196111790   -0.01661966552194    3.81832941495889
Cl       -3.05359039825361    3.57464321966591    2.79992779892525
63
 energy: -142.116384649835 gnorm: 0.017103750814 xtb: 6.4.1 (a3dbbd7)
C        -1.30648682651580   -0.00954204738015    3.57136472978064
C        -0.38206075410085   -1.17630808050431    3.28280214249796
C         0.97179967013033   -0.72621631479019    3.26308514879180
C         0.96840479600143    0.71244863958162    3.25681887491027
C        -0.39004516887656    1.15351490712879    3.25697522703226
C         2.33749168692260   -2.58586010941656    0.57989630326064
C         3.18565631334866   -1.41893567206239    0.58077686630662
C         2.94620058040978   -0.69784792857665    1.80364962405067
C         1.94751632356950   -1.41972003371953    2.55369040455183
C         1.57847834298850   -2.58358220974340    1.80337607333334
C         3.18613547861142    1.41279536522045    0.57865125751563
C         2.33995079175072    2.57910685493147    0.57570634411275
C         1.57455947917229    2.56798330815639    1.79655247431430
C         1.94381703394599    1.40754501519443    2.54909895941547
C         2.94569664125718    0.68973837012926    1.80317337516527
C        -0.36216685829808    3.42901540938770    0.56493827727805
C        -1.72232940850297    3.01148722439517    0.55763457321577
C        -2.08503823507868    2.42768860441698    1.89823652813649
C        -0.73405541088035    2.26500791029701    2.54863636397628
C         0.24572283982107    2.97529908356821    1.79018674673845
C        -3.32686781801006    0.70843923095648    0.58644413481424
C        -3.35536614784400   -0.73743051716285    0.57709722960804
C        -2.77860764849707   -1.18703118172589    1.79749144982891
C        -2.62627870844705   -0.01303310561982    2.74418131696059
C        -2.80034167702361    1.14915471188939    1.79817063042125
C        -1.73005702865987   -3.00836739783535    0.57536111059353
C        -0.35870265381636   -3.44746658958424    0.57776655029345
C         0.25218771235323   -3.00242163657347    1.80406564441827
C        -0.73396531939449   -2.28888595848108    2.56575834832273
C        -1.97536515779257   -2.29565162126234    1.79728141907279
C        -0.23804244008978   -3.01105237255197   -1.83108988231537
C         0.75495590080885   -2.29101839525087   -2.58559172750049
C         1.97903857022742   -2.29062297878257   -1.82575209754503
C         1.74454116141807   -3.01108014027672   -0.60103801927189
C         0.37242953804023   -3.45372528437201   -0.60128467642729
C         2.79808357382545   -1.16841615358326   -1.82609635914256
C         2.42071414439513   -0.00296740090798   -2.58486204851748
C         2.80171024270946    1.16292485504267   -1.82836462235084
C         3.41338981525360    0.71737234742843   -0.60189638374733
C         3.41112408086364   -0.72375041675604   -0.60117086522380
C         1.98803117329987    2.28760630570217   -1.83111165697774
C         0.76298136427105    2.28947084433260   -2.59415784201926
C        -0.22720659391926    3.01228323774221   -1.84091521388675
C         0.37912424837974    3.45083334689624   -0.61430628875244
C         1.75028037622867    3.00726789206395   -0.60723797156250
C        -1.54865887201238    2.58224123195390   -1.84269621455288
C        -1.92931847420246    1.41618132005884   -2.59699765716372
C        -2.91975569618579    0.69537638978539   -1.83064279963336
C        -3.15038248263685    1.41469845404693   -0.61697763746090
C        -2.30012655138110    2.57715944305344   -0.61671961530992
C        -2.92440981740310   -0.69937275904230   -1.83901274538044
C        -1.93727437404321   -1.41675140149134   -2.59486796807856
C        -1.55897181046542   -2.58685977067071   -1.83728733012624
C        -2.31887225120440   -2.58914674914545   -0.61414614797434
C        -3.15498210413576   -1.42591371784233   -0.61139883301518
C        -0.97684713777910   -0.72242835043686   -3.32469606573268
C        -0.97499689725930    0.72037889030109   -3.32430854388893
C         0.39658964148733    1.16532549736393   -3.32177598992239
C         1.24077285409958   -0.00191678630560   -3.31618887708232
C         0.39108276207223   -1.16689953440144   -3.31774532862310
Cl       -1.60462384362321    0.00646374234806    5.35800652779915
Cl       -4.09647537180285   -0.01910668321868    3.81446936862445
Cl       -3.11986743621108    3.65178703295418    2.86185271617288
63
 energy: -142.116888132044 gnorm: 0.010405082520 xtb: 6.4.1 (a3dbbd7)
C        -1.30772889913924   -0.01077503438712    3.57165043864262
C        -0.38299589957218   -1.17826227514010    3.28197305523803
C         0.96963111080256   -0.72704970154709    3.25895727336039
C         0.96217334965009    0.71111668699683    3.24780403940762
C        -0.39676317738587    1.15520972551221    3.25309675337794
C         2.33876472577857   -2.58844362965593    0.57913948575452
C         3.18645028849478   -1.42102536542560    0.57953336942498
C         2.94563048189419   -0.69973716410466    1.80168483724173
C         1.94703050589097   -1.42125177461353    2.55193322308025
C         1.57958140121471   -2.58645648636984    1.80283409491832
C         3.18544516468060    1.41120255463025    0.57661032384716
C         2.33812266308738    2.57666060320423    0.57335712404930
C         1.56906710508429    2.56479632443721    1.79203555432500
C         1.93910703335392    1.40465735392742    2.54324796522566
C         2.94412471818148    0.68791079552942    1.80067575578035
C        -0.36698081810536    3.43015832518718    0.56449373819267
C        -1.73074602610980    3.02368503162523    0.56193060321417
C        -2.09870987258383    2.45048488389015    1.91169471057318
C        -0.74303053499156    2.27074817672452    2.55121768992278
C         0.24049700117316    2.97339530389041    1.78852034130397
C        -3.31798414274615    0.71312747560076    0.59063532368476
C        -3.34556281571219   -0.73472881874310    0.57808769909307
C        -2.77426579976524   -1.18626579545174    1.79864012378150
C        -2.62499791514187   -0.01033771527092    2.74427456177317
C        -2.79422125879600    1.15315841351374    1.79769997513600
C        -1.72905293988146   -3.01191615906431    0.57651871983705
C        -0.35740763071707   -3.45114390235634    0.57800214230335
C         0.25348480411393   -3.00602208346640    1.80437676900996
C        -0.73319976544883   -2.29268599992567    2.56656604162281
C        -1.97431317148100   -2.29881123087444    1.79864502404880
C        -0.23658750030918   -3.01296008805486   -1.83122231663287
C         0.75637126794689   -2.29261978729202   -2.58600692385871
C         1.98018778133596   -2.29244256194323   -1.82654163153203
C         1.74584404311973   -3.01357869645170   -0.60175923740728
C         0.37378148135246   -3.45639820531244   -0.60140735905849
C         2.79949461629001   -1.17021280246401   -1.82735756328528
C         2.42260777879438   -0.00446000894689   -2.58646191152080
C         2.80335867008563    1.16181413263066   -1.83026361151072
C         3.41455559919220    0.71569123124056   -0.60359413739476
C         3.41220465124460   -0.72552682754857   -0.60246913136769
C         1.98953972238932    2.28690921632037   -1.83306888121490
C         0.76464027026815    2.28959086439126   -2.59618939355946
C        -0.22586550052596    3.01216283402116   -1.84118341100053
C         0.37818487053558    3.44973260621745   -0.61428880525587
C         1.74945090075222    3.00570866478946   -0.60885078548010
C        -1.54683227658806    2.58173935338204   -1.83923636424209
C        -1.92632422541481    1.41607813692873   -2.59455614772102
C        -2.91622253137639    0.69607911669918   -1.82668618722139
C        -3.15142128194888    1.41810282130546   -0.61765497138503
C        -2.30237493041409    2.58276773280138   -0.61398487201797
C        -2.92055845291954   -0.69955032963989   -1.83737809310678
C        -1.93470269337833   -1.41673328529348   -2.59300350844685
C        -1.55710315266447   -2.58841786824888   -1.83668220667612
C        -2.31703862524699   -2.59150057027776   -0.61331536031394
C        -3.14872291840392   -1.42524611544661   -0.60952998803203
C        -0.97475827644251   -0.72298947933644   -3.32424100399143
C        -0.97317478843014    0.72005353740732   -3.32313963551912
C         0.39854093453573    1.16472420211088   -3.32271386442105
C         1.24242289526378   -0.00297161772004   -3.31730615305920
C         0.39242560562229   -1.16792715978076   -3.31790143102711
Cl       -1.60068114398339    0.00386300516191    5.35822657490222
Cl       -4.10126094535868   -0.02180525915529    3.80880262696981
Cl       -3.13121136957692    3.66619085608532    2.87798826034656
63
 energy: -142.117029125347 gnorm: 0.006207899586 xtb: 6.4.1 (a3dbbd7)
C        -1.30814774769216   -0.01095596544213    3.57158092540252
C        -0.38343320225206   -1.17913007210818    3.28219649355517
C         0.96849335304538   -0.72713038750497    3.25709298899056
C         0.95947810543609    0.71063579887230    3.24329475229765
C        -0.39937933281003    1.15596002795594    3.25135332067438
C         2.33930936566461   -2.58933655799904    0.57913326749226
C         3.18690922579829   -1.42175820606759    0.57921357481202
C         2.94536308168052   -0.70044461139708    1.80100195336429
C         1.94687425807901   -1.42175387687040    2.55149002841555
C         1.58000265026591   -2.58756580790168    1.80295332880102
C         3.18546809387927    1.41072618229335    0.57593247070368
C         2.33715398464282    2.57538539120409    0.57223952065601
C         1.56614610700578    2.56293587490299    1.78940499033574
C         1.93719593466132    1.40328400182215    2.54057132736764
C         2.94373059913306    0.68719952258542    1.79966931647178
C        -0.36964462909186    3.43000473763723    0.56409611255579
C        -1.73623661662067    3.02970238306322    0.56473272738468
C        -2.10395128681329    2.45952330909653    1.91749110856431
C        -0.74824371084525    2.27298813181257    2.55228783402488
C         0.23801192881939    2.97154649125673    1.78721115723289
C        -3.31380315131695    0.71607970837858    0.59246942848714
C        -3.34004770625892   -0.73303514754777    0.57796180246668
C        -2.77214980052127   -1.18551932536260    1.79851399542654
C        -2.62247668274921   -0.00930064288321    2.74384911361173
C        -2.78890241300079    1.15545331642496    1.79682196642557
C        -1.72889333113515   -3.01332918298432    0.57707338283979
C        -0.35702454685879   -3.45267416516063    0.57832865771537
C         0.25396254132075   -3.00761549716937    1.80485641694305
C        -0.73307383991981   -2.29445252740450    2.56716501630532
C        -1.97414822056305   -2.30043907122320    1.79917235588382
C        -0.23613222816825   -3.01354626488903   -1.83123206600309
C         0.75690795313087   -2.29300449974664   -2.58605331963717
C         1.98049393227119   -2.29273295302444   -1.82655830641594
C         1.74619191037171   -3.01422551453853   -0.60175890734455
C         0.37416130312040   -3.45725630957074   -0.60122113520952
C         2.80005805340549   -1.17059061864267   -1.82766582664994
C         2.42347089730963   -0.00476130800634   -2.58712177195129
C         2.80406974476602    1.16171481496354   -1.83107525468886
C         3.41529440020096    0.71532673217162   -0.60420102805087
C         3.41273194651044   -0.72595365547134   -0.60278913150196
C         1.98994815444884    2.28680610621876   -1.83407618911668
C         0.76516576396247    2.28968822566183   -2.59732347914974
C        -0.22565417840447    3.01206000773827   -1.84146297932711
C         0.37740264320050    3.44849159335598   -0.61392752735540
C         1.74866194668423    3.00473815219857   -0.60945608032447
C        -1.54620566430299    2.58151214556482   -1.83736559447842
C        -1.92491019138253    1.41586022904339   -2.59322431141407
C        -2.91500674491921    0.69627718401237   -1.82530786625517
C        -3.15311622833770    1.41978066105101   -0.61921505271944
C        -2.30402951183311    2.58514962012056   -0.61280038290096
C        -2.91878109549134   -0.69961997074801   -1.83705261120327
C        -1.93358761773329   -1.41663453606825   -2.59245428532576
C        -1.55652279931175   -2.58909207518658   -1.83663546806545
C        -2.31642769806654   -2.59237675697328   -0.61308662773023
C        -3.14593215218989   -1.42482731975904   -0.60903949982156
C        -0.97389841932084   -0.72322798689056   -3.32435897231789
C        -0.97255718123163    0.71993698725861   -3.32269851259501
C         0.39929186631953    1.16441913044539   -3.32315060928263
C         1.24319540579796   -0.00326950347252   -3.31794886440662
C         0.39301266673252   -1.16820017562809   -3.31805781524241
Cl       -1.61051982533131    0.00195211221562    5.35544743397957
Cl       -4.09527034421806   -0.02024208763574    3.81380240261777
Cl       -3.13012955740315    3.66613016880511    2.88276963680932
63
 energy: -142.117067708066 gnorm: 0.004332811933 xtb: 6.4.1 (a3dbbd7)
C        -1.30872788146725   -0.01099649115787    3.57477856308986
C        -0.38361537767345   -1.17899609205469    3.28282299900905
C         0.96798299061779   -0.72699788233229    3.25614235072150
C         0.95846294807153    0.71026243790731    3.24086566342790
C        -0.40028085853766    1.15530217879977    3.25037388201411
C         2.33945084544414   -2.58946980776142    0.57945569906798
C         3.18717635236363   -1.42190159609213    0.57928252488871
C         2.94539635235766   -0.70062902173358    1.80089432676901
C         1.94701418199908   -1.42182468746829    2.55155496113265
C         1.58006166939695   -2.58777199166560    1.80334400883986
C         3.18573961512666    1.41077943145350    0.57592063173634
C         2.33653304937206    2.57472917178219    0.57191027640906
C         1.56437972501642    2.56164717385570    1.78798478373624
C         1.93661933148006    1.40250236553581    2.53948020005440
C         2.94399117672848    0.68702384919841    1.79943210582677
C        -0.37142705998125    3.42886217055122    0.56398073198641
C        -1.73989468489727    3.03217147323859    0.56676993793237
C        -2.10692036980825    2.46343269263564    1.92147282097526
C        -0.75161690694495    2.27258717866370    2.55259820716706
C         0.23654075595325    2.96918835867010    1.78632430966604
C        -3.31097906452742    0.71783012875660    0.59319607098856
C        -3.33669493524862   -0.73197182009970    0.57758118393375
C        -2.77091894702521   -1.18420529658645    1.79815248987226
C        -2.62272385319323   -0.00885102977599    2.74499673805285
C        -2.78396931875418    1.15600043982534    1.79550470350985
C        -1.72912384583346   -3.01340951640971    0.57785892466893
C        -0.35713184792349   -3.45293414775700    0.57899393506238
C         0.25394697390064   -3.00786466743915    1.80560951368216
C        -0.73329974785498   -2.29486196611662    2.56805167984207
C        -1.97437438734054   -2.30089083623119    1.79988606548531
C        -0.23623672802900   -3.01350451318491   -1.83089170189623
C         0.75688888001350   -2.29288318347111   -2.58574825726617
C         1.98027927011665   -2.29240902628450   -1.82615659363200
C         1.74599079778183   -3.01405099068974   -0.60134991846449
C         0.37397836490029   -3.45717556331366   -0.60062588815177
C         2.80009671279576   -1.17041003673282   -1.82750441073197
C         2.42365929910950   -0.00457370706849   -2.58718394233989
C         2.80420121107260    1.16201497745459   -1.83126385793197
C         3.41567689758558    0.71550040134318   -0.60426951433082
C         3.41289090178155   -0.72580588222065   -0.60269391841749
C         1.98979064432684    2.28697551749477   -1.83443237076065
C         0.76516607629045    2.28985426746207   -2.59786564190230
C        -0.22588486806669    3.01204229965336   -1.84156866259670
C         0.37664217193551    3.44734021770139   -0.61323976119822
C         1.74782230501392    3.00414142001800   -0.60940037652292
C        -1.54604076384687    2.58140603366767   -1.83613972906748
C        -1.92431618361150    1.41572760172567   -2.59248072180708
C        -2.91488643310440    0.69633300304421   -1.82502542987463
C        -3.15471030826859    1.42054918994694   -0.62101327095293
C        -2.30489820858884    2.58579368983372   -0.61209491713617
C        -2.91818878365778   -0.69969991668339   -1.83725240749910
C        -1.93331357551167   -1.41653632388998   -2.59226994747589
C        -1.55659119306904   -2.58933175636786   -1.83647051855518
C        -2.31638412297749   -2.59249895613000   -0.61271726177067
C        -3.14491445066088   -1.42459251197945   -0.60895952990837
C        -0.97373543464044   -0.72331540741361   -3.32455880240895
C        -0.97257547515708    0.71996500180184   -3.32254647641280
C         0.39942070484240    1.16432387402232   -3.32318467772201
C         1.24337185026256   -0.00323188631809   -3.31814148289915
C         0.39307568057199   -1.16815759797049   -3.31802273688579
Cl       -1.59450398037447    0.00120290761462    5.36083004585318
Cl       -4.10821934719987   -0.01598643562716    3.79835165938996
Cl       -3.12522863088381    3.65951725922236    2.88353006385703
63
 energy: -142.117117272783 gnorm: 0.002525743759 xtb: 6.4.1 (a3dbbd7)
C        -1.30819097101982   -0.01106740961608    3.57328158343970
C        -0.38318276650235   -1.17925587078736    3.28316872624817
C         0.96850614042693   -0.72710947411732    3.25718832005287
C         0.95967881828451    0.71041748163418    3.24285229215991
C        -0.39890315792586    1.15510597431452    3.25107646159248
C         2.33930719225137   -2.58897819715370    0.57948231644390
C         3.18702151661309   -1.42144624157455    0.57950691805312
C         2.94553184395696   -0.70025552138987    1.80131014429865
C         1.94725202197668   -1.42165613161166    2.55196019208872
C         1.58002846881878   -2.58728859917697    1.80334579335970
C         3.18582582779854    1.41110793933887    0.57636737685241
C         2.33691335618078    2.57528067154168    0.57240289227372
C         1.56548460496340    2.56232760783976    1.78892851857688
C         1.93754090146091    1.40304250211009    2.54079236202485
C         2.94431338232773    0.68742719307762    1.80002721633724
C        -0.37049175826498    3.42862030086710    0.56382675260792
C        -1.73806805125501    3.02994960133738    0.56554250875910
C        -2.10550667466823    2.46076681791234    1.92001991613393
C        -0.74970038839877    2.27115069150569    2.55154129015072
C         0.23758162701872    2.96944861526495    1.78638434529772
C        -3.31216770560677    0.71683280726298    0.59244700276231
C        -3.33879262328452   -0.73275805649095    0.57769754909084
C        -2.77181994812300   -1.18484333773594    1.79807182131316
C        -2.62173806921812   -0.00923270268245    2.74384846870042
C        -2.78460023116505    1.15540729794239    1.79489553870917
C        -1.72915937824253   -3.01290972852866    0.57761374006291
C        -0.35718037570128   -3.45232532349621    0.57879104597047
C         0.25394485072261   -3.00732933790669    1.80538318871956
C        -0.73316756631977   -2.29449203078916    2.56783162074624
C        -1.97436362010918   -2.30064173104891    1.79963658615583
C        -0.23649905803468   -3.01310364171630   -1.83088213581041
C         0.75659957787875   -2.29255011017034   -2.58569762082582
C         1.98005321182668   -2.29203494334039   -1.82609489245928
C         1.74582198475741   -3.01355139093500   -0.60132168566193
C         0.37385081758383   -3.45669327502736   -0.60073715748562
C         2.79979992485220   -1.17004761715780   -1.82729207141946
C         2.42318434394569   -0.00426517650845   -2.58681534241780
C         2.80381637029872    1.16222516030773   -1.83086760454336
C         3.41534296003445    0.71582679453209   -0.60391885723266
C         3.41261294420619   -0.72542173618740   -0.60246966765552
C         1.98949136685835    2.28713825222593   -1.83406171552905
C         0.76489261663338    2.28991175822669   -2.59754633312871
C        -0.22607435705970    3.01215980202986   -1.84165657736556
C         0.37690565019628    3.44777926838472   -0.61342102782143
C         1.74798192491624    3.00452805182643   -0.60910222273603
C        -1.54631508925790    2.58152465614369   -1.83686472039959
C        -1.92497786420618    1.41580617231427   -2.59303513634997
C        -2.91565930845770    0.69626034636803   -1.82571785127603
C        -3.15450268626013    1.41993002169888   -0.62095059276865
C        -2.30417903831544    2.58467636912322   -0.61267396030066
C        -2.91909486388673   -0.69972656592786   -1.83749467838699
C        -1.93393572933492   -1.41651215243279   -2.59248791975700
C        -1.55694340187983   -2.58903406069311   -1.83649491384768
C        -2.31673875147909   -2.59213178752150   -0.61278945151456
C        -3.14632174813304   -1.42488191630743   -0.60914195388444
C        -0.97423374883137   -0.72318889824061   -3.32459990201334
C        -0.97301966382830    0.72007115826246   -3.32280341052161
C         0.39899809917650    1.16448796309863   -3.32297831092647
C         1.24294568715637   -0.00299686093363   -3.31784990605340
C         0.39271124907025   -1.16792760270716   -3.31797588289728
Cl       -1.60522602931859    0.00189292875307    5.35718656920470
Cl       -4.10045666895738   -0.01388467970853    3.80571784867990