180
 energy: -610.809179218241 gnorm: 1.094642175154 xtb: 6.4.1 (a3dbbd7)
C        -1.29312399214026   -0.01234453303713    3.39708684153096
C        -0.42055449491445   -1.23017844440744    3.38831167399066
C         0.97423964558547   -0.78331732610022    3.32470217629481
C         0.94960745565622    0.69139850112277    3.27242605956062
C        -0.42906596241404    1.19678458657969    3.36944133804999
C         2.38317297472498   -2.66007388717593    0.61963204474627
C         3.26469778649254   -1.45255797048739    0.61728866202170
C         2.93404604352781   -0.70885884880790    1.80258240765889
C         2.01024003709743   -1.47502853370544    2.59541983521410
C         1.56334076984363   -2.58570149421387    1.80510833257917
C         3.19250128612363    1.39095240620983    0.55482997993768
C         2.41222125244533    2.62226645960375    0.59053794747711
C         1.57891315762538    2.62403436162185    1.78806393290263
C         1.94965317268054    1.41199722688925    2.53405829948811
C         3.04238422270684    0.70329052893762    1.82883871479040
C        -0.40795448290719    3.55790047240200    0.57112121996765
C        -1.76539538750992    2.99938349061515    0.54587451922934
C        -2.01390989788263    2.37230719320099    1.84372505413861
C        -0.76342663133227    2.29727041889213    2.54754904453180
C         0.20668507665213    3.08280132139281    1.84487272059184
C        -3.51994692625172    0.72648058879890    0.58639248439528
C        -3.38531912550131   -0.75684716238042    0.58158948520911
C        -2.80039737226853   -1.16199878270279    1.82913385254659
C        -2.43208764397453   -0.06080524904829    2.51761368564603
C        -2.87765296084294    1.17091091217801    1.86542733409447
C        -1.71183190120267   -3.02758234189094    0.62475665752968
C        -0.39422076384079   -3.44764930257915    0.56194682932890
C         0.23103779946275   -3.10329358018258    1.85878353565921
C        -0.79810631233498   -2.30960200736012    2.53108450277976
C        -1.95798231392407   -2.31379062969014    1.81938220626406
C        -0.27119498773337   -3.00619099515798   -1.77811765623783
C         0.76989676867704   -2.39225226455578   -2.63688191705287
C         1.96789627011512   -2.24505685429881   -1.80013650755137
C         1.76728885416362   -3.12596295788560   -0.64179115764567
C         0.32684298597502   -3.46809689583054   -0.59463161093539
C         2.74169565837426   -1.18807413060989   -1.80262563002915
C         2.51241286173116   -0.00138742678517   -2.63727852748840
C         2.80841612550528    1.14161766516720   -1.78288254721358
C         3.35055581162444    0.73735090160999   -0.60573475921127
C         3.51831842008610   -0.72726315939084   -0.64395748223569
C         2.01577027078643    2.34494156349835   -1.90383874636242
C         0.70437218441039    2.28354969549773   -2.59744049143983
C        -0.25252420303432    3.01403774123238   -1.81556477801744
C         0.34039245413368    3.44111458183056   -0.65545102615639
C         1.75289819365550    3.09397447694088   -0.63855320190730
C        -1.57461618608306    2.62065356662014   -1.81271600682891
C        -2.01740465880926    1.47987544523491   -2.65665069622428
C        -2.92471820256901    0.73162305565743   -1.76623890716365
C        -3.14412831850474    1.41682731008132   -0.64698783049947
C        -2.31826571229876    2.58878991298034   -0.60742333751784
C        -3.04207808350067   -0.71414888682305   -1.85133774496450
C        -2.00164135160838   -1.46641229876321   -2.65051355961778
C        -1.53404300575712   -2.58363408835907   -1.80825308604450
C        -2.40770233799062   -2.67075352948328   -0.61285094200065
C        -3.16263735689650   -1.40044107511350   -0.55059502312515
C        -0.98811136658937   -0.65062424536262   -3.28984885730532
C        -0.96936540893747    0.68900553852793   -3.29868700999876
C         0.35131009552012    1.20021000754526   -3.28872809584668
C         1.25136353619462    0.02781405020480   -3.41570313696741
C         0.37000772048161   -1.18735396712703   -3.41060583359195
C        -1.94430210316085   -0.01625795792561    4.76684167509611
F        -1.47578398326361   -0.00837898694019    5.91904998023212
F        -2.82985467095091   -0.95164443691820    4.96604932494120
F        -2.77272806175146    0.90698214617364    5.05114100904125
C        -0.62729196041142   -1.84131706111373    4.75952772927522
F        -0.51333731236302   -1.40353629006962    5.91434943426100
F        -1.79530434069178   -2.39477360098982    4.96042552389000
F        -0.03872376965582   -2.95904792849772    4.96336955028568
C         1.45999904872157   -0.84358936567420    4.74724712255688
F         1.01998055141209   -0.81300527300509    5.96116586938196
F         1.53665436089907   -2.38246311211337    5.52464274958408
F         2.58562581545305   -0.86386338214305    5.40317520046993
C         1.36499561254225    0.80190743371577    4.63725053870914
F         1.10404265516361    0.82897053762296    5.89743295221730
F         2.77224641936223    0.83839023583645    5.38972609372247
F         1.56216257899597    2.50779559153591    5.60376854025665
C        -0.61519131214315    1.79792906410412    4.76732254156680
F        -0.47237378832289    1.37138444984663    5.93145881284584
F        -1.74767671584598    2.33815545529417    5.04074374439464
F        -0.04880769105430    2.91014147751609    5.01392034743816
C         3.33734167261969   -3.80973947083530    0.92118844025469
F         3.96743501684621   -3.92797695991799    2.05087041943763
F         4.29358543047648   -4.21024139974880    0.24115634328178
F         2.86849022513986   -4.94609408626006    1.36841558985634
C         4.65514088119382   -2.00223583043806    0.92243589187620
F         4.94404454646142   -2.55960645031172    2.06299659544636
F         5.32990528937868   -2.78594712712368    0.23983240925245
F         5.59566036303588   -1.23238310843803    1.35787639142399
C         2.89392278034506   -2.06604683044746    3.69762299795133
F         3.82907016386223   -2.84557617029444    3.45145074441578
F         3.79937222124919   -1.30813980942678    4.24676037613070
F         2.34205691177658   -3.15744109403218    4.30154920178848
C         3.48744574343430    3.68005907259537    0.79603017604146
F         4.53211669622762    3.53590402589598    1.65341122376478
F         4.55805373584290    3.59924687168354   -0.01155338771797
F         3.36476931392016    4.88538286823855    0.98945504803700
C         2.27931563086051    3.61837796177951    2.69349661015032
F         3.46460156963301    4.04538345463116    2.84561329832759
F         2.41329017059990    5.26396559287792    2.35357155880311
F         2.10618751902616    4.20825927279211    3.82670309455716
C         2.69866511821066    2.14249025272737    3.51161265434840
F         3.86676579400598    2.64410580107619    3.84329318658699
F         2.37461959008510    2.82099105241743    4.78334106945883
F         3.73251559484133    1.31932336227444    4.92872517032249
C         4.35691542119993    0.96208254416429    2.56780131256391
F         4.92080014071597    2.06227542885721    2.53394032702495
F         5.39520151001639    0.48107524734564    1.96703870368222
F         4.50348014186014    0.33772718179126    3.67301385161733
C        -0.56793983635809    5.05817698605308    0.73375215094934
F        -1.35205187523818    5.49709048371125    1.58989421570763
F        -1.23116718338578    5.60121590206587   -0.26537358764218
F         0.49141219348944    5.78983457175034    0.66468231632408
C        -2.86587567478285    3.39559030118613    2.62881922089664
F        -2.43931454519095    4.55177362561121    2.79610662273118
F        -3.85370684212647    3.93072881024488    1.89943969151842
F        -2.93840868023149    3.27992677787977    3.90248998172633
C         0.31116234307895    4.31875789995092    2.69566986925101
F        -0.79956263856456    5.08809113933298    3.18850812434457
F         0.75043191039369    5.41293437097131    2.34362985600054
F         0.39291216105097    4.26875750245437    3.98075111229083
C        -4.98280766594997    1.03308972280421    0.75433322815543
F        -5.58861741234004    0.29109733761683    1.61710486741721
F        -5.72789606760031    0.59011368644738   -0.21376866277554
F        -5.26300719763096    2.31551399972369    0.66517936183667
C        -4.01884688240233    1.65067641738790    2.71211625682823
F        -4.96151516807056    0.59682320099016    3.18083535453760
F        -4.89535633979616    2.48080579936201    2.41103595482574
F        -3.96894242588589    1.78657061511292    3.94689283632328
C         0.31414404973212   -4.41982293496115    2.63542187214650
F        -0.87303090497746   -4.96663613349279    2.75239643350388
F         1.07838820329865   -5.28402957551205    2.05819968363140
F         0.79156879843602   -4.29093124362420    3.81809148472129
C         1.10891454501257   -3.41378832846373   -3.71429789049528
F         1.38449528291853   -4.58295961402698   -3.37263888270393
F         0.06878221403768   -3.93296134431720   -4.32481623976502
F         2.31122421573002   -3.21146153045577   -4.23939812112335
C         2.49989887571948   -4.42298177374609   -0.94102486033023
F         2.11452710680151   -5.11881028121803   -1.90796999781344
F         3.68814853844709   -4.22091947360435   -1.48672571009843
F         2.13321634736604   -5.43332706094732   -0.19206403053192
C         3.59241503921823   -0.01366747595219   -3.71246275429401
F         4.78930360820566    0.09578774996684   -3.36477939749878
F         3.77014611713186   -1.21139233494727   -4.23700752531476
F         3.78360307614610    1.08000817300634   -4.36917336240124
C         4.98073219004400   -1.00872049932613   -0.93956792033670
F         5.52260347065047   -0.43028257829265   -1.90565125991767
F         5.15305346179663   -2.20464452547133   -1.48287205283927
F         5.82672055965070   -0.35174062783080   -0.19447227176158
C         2.89772968723564    3.26258281505542   -2.71647021341064
F         2.29620915069744    4.33404736862294   -3.15021500592735
F         3.08710197505854    2.88699283819902   -3.93226425681930
F         4.13405430307020    3.33066598809774   -2.30016233794930
C         2.46787931632393    4.39574476931518   -0.80166759681472
F         1.84270651071063    5.33907885929391   -1.89098976457399
F         3.61683009241050    4.64956738771627   -1.19990783002151
F         2.11781244647055    5.43359068446805   -0.18674467058900
C        -2.85543652716150    2.08851656521324   -3.75227881072568
F        -3.84124648108803    2.79184520360380   -3.22812685697333
F        -2.10952306377120    2.87444505600070   -4.51068313871092
F        -3.35010796315583    1.17572115081390   -4.54640466405478
C        -4.34304749888124   -0.94558010663832   -2.59710864621572
F        -4.85656411901716   -2.11037610178450   -2.61752531194067
F        -4.45920220680264   -0.38183552028671   -3.74648455427353
F        -5.38444126010631   -0.43047385077307   -1.97858100439623
C        -2.77238605066382   -2.08491378133093   -3.80417691361151
F        -3.61986558717841   -3.00345903089999   -3.56231287136060
F        -3.17607590973954   -1.23669089231538   -4.70568865474760
F        -2.07938947530265   -2.91715597189659   -4.52480223901616
C        -3.38384944668775   -3.79609846324661   -0.81880095916454
F        -4.11674897576783   -3.72739527421616   -1.84155253436109
F        -2.75644904912586   -4.94783985486427   -0.98018943029209
F        -4.26066147122371   -3.85564393742258    0.16905330474672
C         1.76538502434802    0.11029522814871   -4.81963110201985
F         0.84250345394550    0.41783349964783   -5.79243755692692
F         2.19985812359023    1.25762849373872   -5.25923424075220
F         2.46191704791435   -0.69020367860560   -5.44335348406325
C         0.44888232264833   -1.71295500126903   -4.81346060290849
F        -0.14679594255147   -0.90892987845975   -5.81759385386084
F        -0.42701604819417   -2.48491125642690   -5.31296549038032
F         1.43305237322590   -2.11652138277330   -5.43527613908662
