180
 energy: -564.033372026932 gnorm: 12.575083849340 xtb: 6.4.1 (a3dbbd7)
C        -1.23626340000000    0.00000000000000    3.32997640000000
C        -0.38202640000000   -1.17575640000000    3.32997640000000
C         1.00015810000000   -0.72665740000000    3.32997640000000
C         1.00015810000000    0.72665740000000    3.32997640000000
C        -0.38202640000000    1.17575640000000    3.32997640000000
C         2.34433560000000   -2.60145750000000    0.59464210000000
C         3.19857260000000   -1.42570110000000    0.59464210000000
C         2.96246730000000   -0.69904370000000    1.83090550000000
C         1.96230920000000   -1.42570110000000    2.59495830000000
C         1.58028280000000   -2.60145750000000    1.83090550000000
C         3.19857260000000    1.42570110000000    0.59464210000000
C         2.34433560000000    2.60145750000000    0.59464210000000
C         1.58028280000000    2.60145750000000    1.83090550000000
C         1.96230920000000    1.42570110000000    2.59495830000000
C         2.96246730000000    0.69904370000000    1.83090550000000
C        -0.36750900000000    3.48258920000000    0.59464210000000
C        -1.74969350000000    3.03349030000000    0.59464210000000
C        -1.98579880000000    2.30683290000000    1.83090550000000
C        -0.74953540000000    2.30683290000000    2.59495830000000
C         0.25062270000000    3.03349030000000    1.83090550000000
C        -3.42570570000000    0.72665740000000    0.59464210000000
C        -3.42570570000000   -0.72665740000000    0.59464210000000
C        -2.80757400000000   -1.17575640000000    1.83090550000000
C        -2.42554760000000    0.00000000000000    2.59495830000000
C        -2.80757400000000    1.17575640000000    1.83090550000000
C        -1.74969350000000   -3.03349030000000    0.59464210000000
C        -0.36750900000000   -3.48258920000000    0.59464210000000
C         0.25062270000000   -3.03349030000000    1.83090550000000
C        -0.74953540000000   -2.30683290000000    2.59495830000000
C        -1.98579880000000   -2.30683290000000    1.83090550000000
C        -0.25062270000000   -3.03349030000000   -1.83090550000000
C         0.74953540000000   -2.30683290000000   -2.59495830000000
C         1.98579880000000   -2.30683290000000   -1.83090550000000
C         1.74969350000000   -3.03349030000000   -0.59464210000000
C         0.36750900000000   -3.48258920000000   -0.59464210000000
C         2.80757400000000   -1.17575640000000   -1.83090550000000
C         2.42554760000000    0.00000000000000   -2.59495830000000
C         2.80757400000000    1.17575640000000   -1.83090550000000
C         3.42570570000000    0.72665740000000   -0.59464210000000
C         3.42570570000000   -0.72665740000000   -0.59464210000000
C         1.98579880000000    2.30683290000000   -1.83090550000000
C         0.74953540000000    2.30683290000000   -2.59495830000000
C        -0.25062270000000    3.03349030000000   -1.83090550000000
C         0.36750900000000    3.48258920000000   -0.59464210000000
C         1.74969350000000    3.03349030000000   -0.59464210000000
C        -1.58028280000000    2.60145750000000   -1.83090550000000
C        -1.96230920000000    1.42570110000000   -2.59495830000000
C        -2.96246730000000    0.69904370000000   -1.83090550000000
C        -3.19857260000000    1.42570110000000   -0.59464210000000
C        -2.34433560000000    2.60145750000000   -0.59464210000000
C        -2.96246730000000   -0.69904370000000   -1.83090550000000
C        -1.96230920000000   -1.42570110000000   -2.59495830000000
C        -1.58028280000000   -2.60145750000000   -1.83090550000000
C        -2.34433560000000   -2.60145750000000   -0.59464210000000
C        -3.19857260000000   -1.42570110000000   -0.59464210000000
C        -1.00015810000000   -0.72665740000000   -3.32997640000000
C        -1.00015810000000    0.72665740000000   -3.32997640000000
C         0.38202640000000    1.17575640000000   -3.32997640000000
C         1.23626340000000    0.00000000000000   -3.32997640000000
C         0.38202640000000   -1.17575640000000   -3.32997640000000
C        -1.76086815247998    0.00000000000000    4.78849957557021
F        -0.76911826531252    0.00000000000000    5.67468926254662
F        -2.50968386795825   -1.06794314680471    5.04863888333743
F        -2.50968386795825    1.06794314680471    5.04863888333743
C        -0.54413818249354   -1.67468516033722    4.78849957845317
F        -0.23767107904745   -0.73147481112462    5.67468925997942
F        -1.79120914301982   -2.05683909935453    5.04863874564184
F         0.24013968171955   -2.71686350152345    5.04863903502921
C         1.42457227037960   -1.03501233722714    4.78849957248258
F         0.62223011468481   -0.45207589682711    5.67468926529602
F         1.40265511061956   -2.33913928186680    5.04863905501621
F         2.65809836182651   -0.61117154425495    5.04863869666890
C         1.42457227037960    1.03501233722714    4.78849957248258
F         0.62223011468481    0.45207589682711    5.67468926529602
F         2.65809836182651    0.61117154425495    5.04863869666891
F         1.40265511061956    2.33913928186680    5.04863905501621
C        -0.54413818249354    1.67468516033722    4.78849957845317
F        -0.23767107904745    0.73147481112462    5.67468925997942
F        -1.79120914301982    2.05683909935453    5.04863874564184
F         0.24013968171955    2.71686350152345    5.04863903502921
C         3.37204091334889   -3.72927672645244    0.86730596148276
F         4.06564647311728   -3.51265957144659    1.98125763710228
F         4.25569947457670   -3.84739838595791   -0.11965645964809
F         2.78580317558591   -4.91533944031226    1.00324916143779
C         4.58877084110522   -2.05459160147071    0.86730597290559
F         4.59709252483521   -2.78118520641283    1.98125951001435
F         4.97417519512416   -2.85850196315549   -0.11965482382298
F         5.53562669678859   -1.13053295630600    1.00324569798425
C         2.82790274436383   -2.05459160758554    3.71645040671519
F         3.82797483682855   -2.78118494419178    3.22571836876305
F         3.37293748548841   -1.13053297859378    4.50255013394648
F         2.11749631416700   -2.85850222732984    4.50254863174647
C         3.37204091334889    3.72927672645244    0.86730596148276
F         4.06564647311728    3.51265957144659    1.98125763710228
F         4.25569947457670    3.84739838595791   -0.11965645964809
F         2.78580317558591    4.91533944031226    1.00324916143779
C         2.28376457660886    3.72927671755932    2.62817408867206
F         3.59030321655004    3.51265997057976    2.75037870097715
F         2.14318168460923    4.91533956626619    2.04303190988612
F         1.79618325340524    3.84739782561575    3.85992562899767
C         2.82790274436383    2.05459160758554    3.71645040671519
F         3.82797483682855    2.78118494419178    3.22571836876305
F         2.11749631416700    2.85850222732984    4.50254863174647
F         3.37293748548841    1.13053297859378    4.50255013394648
C         4.25247495652193    1.01957928511255    2.62817407757680
F         4.45020405360857    2.32910962270745    2.75037677428973
F         5.33704498641440    0.51936149478962    2.04303305824599
F         4.21414295278389    0.51936236815949    3.85992636334022
C        -0.53602450593361    4.99908416128281    0.86730591619822
F        -1.22448605650957    5.23152837615597    1.98125850960180
F        -1.18149064144157    5.61404773804446   -0.11965571789346
F         0.63540201352706    5.61404743764837    1.00324736766175
C        -2.84103082519036    3.32439911178427    2.62817407941587
F        -2.23127406184888    4.50005340761388    2.75037746012491
F        -4.01248672303644    3.55720929213525    2.04303264409737
F        -3.10404037880940    2.89718378306489    3.85992609894427
C         0.34440953624153    4.35941144868709    2.62817404748705
F        -0.83992598883967    4.95213069234126    2.75037577510431
F         1.15529636597892    5.23632261667420    2.04303359185445
F         0.80829780400759    4.16837989546168    3.85992670963205
C        -4.92005227074660    1.03501232949151    0.86730592957069
F        -5.35386609588658    0.45207588830481    1.98125865327758
F        -5.70437742108406    0.61117153086585   -0.11965558739362
F        -5.14292645153878    2.33913927311179    1.00324714649869
C        -4.03961820246674    1.67468514775899    2.62817407948106
F        -4.96930660042401    0.73147479244129    2.75037763231445
F        -4.62303373288714    2.71686348978891    2.04303253910981
F        -3.71458666614023    2.05683907990836    3.85992603200072
C         0.34440953624153   -4.35941144868709    2.62817404748705
F        -0.83992598883967   -4.95213069234126    2.75037577510431
F         1.15529636597892   -5.23632261667420    2.04303359185445
F         0.80829780400759   -4.16837989546168    3.85992670963205
C         1.08016271022039   -3.32439912180418   -3.71645041587937
F         1.46215754230406   -4.50005299330749   -3.22571838851551
F         0.03290491502765   -3.55721032900471   -4.50254840736000
F         2.06425285383526   -2.89718320022386   -4.50255037491024
C         2.50473491433418   -4.35941144902977   -0.86730593917895
F         2.08438487052912   -4.95213043104453   -1.98125838386969
F         3.81390519137296   -4.16837996597314   -1.00324768478856
F         2.34400857369757   -5.23632280881804    0.11965581818547
C         3.49548004549360    0.00000000000000   -3.71645041414084
F         4.73163621497510    0.00000000000000   -3.22571838476757
F         3.39327517264965   -1.06794314680471   -4.50254938956302
F         3.39327517264965    1.06794314680471   -4.50254938956303
C         4.92005227074660   -1.03501232949151   -0.86730592957069
F         5.35386609588658   -0.45207588830481   -1.98125865327758
F         5.14292645153878   -2.33913927311179   -1.00324714649869
F         5.70437742108406   -0.61117153086585    0.11965558739362
C         2.84103082519036    3.32439911178427   -2.62817407941587
F         2.23127406184888    4.50005340761388   -2.75037746012491
F         3.10404037880940    2.89718378306489   -3.85992609894427
F         4.01248672303644    3.55720929213525   -2.04303264409737
C         2.50473491433418    4.35941144902977   -0.86730593917895
F         2.08438487052912    4.95213043104453   -1.98125838386969
F         3.81390519137296    4.16837996597314   -1.00324768478856
F         2.34400857369757    5.23632280881804    0.11965581818547
C        -2.82790274436383    2.05459160758554   -3.71645040671519
F        -3.82797483682855    2.78118494419178   -3.22571836876305
F        -2.11749631416700    2.85850222732984   -4.50254863174647
F        -3.37293748548841    1.13053297859378   -4.50255013394648
C        -4.25247495652193   -1.01957928511255   -2.62817407757680
F        -4.45020405360857   -2.32910962270745   -2.75037677428973
F        -4.21414295278389   -0.51936236815949   -3.85992636334022
F        -5.33704498641440   -0.51936149478962   -2.04303305824599
C        -2.82790274436383   -2.05459160758554   -3.71645040671519
F        -3.82797483682855   -2.78118494419178   -3.22571836876305
F        -3.37293748548841   -1.13053297859378   -4.50255013394648
F        -2.11749631416700   -2.85850222732984   -4.50254863174647
C        -3.37204091334889   -3.72927672645244   -0.86730596148276
F        -4.06564647311728   -3.51265957144659   -1.98125763710228
F        -2.78580317558591   -4.91533944031226   -1.00324916143779
F        -4.25569947457670   -3.84739838595791    0.11965645964809
C         1.76086815247998    0.00000000000000   -4.78849957557021
F         0.76911826531252    0.00000000000000   -5.67468926254662
F         2.50968386795825    1.06794314680471   -5.04863888333743
F         2.50968386795825   -1.06794314680471   -5.04863888333743
C         0.54413818249354   -1.67468516033722   -4.78849957845317
F         0.23767107904745   -0.73147481112462   -5.67468925997942
F        -0.24013968171955   -2.71686350152345   -5.04863903502921
F         1.79120914301982   -2.05683909935453   -5.04863874564184
180
 energy: -574.226801283894 gnorm: 11.048362121750 xtb: 6.4.1 (a3dbbd7)
C        -1.23663445972366    0.00001235914969    3.32343768392997
C        -0.38234607845269   -1.17540022312244    3.32239424958748
C         0.99388177567979   -0.72295734277883    3.31710272220569
C         0.99403953799424    0.72186440216359    3.31494836674601
C        -0.38206116293047    1.17415096848923    3.32191083696680
C         2.33828352843457   -2.59677318805262    0.59629397369221
C         3.19245603005222   -1.42186212945477    0.59603323070633
C         2.96210131588763   -0.70035924574361    1.83088117000279
C         1.96183118352524   -1.42570874855051    2.58848247046514
C         1.58131881414407   -2.60112455244480    1.83099142856299
C         3.20027842447488    1.42654262789563    0.59601790777462
C         2.33986482128559    2.59241199535466    0.59351165263764
C         1.57343400349127    2.58876489966468    1.82254666937146
C         1.95412605095556    1.42013457678164    2.58287575359836
C         2.95922791889374    0.69669947295721    1.82672865909553
C        -0.36847814930159    3.47887157701475    0.59196645812414
C        -1.75030111474082    3.03464218992102    0.59485842566644
C        -1.98047254600817    2.30733427732905    1.82788968985575
C        -0.74971366843095    2.30812667866450    2.59424567393812
C         0.24830830069722    3.02583035409434    1.82711462978686
C        -3.42269249626032    0.72495836673950    0.59142787416097
C        -3.42548057085720   -0.72750946958779    0.59655004424747
C        -2.80804807487069   -1.17650922277234    1.82943254551979
C        -2.42726892764674   -0.00027380510523    2.59387040946410
C        -2.80399078957177    1.17159054732404    1.82886597314813
C        -1.74732079720382   -3.03319634478315    0.59809656776591
C        -0.36958894604557   -3.48181139415881    0.59351943069661
C         0.24906559644202   -3.03442320122502    1.83091991337673
C        -0.75138678265930   -2.30703927317315    2.59370077398499
C        -1.98533740039491   -2.30747508540395    1.82931288961653
C        -0.24951057617912   -3.03415706147005   -1.83052292590960
C         0.74857513152924   -2.30664481524634   -2.58813840537881
C         1.98575448707900   -2.30916972021761   -1.83182075216228
C         1.74439965288946   -3.02999451306784   -0.59672750723934
C         0.36665131001794   -3.48261660166126   -0.59549247616384
C         2.80990648820574   -1.17497711659862   -1.83168276443075
C         2.42472586893450    0.00008043942847   -2.58863951245020
C         2.80859875499856    1.17516785609485   -1.83061997291952
C         3.42666388137065    0.72594244728623   -0.59632548668503
C         3.42052239124984   -0.72287158401281   -0.59677258467991
C         1.98273547519838    2.30223555183579   -1.83053603138979
C         0.74876105931678    2.30908086470650   -2.59517348472362
C        -0.25107354266273    3.03215397745561   -1.83158260338389
C         0.36805616151074    3.48350743388352   -0.59673163768897
C         1.74396325596584    3.02857301276053   -0.59519490798506
C        -1.57941193316986    2.60229584027355   -1.82832907395612
C        -1.96398147675166    1.42716709353900   -2.59598157420388
C        -2.96340134223081    0.70020994204000   -1.83006255496311
C        -3.19655735636110    1.42736761356383   -0.59631381462927
C        -2.34459465292779    2.59984249104407   -0.59676596206279
C        -2.96151472075409   -0.69767942499337   -1.82823838575965
C        -1.95978132015700   -1.42615728448007   -2.59337065315055
C        -1.58061065798586   -2.60238849941855   -1.83146043092596
C        -2.34537847523621   -2.60181722173249   -0.59498871014184
C        -3.19933579536452   -1.42569018970731   -0.59451006024189
C        -0.99961724734714   -0.72539957767346   -3.33133509936943
C        -0.99726846247389    0.72595415517895   -3.33056441687708
C         0.38045679976499    1.17473497190957   -3.33137019059738
C         1.23092179705468    0.00067438434276   -3.32168808541064
C         0.37811538615677   -1.17242172538830   -3.32268662338217
C        -1.76902134409451   -0.00148896103451    4.76559085777462
F        -0.84586545128336   -0.00250887604655    5.69770609041451
F        -2.55342597706304   -1.02574767241701    5.05258114974809
F        -2.55499491540453    1.02512454687747    5.05466794045246
C        -0.54604786950101   -1.68070947370264    4.76783478716226
F        -0.26843328917983   -0.80411565184965    5.69827161510952
F        -1.76465848298250   -2.11126763208559    5.05245434152374
F         0.18397485607356   -2.75029867627408    5.05598703991021
C         1.41660301022093   -1.03445600729951    4.75398857359451
F         0.68575035398314   -0.50508968466460    5.69975312813749
F         1.44085285208447   -2.33613239789119    5.07616236471053
F         2.66586053221196   -0.64490921201112    5.08848381371027
C         1.41483807850552    1.03213455204058    4.75665463985601
F         0.68629743008590    0.50335034164119    5.70040867264033
F         2.66137316279781    0.64606664481976    5.08803585010473
F         1.43234008224492    2.32849431559945    5.08677778196686
C        -0.54515615569284    1.67530984256192    4.76526742972534
F        -0.26702862783514    0.80508107749205    5.69893926367794
F        -1.76484475335057    2.11342642792085    5.05490600668175
F         0.18389019693599    2.75602350519283    5.05729849465118
C         3.35444915404286   -3.70767316512551    0.85664735609094
F         4.05448319762477   -3.55614853173605    1.99064259490312
F         4.26189659420351   -3.89260535388812   -0.09905194029269
F         2.78977782783668   -4.92879408100832    1.03170053195537
C         4.56198605208951   -2.04543107530491    0.85589991270485
F         4.63506327068678   -2.75752043541167    1.99068630133524
F         5.01857177766685   -2.85107341433492   -0.09742830672466
F         5.54967961594620   -1.13156204480225    1.03476234755468
C         2.81409121342547   -2.04671266036343    3.70342673586830
F         3.82640917080491   -2.77981516573710    3.25201918899788
F         3.42052079621798   -1.14150898173743    4.48853633504505
F         2.13058264825124   -2.89147689813608    4.49593446713540
C         3.34452086093329    3.71605037716296    0.84661769724338
F         4.11702713151184    3.52418579804976    1.95512436008863
F         4.29119952539931    3.83515107840579   -0.09949880070266
F         2.83195185825069    4.93153443695466    0.99466419733123
C         2.25835313172056    3.70686304329812    2.61562449582693
F         3.58553904006648    3.56198050802353    2.76735650322578
F         2.15355475531079    4.93244623559746    2.09171244083835
F         1.81612021245529    3.89388706735229    3.85701623498231
C         2.80141697343355    2.03673767064186    3.70166033756942
F         3.84212120807050    2.77790272939922    3.27696616402819
F         2.15651349559896    2.84813193170072    4.53451798272321
F         3.37515880752870    1.17183576265295    4.52955734892320
C         4.23819141107824    0.99285387547284    2.62442045564307
F         4.50574390028972    2.32370855233893    2.73242310281407
F         5.34365400396549    0.52153539499824    2.04263566099675
F         4.26460252077708    0.47941072062141    3.83422617590056
C        -0.53017224668417    4.99147745088392    0.85942117887044
F        -1.24259630531007    5.25707719361757    1.94863077985213
F        -1.18398844240222    5.61711442491652   -0.12147698346573
F         0.61209754653841    5.64184311845862    0.94472922273099
C        -2.83133200662673    3.31067287958369    2.61898955614197
F        -2.25530186241226    4.49683954858953    2.76098874675284
F        -4.00988753509768    3.59631606450645    2.03041257149534
F        -3.08384342670780    2.92509167373668    3.88225594342556
C         0.35824200831308    4.34090046311189    2.60616150322266
F        -0.83024216786266    4.95782382788104    2.79532011048969
F         1.14706845563453    5.24511736367812    2.09124301416267
F         0.76261956905920    4.18435734912808    3.88615129506922
C        -4.91145070183626    1.04001508916707    0.85889307962894
F        -5.38183911624446    0.42893935678076    1.95276913997899
F        -5.70755090439203    0.61000599815949   -0.12043195232042
F        -5.17419991959270    2.32596222033471    0.94544326856654
C        -4.01520079885564    1.68648823399287    2.60375409250757
F        -4.97144949557463    0.72598867787746    2.80063254234912
F        -4.62637728995440    2.71802196962520    2.09096890313883
F        -3.73547828977402    2.02913673677818    3.88598486216989
C         0.34203522571471   -4.35857754096998    2.62695179524262
F        -0.84046130562416   -4.95338819347922    2.75107763567495
F         1.15490484760845   -5.23916885729556    2.04412479042019
F         0.80854233560884   -4.17278459052903    3.86034592561293
C         1.07466378876557   -3.31914460822824   -3.70205636225765
F         1.45404634977890   -4.49779312011375   -3.24628354093391
F         0.02545683151444   -3.58758078869251   -4.49665978807845
F         2.09507082198091   -2.93490154413031   -4.48626913316850
C         2.49243019713815   -4.34833051040832   -0.86642135766107
F         2.09469193521643   -4.96334897082788   -1.96505812240373
F         3.81268463870342   -4.18162846221934   -1.05211671461080
F         2.32775758552471   -5.25924197779739    0.10935656196766
C         3.48677056524167    0.00061829245442   -3.70249069710359
F         4.72773401973760    0.00767772093702   -3.24638697201263
F         3.43809652926026   -1.08143745322754   -4.48622026945479
F         3.41885020334629    1.08581799064772   -4.49927064918594
C         4.90499221139658   -1.02892646996971   -0.86721872227880
F         5.36831314373680   -0.45797088493764   -1.96547241939108
F         5.15476494015685   -2.33162357125892   -1.05323936542584
F         5.72268360444893   -0.58641615492988    0.10709232323862
C         2.84226507056790    3.31333623519227   -2.62127376904046
F         2.23151619483022    4.49105551761214   -2.79575129981864
F         3.10478637326928    2.89988389609964   -3.86468687598710
F         4.03271445587517    3.52464402257370   -2.09857586337616
C         2.50766913978318    4.32829515962083   -0.85766091569014
F         2.06732530707602    4.99441979369851   -1.96196587597221
F         3.80525318597095    4.21280710100079   -0.98728599704734
F         2.31738734823841    5.27325600939391    0.08657505326670
C        -2.82765345495674    2.05455435429673   -3.71515005090767
F        -3.82937217120167    2.78230211805169   -3.22610185219330
F        -2.11715432203747    2.85974884677859   -4.50418807932194
F        -3.37281643385898    1.13229596068023   -4.50504026076924
C        -4.25103113055409   -1.00948327647532   -2.62646545478083
F        -4.48722742509144   -2.30564709027182   -2.73670951353520
F        -4.25959715856764   -0.48963462877162   -3.82912930644242
F        -5.33951525508150   -0.51931849598821   -2.04248431968118
C        -2.82164903016412   -2.04852563325369   -3.71805898085649
F        -3.80329037735994   -2.80153936251224   -3.25859814784472
F        -3.33127908624186   -1.16102492337874   -4.53840568399461
F        -2.11847591729591   -2.86194283384354   -4.50491412576108
C        -3.36981542131239   -3.72956644829909   -0.86393382711695
F        -4.06734624045329   -3.53262569820675   -1.96460434660958
F        -2.78582752210693   -4.91734511337138   -1.00361628059471
F        -4.25729047634713   -3.84818564930535    0.12052215543099
C         1.75406546920914    0.00398791688557   -4.76012811602571
F         0.78066932953221    0.03728683300344   -5.69372337910294
F         2.49694662690916    1.08887231848812   -5.07182606638353
F         2.52531674777753   -1.04291131613642   -5.08607313467746
C         0.54616043580205   -1.66887582751981   -4.76067117490753
F         0.19973045384800   -0.75489546552978   -5.69449432986271
F        -0.26062679160924   -2.70758453697440   -5.07210113257186
F         1.76641080099246   -2.08063349613358   -5.08591410352578
180
 energy: -584.329599134524 gnorm: 10.018556344583 xtb: 6.4.1 (a3dbbd7)
C        -1.23717077900857    0.00031707230208    3.31880157984608
C        -0.38276682985720   -1.17593595956043    3.31569715032411
C         0.98877395974713   -0.72015394428625    3.30903134850747
C         0.98708669250791    0.71661653551158    3.29900874423078
C        -0.38161648983109    1.17276887420464    3.31501513475703
C         2.33601728935640   -2.59566797345021    0.59860104999751
C         3.19076083632254   -1.42013566280914    0.59794628415796
C         2.96228800212638   -0.70188414375720    1.82994113803294
C         1.96330224511413   -1.42731355179768    2.58375133577796
C         1.58274444780212   -2.60086228512048    1.82992717739309
C         3.20179029469205    1.42786170668686    0.59708355417231
C         2.33662234669503    2.58540712847295    0.59419903287419
C         1.56691625924105    2.57455608688912    1.81293796535335
C         1.94599052780369    1.41493103097946    2.57273169858803
C         2.95898615108681    0.69583266819245    1.82431100885190
C        -0.37004828499263    3.47639005884970    0.58958980811008
C        -1.75083321981427    3.03566109626031    0.59427021306972
C        -1.97690108725314    2.31040710227610    1.82651883675019
C        -0.74951126334354    2.30957727325094    2.59382246615601
C         0.24659917492471    3.02013823779281    1.82391182846145
C        -3.42277140340823    0.72311397727822    0.58916468668997
C        -3.42430045312940   -0.72860848656998    0.59798252573724
C        -2.80798782179997   -1.17729981537579    1.82780437178921
C        -2.42907390511694   -0.00095774337373    2.59354847707284
C        -2.80455380000589    1.16918602518158    1.83018020645700
C        -1.74432490479972   -3.03294721981720    0.60146913968851
C        -0.37200446964432   -3.48066454831331    0.59219872417171
C         0.24776210714519   -3.03657324212719    1.83193147355544
C        -0.75327728652875   -2.30784298297758    2.59293905016911
C        -1.98511377373679   -2.30694330625703    1.82761705906528
C        -0.24855622056146   -3.03431480612857   -1.82870295765038
C         0.74850034472553   -2.30821577439623   -2.58342966738420
C         1.98552493479117   -2.31122382808660   -1.83207868173793
C         1.74131415350741   -3.02935843758592   -0.60014338605434
C         0.36511550448272   -3.48230888989402   -0.59615316974560
C         2.81119140617043   -1.17379703813230   -1.83229320051238
C         2.42567434703218   -0.00020511062097   -2.58399440895690
C         2.80972614010466    1.17458853025447   -1.83030479927976
C         3.42772949769532    0.72515805592333   -0.59800726401053
C         3.41765709680499   -0.71935797243697   -0.59958276576094
C         1.98093003041045    2.29907954876004   -1.83182196315846
C         0.74720610563794    2.31126004662673   -2.59504814952028
C        -0.25123292241149    3.02999373211025   -1.83176646963471
C         0.36851573606252    3.48454283100230   -0.59906453284028
C         1.74062082097446    3.02790132993956   -0.59633809378040
C        -1.57851162085278    2.60338477057837   -1.82618109056794
C        -1.96616068347245    1.42904157386037   -2.59763555476068
C        -2.96364073471774    0.70156314696217   -1.82878739466050
C        -3.19427052622460    1.42921930072165   -0.59878979794883
C        -2.34443461988125    2.59764069381013   -0.59858823231232
C        -2.96183890194428   -0.69674912770936   -1.82564683779945
C        -1.95783877433127   -1.42735681269013   -2.59256066412427
C        -1.58061129663827   -2.60289519608801   -1.83237249147958
C        -2.34700424047380   -2.60348267598419   -0.59577803296860
C        -3.19983116345471   -1.42535527372889   -0.59406619383893
C        -0.99863659043264   -0.72434989376702   -3.33255304730144
C        -0.99374141685672    0.72527323603104   -3.33146714225020
C         0.37806961615547    1.17401353282316   -3.33088124883487
C         1.22776914616984    0.00406285836254   -3.31979873856660
C         0.37484279550616   -1.17078719669484   -3.32004037611555
C        -1.77763135376201   -0.00237045820205    4.75343292720421
F        -0.94830892197839   -0.00616893741728    5.71444186094933
F        -2.58019900435300   -0.99474580266740    5.05411705361829
F        -2.57907726800795    0.99352152703183    5.05831582417237
C        -0.54624802650669   -1.68583950507130    4.75527639291851
F        -0.30846422088039   -0.90150660865039    5.71338788374635
F        -1.74482539487460   -2.14673972728305    5.05497387848418
F         0.14216739881315   -2.76896996156757    5.05783731510381
C         1.40350189200565   -1.02502065092745    4.71863392853029
F         0.77190530096495   -0.57360210240116    5.72021616529328
F         1.46603193113092   -2.32798279464155    5.10753802540356
F         2.65611066983443   -0.66712208355566    5.13819209900221
C         1.39882212756446    1.01803565170532    4.72451935661117
F         0.77366320082455    0.57143825235740    5.71923666898491
F         2.66598274929174    0.67252572685466    5.12649891160399
F         1.44884117773543    2.32311275332989    5.12670769583734
C        -0.54340271900627    1.67295221830656    4.75161153045342
F        -0.30471666282925    0.90722246170878    5.71509938182734
F        -1.74548637443389    2.14916438335981    5.06038774651871
F         0.14200034155019    2.78147470679784    5.06059898597334
C         3.34626969045331   -3.68333532256506    0.83176759903984
F         4.05048777107424   -3.59254329711984    1.99954284481161
F         4.26271433015212   -3.92558846506920   -0.04047618602067
F         2.80562621345387   -4.93600854303982    1.07731900751844