63
 energy: -142.062553110253 gnorm: 0.136757073347 xtb: 6.4.1 (a3dbbd7)
C        -1.32333194775417    0.00617886347970    3.59125188963251
C        -0.38909456310608   -1.27772716531095    3.58793274117145
C         0.98734837171535   -0.72675165446744    3.28582848483634
C         0.97037352147027    0.69420630050098    3.25749094477592
C        -0.37633960723915    1.14742685553706    3.29074190055216
C         2.33092254703306   -2.58746567485154    0.56610397604514
C         3.16875994483946   -1.41579758165486    0.56774606192583
C         2.91978889080344   -0.69314490348597    1.79074016083681
C         1.93018806170321   -1.40549148670748    2.54814074589443
C         1.57476788296703   -2.59634073810083    1.79100274817011
C         3.18328087896891    1.41909085132624    0.57258499213333
C         2.33432229320876    2.58580968143883    0.57559918777772
C         1.57332139543398    2.57095369604789    1.79851755002390
C         1.94352282881158    1.40414426944103    2.54285112768194
C         2.93804115459266    0.69543633516321    1.79366637265872
C        -0.36752716666001    3.44413435035873    0.58029879258012
C        -1.74013210357057    3.00741588983283    0.58054459941955
C        -1.97818665379860    2.28654468588757    1.80361199533287
C        -0.73393250395930    2.25581684802015    2.55761528373596
C         0.24647420110131    2.98080949443068    1.80023381740862
C        -3.39591089216029    0.72883802558845    0.57533866561121
C        -3.37932885665645   -0.70504006359254    0.57786353554246
C        -2.74934612856665   -1.12865052488571    1.82052481704193
C        -2.40026274086307   -0.01382700939334    2.55826017594831
C        -2.77435746218519    1.16021035149421    1.80187148511327
C        -1.70577977915925   -3.00504292266898    0.57191390059864
C        -0.34657433486683   -3.46193150719564    0.56452064530943
C         0.25810980605866   -3.00738238851431    1.79111395103090
C        -0.74203335365356   -2.29289841924391    2.55243835495534
C        -1.91196172287597   -2.27950749485726    1.81757326885181
C        -0.23558165862281   -3.01371296632646   -1.83961821271520
C         0.75175047781152   -2.28700579367404   -2.59867644532734
C         1.98089777627659   -2.28868303835222   -1.84308617931945
C         1.74918768154887   -3.01946296828987   -0.62050040464920
C         0.38088379041600   -3.46658963937948   -0.62079308111870
C         2.79204993046375   -1.16413556659148   -1.83875967224219
C         2.41002754086118    0.00666527739579   -2.59106683151125
C         2.78807241943814    1.16926264052202   -1.83130610074559
C         3.40298548527550    0.72369088805355   -0.60835037131266
C         3.40110069057525   -0.71955382898331   -0.60923004493565
C         1.96912615256614    2.29475463280888   -1.82840259178522
C         0.74474441569639    2.29528025280401   -2.58515694980539
C        -0.24988429155059    3.01642431380723   -1.82795956514323
C         0.36353023978106    3.45499162487799   -0.59844520421847
C         1.73735095077191    3.01278425815446   -0.60243935985793
C        -1.56944867307335    2.59059487249377   -1.83048045584010
C        -1.94787757007795    1.42311330884846   -2.58910001301826
C        -2.94122296022124    0.70465889669871   -1.83002690890673
C        -3.17947337159538    1.42642572884929   -0.60816005298080
C        -2.33307692209202    2.59081264516620   -0.60600270171083
C        -2.93172079240255   -0.68656028280689   -1.82266620418654
C        -1.94059925011627   -1.40887980593779   -2.58138532694875
C        -1.55636984787224   -2.57670213587000   -1.82754179967090
C        -2.29848528094837   -2.57416283302738   -0.59738768824741
C        -3.15456863482430   -1.39758782868201   -0.59434922362650
C        -0.98936986995949   -0.71482485845558   -3.31408037280858
C        -0.99159024528376    0.72723605185279   -3.31429029098428
C         0.38014149579772    1.17201579903766   -3.31523274930469
C         1.22728121177112    0.00778684511203   -3.31823795360647
C         0.38205649969615   -1.16057927312445   -3.31917058806611
Cl       -2.09995733548554    0.29360223981566    5.20530702406437
Cl       -0.35034641589922   -2.11046483688082    5.19906768498811
Cl        5.14768093084806    1.08037618741355   -0.93225375107096
63
 energy: -142.086693755058 gnorm: 0.058550681839 xtb: 6.4.1 (a3dbbd7)
C        -1.32646984195400    0.00498529276474    3.59323677185595
C        -0.39094557929769   -1.27812164518326    3.58910148072540
C         0.98469785872931   -0.72547028201768    3.29005702514491
C         0.96525856270931    0.69524753118850    3.26565314209665
C        -0.38118695800478    1.14738348164626    3.29492780362885
C         2.32773265050807   -2.59282188183481    0.56597184720618
C         3.15519554233526   -1.41732545889923    0.56494159429508
C         2.91427686609246   -0.69192994389014    1.79270415098227
C         1.92842264535600   -1.40397082566999    2.54761821070007
C         1.57280463258210   -2.59608104782363    1.79075995485252
C         3.18690190634846    1.43472115556809    0.59357136393794
C         2.32470945036302    2.57862244753013    0.58407925229233
C         1.56579848524635    2.57358840582218    1.80986630075698
C         1.93550554712813    1.40897388192538    2.55365441151548
C         2.92435771963837    0.70004752769412    1.79487816380350
C        -0.37117781811232    3.44520721513451    0.58342183621226
C        -1.74102983904251    3.00774806457779    0.58160198540450
C        -1.98081890523810    2.28631807345861    1.80468789829975
C        -0.73859456908229    2.25598141573058    2.56153807577275
C         0.24069218456962    2.98297501946458    1.80615575781951
C        -3.39672757145711    0.72840347355850    0.57505200304718
C        -3.37981623340711   -0.70472826806947    0.57745773803017
C        -2.75006316729383   -1.12875701909248    1.82037155707819
C        -2.40176608568286   -0.01435315267816    2.55887162128918
C        -2.77557904663748    1.15975136816859    1.80209223306487
C        -1.70719397063695   -3.00545900221036    0.57207481821367
C        -0.34865928529772   -3.46227607844254    0.56436485742474
C         0.25650000764557   -3.00699708432540    1.79128730113127
C        -0.74318069276441   -2.29297621794815    2.55275699665896
C        -1.91293122281200   -2.27954450299151    1.81764484368062
C        -0.23903292921118   -3.01631593522545   -1.84090334721767
C         0.74744605345792   -2.29011254976557   -2.60028882494144
C         1.97539061055713   -2.29546446088434   -1.84329133083555
C         1.74585677519573   -3.02526592728946   -0.62234917974417
C         0.37760292633291   -3.46912060526803   -0.62170202203675
C         2.78091485828369   -1.16504512488978   -1.83347055874442
C         2.39854174133539    0.00703314036305   -2.58751435788238
C         2.77279190003870    1.16722093334106   -1.83882092299486
C         3.50828745742548    0.74446414800856   -0.62930524568662
C         3.38894430577841   -0.73027764487424   -0.60981939796848
C         1.95685805301629    2.28669713143223   -1.82823222177430
C         0.73906129785761    2.29484319011653   -2.59035569885788
C        -0.25156362090456    3.01413669436539   -1.82820807111374
C         0.36287531693888    3.45292056744364   -0.59741003414501
C         1.73159635274828    3.01147881924124   -0.59989774416618
C        -1.57090195665993    2.58922635601939   -1.83053526454762
C        -1.94995616654807    1.42211414444647   -2.58996942749922
C        -2.94252703997877    0.70437638769743   -1.83063753977131
C        -3.17985090531446    1.42662734382926   -0.60834361070908
C        -2.33471224259368    2.59079946458827   -0.60636348707989
C        -2.93353591715590   -0.68707839550175   -1.82306945608673
C        -1.94344750344831   -1.40975320580493   -2.58198646077680
C        -1.55911070218907   -2.57758789589096   -1.82774965850281
C        -2.30040039532343   -2.57431509522286   -0.59770309338865
C        -3.15613717834289   -1.39808813730355   -0.59496217172000
C        -0.99338705003546   -0.71653711003545   -3.31640754281190
C        -0.99552192591490    0.72563117852575   -3.31722233792118
C         0.37498381387613    1.17056340301074   -3.32198139868568
C         1.21958153421768    0.00711621228238   -3.32376068340036
C         0.37761192510069   -1.16283413853821   -3.32138164114684
Cl       -2.10273841870862    0.29274046882673    5.20693978319707
Cl       -0.35057410185818   -2.11188856359767    5.19937180353481
Cl        5.29275639069840    1.10414103434547   -0.96893006551226
63
 energy: -142.092651237823 gnorm: 0.013378145880 xtb: 6.4.1 (a3dbbd7)
C        -1.33107407288265    0.00423344530752    3.59511409142041
C        -0.39425587113144   -1.27825908876678    3.59003921055545
C         0.98104291882985   -0.72470296073964    3.29182356487109
C         0.96096199176178    0.69498115039969    3.26721647770112
C        -0.38568320443747    1.14712777763740    3.29812530323648
C         2.32220495810440   -2.58612088447828    0.56391528233471
C         3.15328018673182   -1.41306420295045    0.56007282519508
C         2.91457073720330   -0.69114641098356    1.79409051065284
C         1.92648139154978   -1.40018352880841    2.54472513625521
C         1.56908742320975   -2.59256660408708    1.78927910014353
C         3.18381016320938    1.43638052166491    0.59598256351117
C         2.32325325874559    2.56772613576911    0.58294083480408
C         1.56112391117459    2.56968023250241    1.80976103194274
C         1.93040792987101    1.40810549588536    2.55276378585915
C         2.91858294712593    0.70163023801542    1.78597519503321
C        -0.37536568914837    3.44466192988639    0.58533383855914
C        -1.74298858555059    3.00678250369655    0.58260690056036
C        -1.98497339955278    2.28555047954401    1.80631677991291
C        -0.74321272423498    2.25595537496831    2.56435163443558
C         0.23653710694924    2.98090923476686    1.80737537525396
C        -3.40009827257109    0.72741444492159    0.57571642519782
C        -3.38259572677726   -0.70494275285007    0.57783307136470
C        -2.75336325654155   -1.12920278363269    1.82130021248569
C        -2.40596572767752   -0.01518323262005    2.56046998879816
C        -2.77924549516401    1.15911007332095    1.80317060673800
C        -1.70997327571803   -3.00549936670426    0.57260061346525
C        -0.35214214702447   -3.46269425956211    0.56458472981159
C         0.25361408879075   -3.00567028022426    1.79138112928475
C        -0.74648591973365   -2.29296468071335    2.55353659490216
C        -1.91609459763316   -2.27967112729027    1.81853336733649
C        -0.24326545183749   -3.01762559227583   -1.84114191062139
C         0.74364877419945   -2.29068333959638   -2.59920639457883
C         1.97087237332624   -2.29457123732158   -1.84041745502505
C         1.74061340315999   -3.02370487134296   -0.62307051131740
C         0.37360118941616   -3.47116067630484   -0.62199281968487
C         2.77547505450291   -1.16008688845848   -1.82329310063641
C         2.39312497843261    0.01202153478552   -2.57795313200415
C         2.77507355856739    1.16854418668956   -1.84280632206273
C         3.60069389969759    0.76116335591527   -0.65015367305131
C         3.39310473071215   -0.73198830253083   -0.61113469867164
C         1.95733046683231    2.27991794860267   -1.82688077333055
C         0.73718011166710    2.28861350812869   -2.58553941925845
C        -0.25319179030993    3.00977682915145   -1.82594823594792
C         0.36359801615244    3.44819678570221   -0.59549641155309
C         1.73079090137693    3.01270793128005   -0.59949063225900
C        -1.57320616302481    2.58726978708697   -1.82961356790542
C        -1.95349481983439    1.42080617006603   -2.59022340108725
C        -2.94537565566093    0.70345570313934   -1.83024560694673
C        -3.18237067506192    1.42596100805012   -0.60760717925685
C        -2.33785834340088    2.58955754022116   -0.60585037921513
C        -2.93748238164568   -0.68822477186853   -1.82272681814168
C        -1.94811932978400   -1.41109318867643   -2.58197303667484
C        -1.56360665005954   -2.57884730756017   -1.82739881160841
C        -2.30408834241194   -2.57483749738464   -0.59735040399750
C        -3.15998580239166   -1.39898344253343   -0.59459225809618
C        -0.99788274482468   -0.71823043375307   -3.31686617415286
C        -1.00011210585781    0.72420022484616   -3.31915203241874
C         0.37106589627919    1.16727889895174   -3.32117711110060
C         1.21510363407764    0.00721796009562   -3.32108096907468
C         0.37385306690079   -1.16334474399690   -3.32022022681978
Cl       -2.10691836790425    0.28737776606992    5.20950596739741
Cl       -0.35529135833627   -2.11237859775377    5.20021553183468
Cl        5.40009541076995    1.12490464964721   -0.99191442837167
63
 energy: -142.092957671558 gnorm: 0.007989888312 xtb: 6.4.1 (a3dbbd7)
C        -1.33305745543691    0.00399649125539    3.59656286579731
C        -0.39546941666880   -1.27885906599230    3.59071338920499
C         0.97984683258814   -0.72502139953792    3.29223450459052
C         0.95955449345410    0.69438840780331    3.26605408477551
C        -0.38713565520865    1.14671962781600    3.29890541714682
C         2.32021286838585   -2.58067823397313    0.56249488131707
C         3.15733457985706   -1.41091773785543    0.55868958674841
C         2.91672747381292   -0.69161590097326    1.79536494940365
C         1.92618218182203   -1.39871975572962    2.54410667378475
C         1.56732411672277   -2.58958054195789    1.78788688825844
C         3.18316681188282    1.43370380596136    0.59187078071959
C         2.32558035264642    2.56469816417341    0.58012961613310
C         1.56008318124446    2.56659649550521    1.80675236948780
C         1.92915485206471    1.40612255884259    2.54943982615153
C         2.92025992017786    0.70136902588446    1.78183321159317
C        -0.37676214188431    3.44390468042945    0.58533477793782
C        -1.74397991916867    3.00620159318263    0.58268591924867
C        -1.98662088260654    2.28541076622036    1.80687249471656
C        -0.74453070710499    2.25552174142409    2.56463399401018
C         0.23560884300326    2.97894503571969    1.80654089774663
C        -3.40198917294535    0.72706895167176    0.57620761758042
C        -3.38440693312331   -0.70513162634639    0.57829445290094
C        -2.75516899051874   -1.12927808014970    1.82200731733494
C        -2.40766260517023   -0.01527655094239    2.56126455522297
C        -2.78092617850196    1.15905685874035    1.80371260754830
C        -1.71190304342621   -3.00564503409340    0.57301966253111
C        -0.35399719586167   -3.46216800895636    0.56480694619953
C         0.25235530426432   -3.00441319558214    1.79108869956503
C        -0.74808337578776   -2.29288214455524    2.55382019700764
C        -1.91795083892747   -2.27974884427232    1.81913828783078
C        -0.24524534766101   -3.01769461734324   -1.84061674830184
C         0.74203188753746   -2.28968845204463   -2.59740110713230
C         1.96939999469884   -2.29156224522631   -1.83875680639734
C         1.73849035252886   -3.02096798704259   -0.62285996434202
C         0.37184201629020   -3.47100851744575   -0.62164772232156
C         2.77643885233997   -1.15765106346295   -1.82011847019679
C         2.39403421887687    0.01438839279546   -2.57495289416336
C         2.78427092965622    1.17118779573415   -1.84514600616321
C         3.62322318670740    0.76438461527279   -0.65663462062079
C         3.40296314266146   -0.73047040323084   -0.61254361675815
C         1.96173493136506    2.27971316021755   -1.82726807297042
C         0.73797542666787    2.28496461719211   -2.58179835051602
C        -0.25329635099572    3.00685920433553   -1.82419768452696
C         0.36398055046102    3.44658481268707   -0.59483510216949
C         1.73165588476252    3.01474043270260   -0.60034480224026
C        -1.57391564554905    2.58592095462997   -1.82881519281428
C        -1.95517903557406    1.41992177870243   -2.58975631244662
C        -2.94742147069194    0.70289231219059   -1.82998039049411
C        -3.18410677081155    1.42554448820135   -0.60723296366558
C        -2.33941523594681    2.58887109095152   -0.60557683004508
C        -2.94005449621861   -0.68892916491512   -1.82256298906345
C        -1.95069466373929   -1.41182296575492   -2.58193323824669
C        -1.56605321492598   -2.57962625470002   -1.82709204998260
C        -2.30651117635108   -2.57549977065512   -0.59703081378075
C        -3.16239065000899   -1.39950391513921   -0.59416412568646
C        -0.99994551872609   -0.71882911148136   -3.31638145043235
C        -1.00192945027217    0.72357033290414   -3.31896163344944
C         0.37014897810161    1.16569980306521   -3.31887140731410
C         1.21449878556785    0.00697632856660   -3.31750144508235
C         0.37230326815781   -1.16289382164076   -3.31810433291137
Cl       -2.11286727865732    0.28881949313665    5.20888374904929
Cl       -0.35371014848279   -2.11731757134222    5.19880525103045
Cl        5.41841327984910    1.13024593537378   -0.99292954235439
63
 energy: -142.093032710328 gnorm: 0.004835448579 xtb: 6.4.1 (a3dbbd7)
C        -1.33268212230085    0.00370798021733    3.59599472328818
C        -0.39574115020642   -1.27851891872973    3.58975673446476
C         0.97992595089567   -0.72510361093406    3.29266221095152
C         0.95947543538395    0.69435083368817    3.26486249228211
C        -0.38700588370715    1.14690526486826    3.29918217314930
C         2.31903391433751   -2.57748832448174    0.56156991383391
C         3.15945411946923   -1.40976854509706    0.55812174438082
C         2.91830549192382   -0.69245770766485    1.79676214289023
C         1.92663394928676   -1.39833603934524    2.54448989439781
C         1.56636119983140   -2.58776994783169    1.78712604775726
C         3.18150440065226    1.43098110837212    0.58811778142321
C         2.32715137767384    2.56316769615149    0.57764656431651
C         1.55963922537869    2.56472664227690    1.80432478551517
C         1.92877626779342    1.40505943640341    2.54674119247353
C         2.92186741344872    0.70090112578360    1.77908695194296
C        -0.37740733646367    3.44396430346427    0.58500919305524
C        -1.74426666322539    3.00621110023663    0.58252273807806
C        -1.98705542179010    2.28565702598427    1.80711482187960
C        -0.74464181885073    2.25567174052081    2.56461994668199
C         0.23547209314377    2.97819105793187    1.80579902987572
C        -3.40255148021664    0.72704118857373    0.57629141250385
C        -3.38491929604083   -0.70510943572112    0.57820305834767
C        -2.75560036856517   -1.12921822417010    1.82195063614434
C        -2.40805199286519   -0.01528388898064    2.56131662406485
C        -2.78135248103782    1.15924650010693    1.80390304586084
C        -1.71278780806832   -3.00597702204508    0.57304028157162
C        -0.35485627585227   -3.46199431051130    0.56492173093111
C         0.25190309387586   -3.00422264312945    1.79112149035269
C        -0.74881107467250   -2.29315218421784    2.55386957849874
C        -1.91869366067615   -2.27991246014997    1.81915576469350
C        -0.24615996162295   -3.01800682294262   -1.84034673501102
C         0.74114146637740   -2.28903968490305   -2.59630107777069
C         1.96830001798717   -2.28954165233651   -1.83774970776059
C         1.73737793600091   -3.01955733961770   -0.62262259458600
C         0.37092996034483   -3.47116787663931   -0.62145858614409
C         2.77654405919245   -1.15627832073871   -1.81812004583868
C         2.39411481321707    0.01572917594280   -2.57307500651633
C         2.78986178183857    1.17294273551439   -1.84621664366093
C         3.63349328781144    0.76568974275154   -0.66000711446888
C         3.40877805729590   -0.72918505671077   -0.61316069876641
C         1.96407794498240    2.27992258110840   -1.82762539518147
C         0.73856007234172    2.28287292719657   -2.57986437249401
C        -0.25320940269560    3.00526472004935   -1.82331812279341
C         0.36411464568290    3.44648030676893   -0.59481237147222
C         1.73188312090560    3.01688538132675   -0.60131544156672
C        -1.57414808065836    2.58545521915469   -1.82861118864208
C        -1.95591927337108    1.41954110016868   -2.58956840007259
C        -2.94839334138217    0.70271243050203   -1.83003686225500
C        -3.18478492934288    1.42548657769620   -0.60722452234458
C        -2.34001409662139    2.58874683354045   -0.60559585121066
C        -2.94119619447836   -0.68925509493866   -1.82277743981297
C        -1.95191454745523   -1.41223781927632   -2.58225913303526
C        -1.56719037251442   -2.58023600654627   -1.82721166325707
C        -2.30759138765059   -2.57601686100774   -0.59714345805246
C        -3.16333976151892   -1.39975321428928   -0.59421046718675
C        -1.00099624699407   -0.71900896614838   -3.31639878591612
C        -1.00293349508429    0.72335708582883   -3.31904346376232
C         0.36967121663875    1.16502822411020   -3.31775030129243
C         1.21406912021500    0.00669859290034   -3.31509402464795
C         0.37146077714466   -1.16259058401948   -3.31680841013390
Cl       -2.10822407340189    0.27481803740975    5.21247055369812
Cl       -0.36388674650146   -2.10838605856934    5.20233842569326
Cl        5.42086106596398    1.13274771609140   -0.99022601336107
63
 energy: -142.093064113642 gnorm: 0.003518092234 xtb: 6.4.1 (a3dbbd7)
C        -1.33341300418673    0.00400609506159    3.59792637793235
C        -0.39560892004212   -1.27983332836197    3.59146317079451
C         0.97958913807373   -0.72591947597063    3.29327589630324
C         0.95893736780685    0.69375273948077    3.26474317213749
C        -0.38730563068458    1.14657268009057    3.29946267289061
C         2.31832696328528   -2.57575644056439    0.56080831706117
C         3.16026832250375   -1.40924326213397    0.55796790755523
C         2.91896853708185   -0.69363457155477    1.79821050797404
C         1.92667663104603   -1.39862183965798    2.54495823015709
C         1.56585415760314   -2.58688481282915    1.78653152417153
C         3.17878150894696    1.42806398178614    0.58539677827281
C         2.32772681252518    2.56179243761888    0.57611303648711
C         1.55893956447525    2.56292475277800    1.80298097007283
C         1.92778567384740    1.40377490977857    2.54523850452299
C         2.92238462074502    0.70003265843509    1.77750638401622
C        -0.37781432324300    3.44429775743587    0.58476961191480
C        -1.74435294497646    3.00656765254419    0.58224721719367
C        -1.98711979473630    2.28607420913298    1.80708329073995
C        -0.74459012188371    2.25533442255914    2.56426467352862
C         0.23531794512228    2.97760903795702    1.80540546364454
C        -3.40232675958392    0.72706641851845    0.57624574860693
C        -3.38451663338479   -0.70501883224286    0.57836171635486
C        -2.75521070200567   -1.12898906123632    1.82232741181421
C        -2.40736739927227   -0.01489130903322    2.56136833181861
C        -2.78086160018994    1.15944015166374    1.80370862536573
C        -1.71303634762894   -3.00599988442484    0.57335090765980
C        -0.35522909124360   -3.46181686062479    0.56498367542022
C         0.25190451316624   -3.00420519761725    1.79106713392977
C        -0.74855526933401   -2.29311158937122    2.55411785602316
C        -1.91869918237726   -2.27991851358980    1.81967295865650
C        -0.24660668222612   -3.01842091346403   -1.84015899257730
C         0.74061167635746   -2.28865092135046   -2.59558595466066
C         1.96745529045001   -2.28824308324304   -1.83714433966351
C         1.73679358368168   -3.01906411125180   -0.62250859203450
C         0.37039977238789   -3.47154324157045   -0.62138609241391
C         2.77612122365270   -1.15546411211915   -1.81651782790123
C         2.39367851509602    0.01658088499043   -2.57146234868530
C         2.79307507700113    1.17402743084748   -1.84618486280140
C         3.63894440607744    0.76629240981834   -0.66154659857086
C         3.41200089605056   -0.72821820687157   -0.61314976787011
C         1.96516073497726    2.28004061353272   -1.82749240077895
C         0.73900235049941    2.28157167418573   -2.57861909502595
C        -0.25306782941654    3.00442099842180   -1.82275093832568
C         0.36411282438326    3.44697493755332   -0.59484151861034
C         1.73164213775320    3.01867212347764   -0.60176063487339
C        -1.57418669921132    2.58544936587238   -1.82864954463458
C        -1.95620003486776    1.41938030373529   -2.58943608022266
C        -2.94879526922707    0.70267205341571   -1.83010109372104
C        -3.18494959722059    1.42555255183921   -0.60730746646525
C        -2.34025418947011    2.58892040908445   -0.60575643114190
C        -2.94159331984582   -0.68941486319706   -1.82280433479972
C        -1.95246738511568   -1.41247014349990   -2.58243228504741
C        -1.56771161278157   -2.58066997522602   -1.82719730655826
C        -2.30791777100156   -2.57627607948856   -0.59702112072606
C        -3.16348191869650   -1.39982457952642   -0.59403375549789
C        -1.00156149157897   -0.71901019996422   -3.31645252166502
C        -1.00351864500921    0.72331961670746   -3.31916330950047
C         0.36940204421275    1.16480019064683   -3.31710080001837
C         1.21373863594100    0.00644526105312   -3.31328737788992
C         0.37097921784252   -1.16237021739996   -3.31590432360231
Cl       -2.11776012697936    0.29071987537757    5.20763761414985
Cl       -0.35045291997069   -2.12236290315990    5.19765887993586
Cl        5.41636960600173    1.13428569609229   -0.98495706483852
63
 energy: -142.093098799685 gnorm: 0.001997456767 xtb: 6.4.1 (a3dbbd7)
C        -1.33272657401952    0.00400701602431    3.59701582775637
C        -0.39526325690689   -1.27920934227451    3.59074463179991
C         0.98007573481572   -0.72563958422860    3.29302082262045
C         0.95951655885205    0.69404014980634    3.26504902785874
C        -0.38678084225870    1.14670876909518    3.29917334833959
C         2.31895852153610   -2.57746178421300    0.56122218379230
C         3.15891159216228   -1.40986943982984    0.55814267895869
C         2.91832950559052   -0.69334080995879    1.79756918869339
C         1.92691328879195   -1.39898417157905    2.54498018612234
C         1.56645627722393   -2.58787995518436    1.78700634739089
C         3.17882257351651    1.42899253703030    0.58673228399357
C         2.32686071534183    2.56242912830418    0.57700340217381
C         1.55935727667817    2.56402078076420    1.80405643186044
C         1.92834730741003    1.40462120621083    2.54639463786217
C         2.92162253075249    0.70024164560923    1.77852004049489
C        -0.37736680228959    3.44448426893246    0.58480737107803
C        -1.74399213311112    3.00667245356164    0.58230895006761
C        -1.98665531116143    2.28602315711624    1.80700175083205
C        -0.74419612710409    2.25550217970050    2.56426555448578
C         0.23562815880049    2.97827173820338    1.80572769899196
C        -3.40186105604572    0.72716238277045    0.57616122836964
C        -3.38412733470487   -0.70494755293097    0.57822587800955
C        -2.75481041456207   -1.12898898631952    1.82205947225082
C        -2.40716941993229   -0.01495434398413    2.56117770458334
C        -2.78051358787818    1.15941978383563    1.80364636513492
C        -1.71242640958925   -3.00590085008551    0.57318293582373
C        -0.35465383042218   -3.46198617181306    0.56489164114325
C         0.25227498260658   -3.00460608224573    1.79120112277630
C        -0.74819314306735   -2.29312755769089    2.55401608722690
C        -1.91818553795932   -2.27984796103167    1.81941185123120
C        -0.24602524683577   -3.01836357175625   -1.84035368298225
C         0.74112933370667   -2.28904268446999   -2.59625526883570
C         1.96799378101421   -2.28936243660852   -1.83777416568646
C         1.73744755090500   -3.01997118718324   -0.62265409473746
C         0.37094400128144   -3.47161815240511   -0.62155331612608
C         2.77577469280070   -1.15620473095866   -1.81750025415091
C         2.39333620111778    0.01586209216007   -2.57241534998900
C         2.78982497047737    1.17302736521584   -1.84558898598373
C         3.63437080007420    0.76581493285370   -0.66002392911424
C         3.40858821526144   -0.72883560939786   -0.61282956891011
C         1.96370610353808    2.27981437299170   -1.82745896958784
C         0.73869864043406    2.28265712016550   -2.57986686325285
C        -0.25306241872198    3.00538109538232   -1.82340641453794
C         0.36410504346780    3.44732823136117   -0.59509829657600
C         1.73143198713284    3.01783849990994   -0.60154159331138
C        -1.57398800959795    2.58584480759328   -1.82888081038453
C        -1.95569821366324    1.41962613420376   -2.58959295762253
C        -2.94813193110265    0.70284643593473   -1.83010874406883
C        -3.18441356983483    1.42567433406322   -0.60733594095787
C        -2.33976322516132    2.58908417668704   -0.60577413455143
C        -2.94082199962318   -0.68917752067760   -1.82278999130249
C        -1.95171158738368   -1.41221669123441   -2.58237417240278
C        -1.56698506826088   -2.58035034684819   -1.82725310678646
C        -2.30719262980246   -2.57598081093409   -0.59711757628594
C        -3.16284631320984   -1.39964293061428   -0.59414732558876
C        -1.00096366022257   -0.71887051593628   -3.31660984559830
C        -1.00300036599407    0.72346357667000   -3.31931080534267
C         0.36962505664648    1.16521316139164   -3.31795656163700
C         1.21391992103443    0.00652101382650   -3.31469066015067
C         0.37145159324156   -1.16256140227336   -3.31670311281775
Cl       -2.11327791438651    0.28527596557159    5.20932324883130
Cl       -0.35522809069845   -2.11662090303193    5.19954091420310