108
 energy: -313.489994218324 gnorm: 5.434758079761 xtb: 6.4.1 (a3dbbd7)
C        -1.23626340000000    0.00000000000000    3.32997640000000
C        -0.38202640000000   -1.17575640000000    3.32997640000000
C         1.00015810000000   -0.72665740000000    3.32997640000000
C         1.00015810000000    0.72665740000000    3.32997640000000
C        -0.38202640000000    1.17575640000000    3.32997640000000
C         2.34433560000000   -2.60145750000000    0.59464210000000
C         3.19857260000000   -1.42570110000000    0.59464210000000
C         2.96246730000000   -0.69904370000000    1.83090550000000
C         1.96230920000000   -1.42570110000000    2.59495830000000
C         1.58028280000000   -2.60145750000000    1.83090550000000
C         3.19857260000000    1.42570110000000    0.59464210000000
C         2.34433560000000    2.60145750000000    0.59464210000000
C         1.58028280000000    2.60145750000000    1.83090550000000
C         1.96230920000000    1.42570110000000    2.59495830000000
C         2.96246730000000    0.69904370000000    1.83090550000000
C        -0.36750900000000    3.48258920000000    0.59464210000000
C        -1.74969350000000    3.03349030000000    0.59464210000000
C        -1.98579880000000    2.30683290000000    1.83090550000000
C        -0.74953540000000    2.30683290000000    2.59495830000000
C         0.25062270000000    3.03349030000000    1.83090550000000
C        -3.42570570000000    0.72665740000000    0.59464210000000
C        -3.42570570000000   -0.72665740000000    0.59464210000000
C        -2.80757400000000   -1.17575640000000    1.83090550000000
C        -2.42554760000000    0.00000000000000    2.59495830000000
C        -2.80757400000000    1.17575640000000    1.83090550000000
C        -1.74969350000000   -3.03349030000000    0.59464210000000
C        -0.36750900000000   -3.48258920000000    0.59464210000000
C         0.25062270000000   -3.03349030000000    1.83090550000000
C        -0.74953540000000   -2.30683290000000    2.59495830000000
C        -1.98579880000000   -2.30683290000000    1.83090550000000
C        -0.25062270000000   -3.03349030000000   -1.83090550000000
C         0.74953540000000   -2.30683290000000   -2.59495830000000
C         1.98579880000000   -2.30683290000000   -1.83090550000000
C         1.74969350000000   -3.03349030000000   -0.59464210000000
C         0.36750900000000   -3.48258920000000   -0.59464210000000
C         2.80757400000000   -1.17575640000000   -1.83090550000000
C         2.42554760000000    0.00000000000000   -2.59495830000000
C         2.80757400000000    1.17575640000000   -1.83090550000000
C         3.42570570000000    0.72665740000000   -0.59464210000000
C         3.42570570000000   -0.72665740000000   -0.59464210000000
C         1.98579880000000    2.30683290000000   -1.83090550000000
C         0.74953540000000    2.30683290000000   -2.59495830000000
C        -0.25062270000000    3.03349030000000   -1.83090550000000
C         0.36750900000000    3.48258920000000   -0.59464210000000
C         1.74969350000000    3.03349030000000   -0.59464210000000
C        -1.58028280000000    2.60145750000000   -1.83090550000000
C        -1.96230920000000    1.42570110000000   -2.59495830000000
C        -2.96246730000000    0.69904370000000   -1.83090550000000
C        -3.19857260000000    1.42570110000000   -0.59464210000000
C        -2.34433560000000    2.60145750000000   -0.59464210000000
C        -2.96246730000000   -0.69904370000000   -1.83090550000000
C        -1.96230920000000   -1.42570110000000   -2.59495830000000
C        -1.58028280000000   -2.60145750000000   -1.83090550000000
C        -2.34433560000000   -2.60145750000000   -0.59464210000000
C        -3.19857260000000   -1.42570110000000   -0.59464210000000
C        -1.00015810000000   -0.72665740000000   -3.32997640000000
C        -1.00015810000000    0.72665740000000   -3.32997640000000
C         0.38202640000000    1.17575640000000   -3.32997640000000
C         1.23626340000000    0.00000000000000   -3.32997640000000
C         0.38202640000000   -1.17575640000000   -3.32997640000000
C        -1.76086815247998    0.00000000000000    4.78849957557021
F        -0.76911826531252    0.00000000000000    5.67468926254662
F        -2.50968386795825   -1.06794314680471    5.04863888333743
F        -2.50968386795825    1.06794314680471    5.04863888333743
C        -0.54413818249354   -1.67468516033722    4.78849957845317
F        -0.23767107904745   -0.73147481112462    5.67468925997942
F        -1.79120914301982   -2.05683909935453    5.04863874564184
F         0.24013968171955   -2.71686350152345    5.04863903502921
C         1.42457227037960   -1.03501233722714    4.78849957248258
F         0.62223011468481   -0.45207589682711    5.67468926529602
F         1.40265511061956   -2.33913928186680    5.04863905501621
F         2.65809836182651   -0.61117154425495    5.04863869666890
C         4.03961820246674   -1.67468514775899   -2.62817407948106
F         4.96930660042401   -0.73147479244129   -2.75037763231445
F         3.71458666614023   -2.05683907990836   -3.85992603200072
F         4.62303373288714   -2.71686348978891   -2.04303253910981
C         4.92005227074660    1.03501232949151   -0.86730592957069
F         5.35386609588658    0.45207588830481   -1.98125865327758
F         5.14292645153878    2.33913927311179   -1.00324714649869
F         5.70437742108406    0.61117153086585    0.11965558739362
C         2.82790274436383   -2.05459160758554    3.71645040671519
F         3.82797483682855   -2.78118494419178    3.22571836876305
F         3.37293748548841   -1.13053297859378    4.50255013394648
F         2.11749631416700   -2.85850222732984    4.50254863174647
C         2.28376457660886   -3.72927671755932    2.62817408867206
F         3.59030321655004   -3.51265997057976    2.75037870097715
F         2.14318168460923   -4.91533956626619    2.04303190988612
F         1.79618325340524   -3.84739782561575    3.85992562899767
C         0.34440953624153    4.35941144868709    2.62817404748705
F        -0.83992598883967    4.95213069234126    2.75037577510431
F         1.15529636597892    5.23632261667420    2.04303359185445
F         0.80829780400759    4.16837989546168    3.85992670963205
C        -4.58877084110522   -2.05459160147071   -0.86730597290559
F        -4.59709252483521   -2.78118520641283   -1.98125951001435
F        -5.53562669678859   -1.13053295630600   -1.00324569798425
F        -4.97417519512416   -2.85850196315549    0.11965482382298
C        -3.49548004549360    0.00000000000000    3.71645041414084
F        -4.73163621497510    0.00000000000000    3.22571838476757
F        -3.39327517264965   -1.06794314680471    4.50254938956302
F        -3.39327517264965    1.06794314680471    4.50254938956303
C        -2.50473491433418   -4.35941144902977    0.86730593917895
F        -2.08438487052912   -4.95213043104453    1.98125838386969
F        -2.34400857369757   -5.23632280881804   -0.11965581818547
F        -3.81390519137296   -4.16837996597314    1.00324768478856
C         0.54413818249354    1.67468516033722   -4.78849957845317
F         0.23767107904745    0.73147481112462   -5.67468925997942
F        -0.24013968171955    2.71686350152345   -5.04863903502921
F         1.79120914301982    2.05683909935453   -5.04863874564184
108
 energy: -316.867223544538 gnorm: 3.956238508887 xtb: 6.4.1 (a3dbbd7)
C        -1.22703214988652    0.00160704283479    3.30962494832677
C        -0.38249307120100   -1.17691120439229    3.31051828589379
C         0.99431130631844   -0.71642122816351    3.31081384719704
C         1.00156609897482    0.72779389182339    3.33316545074052
C        -0.38301735342153    1.17667766110232    3.33260492269307
C         2.34733391436519   -2.60296125431190    0.59131387811854
C         3.19585175163901   -1.42354310121028    0.59194939067424
C         2.96432312941033   -0.69907539427057    1.82971669164879
C         1.96111015381820   -1.41893876306897    2.57906999095297
C         1.57717797341319   -2.60075870958863    1.82124413327241
C         3.19358188535168    1.42820086680231    0.60303461938309
C         2.34346387525318    2.60023884644346    0.59589913886357
C         1.58702003120532    2.59453873713618    1.83246265772147
C         1.96349119013212    1.42856199985328    2.59024755962285
C         2.96256800089236    0.70358906239572    1.82865978009544
C        -0.37080769485022    3.48025195175333    0.58912790759960
C        -1.74770068057373    3.03365344390084    0.59563402562006
C        -1.98259221397693    2.30787319275293    1.83071712751659
C        -0.75477805097903    2.30395193831811    2.59291108002199
C         0.24949952524016    3.04136863282738    1.83280439745422
C        -3.42532379858951    0.72430349064170    0.59400080757361
C        -3.42335983609368   -0.72064940041692    0.60066737769944
C        -2.80789943455726   -1.17691067878385    1.82629037589946
C        -2.42437603628175    0.00111856240428    2.57924842793167
C        -2.80960426817593    1.17763573365095    1.82834024697100
C        -1.75228257572986   -3.04107983402483    0.59698597613229
C        -0.36133107147252   -3.48008329008216    0.59514614743962
C         0.24435266000903   -3.03557225475205    1.82846509014043
C        -0.75276361270444   -2.30971062688842    2.58853989773735
C        -1.98367742299685   -2.30343895411025    1.83322700202162
C        -0.24895102733056   -3.03432739843471   -1.83070902260509
C         0.74922238136187   -2.30841556392333   -2.59214690976056
C         1.97807501661380   -2.31218309478359   -1.83051762807668
C         1.74782744729506   -3.03111651450695   -0.59824072819415
C         0.36739326358682   -3.48112771714286   -0.59521126195418
C         2.81559754899414   -1.17759690393484   -1.83307605654399
C         2.42155871909488    0.00523261026255   -2.59343460411390
C         2.80193474953627    1.17441044753356   -1.83428793252726
C         3.43021412281563    0.72780447185676   -0.59685671094692
C         3.42638867429311   -0.72949761870014   -0.58832145470021
C         1.98287829761492    2.30744873415738   -1.83055112061052
C         0.75118755416999    2.31163896964486   -2.58699141283498
C        -0.24931273293482    3.03199507560126   -1.83069200837656
C         0.36801361591827    3.48171013498630   -0.59446804925486
C         1.74878204788927    3.03383743653156   -0.59465855278044
C        -1.58105542272946    2.60111203675368   -1.82967494675348
C        -1.96239239973354    1.42429045108935   -2.59433390576472
C        -2.96149272808534    0.69929962049264   -1.83099100076624
C        -3.19768559157296    1.42619730761001   -0.59546444845939
C        -2.34450147115957    2.59997375966735   -0.59657987396581
C        -2.95761700620746   -0.69642376036698   -1.83441851814502
C        -1.96355382497126   -1.42465899425312   -2.59371072592219
C        -1.58128231804324   -2.60112777366866   -1.82814296964873
C        -2.34001301769973   -2.59841748638876   -0.60359461622937
C        -3.20505594018513   -1.42954689409390   -0.59744427002244
C        -0.99937522627650   -0.72547283882778   -3.32976972633890
C        -1.00445709765302    0.72339445002680   -3.33030347721730
C         0.38216647618879    1.17681898190099   -3.33133199750588
C         1.23713354056386   -0.00523105806582   -3.33078046268361
C         0.38235939053928   -1.17394230351300   -3.32949739247584
C        -1.79115332385770    0.00530158650300    4.71504780981450
F        -0.79502034894136    0.07632586045454    5.74044449190407
F        -2.55996271804130   -1.01018577089424    5.09564102200920
F        -2.48116716478437    1.10155008179723    5.09331202566715
C        -0.54913617439317   -1.69321846619786    4.75097472414867
F        -0.25476421304951   -0.78725430977900    5.74347993168395
F        -1.73091460560149   -2.17759616285532    5.05590156181245
F         0.12176825000718   -2.77994357650245    5.05882353187748
C         1.43982079120594   -1.06050595665234    4.71779130603860
F         0.69597973322381   -0.39213855951229    5.73889214178241
F         1.47272798807597   -2.29795014145221    5.10499310899885
F         2.65046349758616   -0.55407190170299    5.09774820013324
C         4.03833659751591   -1.67780024343933   -2.63039754893744
F         4.96005618375771   -0.77179164694466   -2.77977581605905
F         3.71369130992715   -2.05891077521294   -3.86236281151024
F         4.62428982124218   -2.71914366760631   -2.04209877375904
C         4.92026924178608    1.03852466594336   -0.86568316571629
F         5.37116062942515    0.49371014101494   -1.95734011220783
F         5.14367947155948    2.34252703423750   -1.00229101868539
F         5.70614895227415    0.61089542633115    0.12195403086726
C         2.77894745243618   -2.03530327257203    3.69830872577790
F         3.89989258058111   -2.73538059459006    3.25962145749753
F         3.45783463037167   -1.12430414229248    4.49344358586814
F         2.19841192248887   -2.82615692353222    4.55173842428251
C         2.26246330357170   -3.73206279223980    2.61820115822803
F         3.59935000386948   -3.58648593127375    2.70413289982228
F         2.14433475374109   -4.92060620764172    2.03990154193452
F         1.75239984292038   -3.96765865061041    3.80269760477851
C         0.34436672905985    4.36068237765769    2.62630016536056
F        -0.84171121763452    4.95395760414648    2.75168210206738
F         1.15579981815343    5.23788909046633    2.04317538888170
F         0.80856162266653    4.16870329285427    3.86263155079863
C        -4.58919813363876   -2.05528504909467   -0.86862679089075
F        -4.59808538156513   -2.78245768534165   -1.98237681379256
F        -5.53737877288728   -1.13005031183326   -1.00347369010782
F        -4.97933037541375   -2.85537412085855    0.11805376349815
C        -3.49774700889632    0.00789955052327    3.68581901398085
F        -4.73514155090217    0.00007423287684    3.22601908773074
F        -3.45633224980635   -1.08601200667143    4.49267362936995
F        -3.44530249057207    1.10965670374975    4.49149759714013
C        -2.50469670527847   -4.36063145215597    0.86625897539324
F        -2.08404663084534   -4.95415611985357    1.98380592053977
F        -2.34395251700971   -5.23793427861760   -0.11994878999326
F        -3.81183194122589   -4.17341480757480    1.00716113004890
C         0.54418598704934    1.67460596826034   -4.78951081258231
F         0.23744556018666    0.73080365804301   -5.67650446522957
F        -0.24085998047682    2.71783735734036   -5.04961475913579
F         1.79217312454284    2.05729185015101   -5.04952946513112
108
 energy: -319.735838298525 gnorm: 2.761160484219 xtb: 6.4.1 (a3dbbd7)
C        -1.22558171789964    0.00790291373596    3.31311834821430
C        -0.38328619168076   -1.18008136956029    3.30079430122846
C         0.99082218702720   -0.70848730816151    3.30906979019732
C         1.00038353789534    0.73195517227166    3.33300116376981
C        -0.38008424499147    1.18064496598465    3.32815370643386
C         2.35010819687728   -2.60212099145151    0.58680148280412
C         3.19190531457821   -1.42075485680947    0.58840575111806
C         2.96913575981115   -0.69818793338882    1.82694044685365
C         1.96751310807133   -1.41758244911883    2.57085969181167
C         1.57680978477606   -2.60605974371273    1.81496150052907
C         3.18782778055347    1.43049905938205    0.61289004095217
C         2.34290074689327    2.59664065714229    0.59636018961552
C         1.59474331263352    2.58642248319036    1.83098536577004
C         1.96326899217567    1.43241066169864    2.58464572471341
C         2.96040800988728    0.70759335009099    1.82356155339185
C        -0.37431698768405    3.47713001479952    0.58318277536138
C        -1.74545718069424    3.03387879246991    0.59700599108240
C        -1.97953130144747    2.30808134490527    1.82982872551597
C        -0.76003232222321    2.29879562386925    2.59096054620641
C         0.24842142913996    3.05287040465917    1.84000987665153
C        -3.42275355560880    0.72186671535037    0.59402304870634
C        -3.42143606380112   -0.71355618972069    0.60793180900823
C        -2.80737715419211   -1.17914316466640    1.81838431129879
C        -2.43379780961793    0.00285604450915    2.57054974393921
C        -2.81105697112335    1.18063593416298    1.82365570952687
C        -1.75666789113509   -3.05179258365534    0.60102362450823
C        -0.35400174125404   -3.47510024834411    0.59448101525807
C         0.23628273454658   -3.03852198816922    1.82249303157949
C        -0.75615817080348   -2.31362960928498    2.58280346393149
C        -1.98188533831355   -2.29680194167456    1.83563486975638
C        -0.24718313078897   -3.03527964314592   -1.83089340369460
C         0.74926031490626   -2.31007917984545   -2.58860142565803
C         1.96796056314408   -2.31834565358729   -1.82663104295559
C         1.74537638973116   -3.02819536141633   -0.60164553616345
C         0.36702374668369   -3.48086807718717   -0.59654672372363
C         2.82569330020236   -1.18052613604511   -1.84011190534434
C         2.41680702218805    0.01202533310351   -2.59086031901407
C         2.79550369264207    1.17184111401261   -1.83847173243044
C         3.44368255244650    0.72942699826481   -0.60052787205131
C         3.41968963897291   -0.73301386990555   -0.58061417576575
C         1.97923916081359    2.30720176287361   -1.83046384421389
C         0.75369431371418    2.31737516365031   -2.57769762915224
C        -0.24783354960143    3.03072724814426   -1.82955743468607
C         0.36810380303378    3.48089905649143   -0.59425207756225
C         1.74862823823922    3.03391909293813   -0.59384574580192
C        -1.58157852013922    2.60081152357062   -1.82803533272288
C        -1.96260469321963    1.42319914541182   -2.59323557138589
C        -2.96045321852152    0.70002597633605   -1.83093467962732
C        -3.19667633081665    1.42755069795132   -0.59669558749165
C        -2.34451611446364    2.59798176721914   -0.59847300314487
C        -2.95121109110094   -0.69289647262246   -1.83892453362859
C        -1.96541408774910   -1.42277182226813   -2.59207089504856
C        -1.58279710981359   -2.59867335956363   -1.82388236363354
C        -2.33418754203481   -2.59551918330900   -0.61347683347836
C        -3.21424007046409   -1.43465328659087   -0.60212515290681
C        -0.99853295457699   -0.72348816394574   -3.32897623312917
C        -1.00914119675561    0.71916064570182   -3.32375648686196
C         0.38252338152652    1.17905203344839   -3.34653657923934
C         1.23757907758196   -0.01169197411353   -3.32505278377697
C         0.38284739027769   -1.17116115217270   -3.32861233115611
C        -1.82170180464191   -0.00805122064092    4.64926547240941
F        -0.81787408469365    0.19493537755928    5.81221655318343
F        -2.55830291010067   -0.95450217179022    5.14773849326920
F        -2.37525052892960    1.10780547201642    5.16731326285849
C        -0.55442138031429   -1.69910410198770    4.71436582707889
F        -0.29038505188201   -0.90106079530621    5.78414856620035
F        -1.70398793752719   -2.24208818164514    5.05869279843159
F         0.06020296143710   -2.81770594349259    5.05881448794613
C         1.45262471435668   -1.08488058751059    4.65389787406206
F         0.78972154141647   -0.30942522166031    5.80755083451733
F         1.49352783485159   -2.25624224707654    5.16374119165038
F         2.56937640016368   -0.48055946444400    5.17798157740007
C         4.03850289084024   -1.67955222088526   -2.63271823525203
F         4.95251641699373   -0.80614708833221   -2.80509502405319
F         3.71261001448244   -2.06093838925252   -3.86506532080109
F         4.62528152892178   -2.72175390579990   -2.04102123855799
C         4.92189013077747    1.04080973050544   -0.86551565923801
F         5.38631807563523    0.52888531051462   -1.93741203371877
F         5.14455303869188    2.34579546132120   -1.00146063211709
F         5.70794116547932    0.61008472374000    0.12441351078010
C         2.71989135400515   -2.01410552950687    3.68271298660062
F         3.97793409749487   -2.71838793745988    3.27500884273726
F         3.57413753666287   -1.17855529062923    4.43662799199939
F         2.27113525135468   -2.82600764217867    4.57150065655677
C         2.24084674270971   -3.73184023693365    2.61346396704299
F         3.61219985530735   -3.63423276812562    2.67532756340558
F         2.14576448957646   -4.92217958853339    2.03864053985863
F         1.72619380681397   -4.02865815947893    3.77433807609408
C         0.34482153775545    4.36317553795931    2.62561234179671
F        -0.84303560853856    4.95558107825854    2.75304986584437
F         1.15681267361247    5.23941179778883    2.04337287527085
F         0.80915860296888    4.16880537333320    3.86515891739362
C        -4.59068352112893   -2.05602002889632   -0.87026059352797
F        -4.59928726426756   -2.78340764202870   -1.98374251292232
F        -5.53911638208044   -1.12898062054364   -1.00375426871191
F        -4.98553191459960   -2.85095263664126    0.11587075325675
C        -3.49350615338411    0.01885646493779    3.65377584663387
F        -4.74120802084963   -0.00242635395330    3.22764018229556
F        -3.52612125108384   -1.13255797974388    4.47160849234369
F        -3.56136626394538    1.13417752172730    4.43489085207765
C        -2.50548932285381   -4.36273335853211    0.86501516865204
F        -2.08381381454716   -4.95609737324607    1.98634780683105
F        -2.34412050798088   -5.23939882938073   -0.12055873556447
F        -3.80920882814303   -4.17909786754254    1.01167050888759
C         0.54446753380317    1.67532817484639   -4.79232735945688
F         0.23724355675891    0.73038273773625   -5.67829033915701
F        -0.24150935789230    2.71917532123756   -5.05044543861542
F         1.79332448888927    2.05788320072629   -5.05029348417375
108
 energy: -321.556498583385 gnorm: 1.839224964072 xtb: 6.4.1 (a3dbbd7)
C        -1.22841731262047    0.01066163126466    3.33020374922957
C        -0.38737797364134   -1.18592685750532    3.31604790201477
C         0.98881554699047   -0.70251967197195    3.32161691589042
C         0.99429061948479    0.74387840063451    3.32884086311603
C        -0.37002046801385    1.18638715250534    3.31749729235585
C         2.35279399241942   -2.60051333586605    0.57782738326040
C         3.18763934231243   -1.41837951559764    0.58619894013746
C         2.97326181170295   -0.69067578444613    1.81779893097081
C         1.97653084730665   -1.42084442340161    2.57104456515225
C         1.58194049251984   -2.61681800382903    1.81386004346633
C         3.18208680153791    1.43456524559210    0.62140854961741
C         2.34315190887479    2.59174197074727    0.59687383698236
C         1.60224381899739    2.57630374468113    1.83157603082301
C         1.96042950898560    1.43712699585790    2.58040981208277
C         2.95906279990250    0.70695478428381    1.81874426780499
C        -0.37851262889318    3.47239750695181    0.57721637763266
C        -1.74263779283149    3.03314207280403    0.59708322367241
C        -1.97823498565054    2.30540849365752    1.82792578028889
C        -0.76355490903543    2.29160080736880    2.59080151115146
C         0.24776891104953    3.06760471774386    1.84818624682017
C        -3.42034440102233    0.72263212304026    0.59459428468623
C        -3.41488088600972   -0.70804724661942    0.61603749688445
C        -2.80745895232161   -1.18184390846470    1.80744201690637
C        -2.45430572123160    0.00254208666338    2.57901675400843
C        -2.81153785057452    1.18777095264254    1.81417336481724
C        -1.76242502691544   -3.06539695376643    0.60510479460122
C        -0.34655144205903   -3.47066221170695    0.59366658004346
C         0.22380108773307   -3.03846204632675    1.81592256603979
C        -0.76240312304327   -2.32123934899652    2.56771048409271
C        -1.97649204005489   -2.29026977162649    1.83683019654441
C        -0.24479792563568   -3.03681275190257   -1.83026828009531
C         0.74911965560697   -2.31186464418568   -2.58481945275401
C         1.95698269574571   -2.32387878330884   -1.82428583451458
C         1.74337310656758   -3.02502477253058   -0.60456766923772
C         0.36624933349325   -3.48030203722064   -0.59851623934334
C         2.83757002034286   -1.18457219886986   -1.84731175571564
C         2.41188288381273    0.01951544218723   -2.58746040809435
C         2.78678989074755    1.16865064764631   -1.84247217851050
C         3.45718085518786    0.73166942613734   -0.60443206913912
C         3.41461591905227   -0.73552959661964   -0.57398046023603
C         1.97537548566995    2.30869417338044   -1.82946077534847
C         0.75529440326989    2.32261771106716   -2.56638911172484
C        -0.24615094958379    3.02942194395336   -1.82872032910219
C         0.36873053905528    3.47892418154416   -0.59457760729497
C         1.74841732433167    3.03402450908535   -0.59346647211465
C        -1.58281360762369    2.60045921959082   -1.82623476599798
C        -1.96302166584137    1.42218255160352   -2.59174866492169
C        -2.95935780835112    0.70146856741291   -1.83093532998242
C        -3.19556755171086    1.42780416559760   -0.59810925420112
C        -2.34380626004336    2.59643661633124   -0.60108793548368
C        -2.94355986232625   -0.68913329997239   -1.84366742812008
C        -1.96754507486166   -1.42039993029623   -2.59053039279197
C        -1.58456039357801   -2.59612902431324   -1.81917657392866
C        -2.32623478131739   -2.59142538367685   -0.62429124944742
C        -3.22595467145920   -1.43993394439630   -0.60715414600489
C        -0.99789347136780   -0.72100551349662   -3.32795668135028
C        -1.01436572228760    0.71412452536188   -3.31825611173795
C         0.38304655206786    1.18198990509071   -3.36042858470569
C         1.23648588865527   -0.01882072550470   -3.32039924062098
C         0.38361179744056   -1.16812044138287   -3.32780494201493
C        -1.83545410605286   -0.00425476130086    4.63941492210721
F        -0.84127087328393    0.29006049377699    5.85259592212642
F        -2.49511816053275   -0.87197647569717    5.22419393548924
F        -2.28283216277051    1.11108439253028    5.22183299027722
C        -0.56092621964266   -1.71245836483910    4.71074651720184
F        -0.33858741568725   -1.03312776608561    5.79304589814678
F        -1.67807017541628   -2.29396670115953    5.05441399611096
F         0.00510328542055   -2.85358435457267    5.05451985574475
C         1.47556525540877   -1.07879729857479    4.62615961029287
F         0.87564136421764   -0.24184484078730    5.84237451067623
F         1.48288133520471   -2.19099985476654    5.25048059739316
F         2.51349614933245   -0.42989869880925    5.22362241559427
C         4.03886415578415   -1.68556538257879   -2.63648350863359
F         4.94941129716073   -0.83530516708452   -2.83043734974784
F         3.70948704279120   -2.06468008259314   -3.86855978191485
F         4.62570561366256   -2.72563538133465   -2.03955725613152
C         4.92570304673699    1.04579332209215   -0.86243199266752
F         5.40326018339622    0.56041498685362   -1.92338989481601
F         5.14450960598268    2.35089006299584   -0.99909437278438
F         5.70909800354619    0.60956618082240    0.12769065078450
C         2.68400357676067   -1.97705136807931    3.68858224698395
F         4.06965953261148   -2.69497166171020    3.29678610260157
F         3.64336090433539   -1.22363339444523    4.38475053814297
F         2.37630411056960   -2.84305577620202    4.56801573473863
C         2.22107419152723   -3.74170712036182    2.60486446393725
F         3.61233882935237   -3.69314408417085    2.63912617818047
F         2.14498500819682   -4.92647903135341    2.03039305955709
F         1.70344758235126   -4.08711546541483    3.74171583160321
C         0.34545801977598    4.36863980886172    2.62864447159107
F        -0.84403731887850    4.95714028983706    2.75384533944589
F         1.15796200024775    5.24109321952326    2.04313110255939
F         0.80967349647754    4.16902109771209    3.86634687235467
C        -4.59554802290498   -2.05724158688952   -0.87241341592542
F        -4.60032755601432   -2.78419516230585   -1.98498152657420
F        -5.54072142341249   -1.12755102522908   -1.00440926099078
F        -4.99303059998614   -2.84510346070551    0.11283368089483
C        -3.51835715084137    0.03349619353517    3.64440238946043
F        -4.74784022779537   -0.00340501428360    3.21718272771534
F        -3.64260099761177   -1.15801472983288    4.39616795014503
F        -3.65676637230094    1.12654635557599    4.37510799100525
C        -2.50735724543281   -4.36786036729646    0.86524906193856
F        -2.08307545217456   -4.95805015827709    1.98854771941034
F        -2.34402974451513   -5.24077052808035   -0.12128894999601
F        -3.80564437102975   -4.18617040847535    1.01714800174540
C         0.54494577380637    1.67685907750718   -4.79700812096269
F         0.23699623985342    0.73002519474908   -5.68004411742764
F        -0.24210545631949    2.72027032570010   -5.05114391099228
F         1.79443242796515    2.05840421152958   -5.05101846916790
108
 energy: -322.576878237780 gnorm: 0.999613595166 xtb: 6.4.1 (a3dbbd7)
C        -1.23020810311352    0.01615323636026    3.34770852110282
C        -0.39044225008756   -1.19375411512543    3.33353580960741
C         0.98823083207313   -0.69675276323441    3.33304235618736
C         0.99106231757863    0.75718664091105    3.31914314988504
C        -0.36146702107810    1.19373001662514    3.30552137316000
C         2.35271447104041   -2.59656209246512    0.56369167704161
C         3.18353529247248   -1.41675950144321    0.58511412710231
C         2.97820615767356   -0.68237697651514    1.80651856508497
C         1.98950616667995   -1.42507010085386    2.57134282943566
C         1.59188695511061   -2.63585422842859    1.81931447556934