108
 energy: -324.359340696327 gnorm: 0.130026529848 xtb: 6.4.1 (a3dbbd7)
C        -1.31522172745329    0.04123826894498    3.61532821546682
C        -0.41218775069091   -1.25263373857487    3.57926219599428
C         1.08682946520516   -0.74152789476214    3.62557768550026
C         0.96686872852204    0.72887304427816    3.24299253670009
C        -0.36895488663777    1.15383672277894    3.22354863581255
C         2.30366255908255   -2.55442671271901    0.53810800293909
C         3.11244310047933   -1.37399762432201    0.54649681131275
C         2.92312899507716   -0.67133305026423    1.77462139744910
C         2.17908260494893   -1.53869803478799    2.78161814594343
C         1.68814499204308   -2.75866177538687    1.90485101130689
C         3.15707534848926    1.43254495330990    0.60489426333718
C         2.31629127395325    2.57022839767017    0.58836230953571
C         1.58623038608550    2.56114485567450    1.80203387871329
C         1.93742965077355    1.43056670086902    2.55432427322375
C         2.93379920791450    0.69865280211403    1.78555531112260
C        -0.38958989756805    3.46094384070333    0.56071618409789
C        -1.73328317808833    3.02425539151022    0.56846503639158
C        -1.97752512231193    2.30853108026313    1.78915122569419
C        -0.76679455718476    2.27294085524774    2.54482955902484
C         0.24211052860908    3.18106725667940    1.90413553423695
C        -3.36458164805113    0.74099957269784    0.57163608333087
C        -3.34833429145675   -0.68783120869041    0.59193268888470
C        -2.76701071400380   -1.12785654434996    1.75452861418564
C        -2.61117411750520    0.03069339425904    2.72724896730046
C        -2.78814430240919    1.19935828104263    1.77937944558772
C        -1.82246210166393   -3.16898343571025    0.61848480914322
C        -0.34007093461327   -3.43856731504178    0.57828984172065
C         0.22052075511627   -2.92356657913021    1.73560852483736
C        -0.73680790829334   -2.20030726124832    2.45995010045476
C        -1.95091909945731   -2.24703421721494    1.80688737667287
C        -0.23496131269329   -3.06147114734230   -1.81928644789102
C         0.75452676937294   -2.30850060795216   -2.56716071362166
C         1.92667518395000   -2.30070921421849   -1.83348990645934
C         1.72575766728259   -3.00965278609522   -0.60918072723847
C         0.35766306961451   -3.50719092810873   -0.63047199983951
C         2.95535563646485   -1.22336663899954   -1.94077755895842
C         2.38054683480239    0.03191399652690   -2.55313317561780
C         2.74344160384365    1.15660313819127   -1.83412612531824
C         3.60890318095340    0.77108973292663   -0.65348241477477
C         3.39351475216377   -0.71171674065080   -0.60696920809923
C         1.93428974464887    2.30476710238288   -1.80601357495577
C         0.73243900938475    2.30906501146452   -2.53061213665229
C        -0.25439462891606    3.01155664990161   -1.81253666495265
C         0.36340466130214    3.47173048915377   -0.58905193685030
C         1.74172962050693    3.05600178175691   -0.59688656788113
C        -1.58964456311021    2.60790951577919   -1.83223922193043
C        -1.96309261640384    1.42421858549464   -2.59019870960107
C        -2.95240724711343    0.71060954940101   -1.84310277181509
C        -3.18585484920468    1.44114900327740   -0.62241258145637
C        -2.34278876918006    2.60005019133516   -0.62774012442228
C        -2.92235702419073   -0.67091922662011   -1.85701994233541
C        -1.96055665497394   -1.39622852848390   -2.57938761406810
C        -1.57319356204369   -2.56340459368427   -1.79322421616988
C        -2.29329151676414   -2.55710885756605   -0.63843409373675
C        -3.35462270144092   -1.48901490538893   -0.66241336659378
C        -0.99351492936132   -0.70487918965010   -3.30215080671213
C        -1.02087634365634    0.70948585374197   -3.28993855662885
C         0.38097569911331    1.22159496551790   -3.48262824125656
C         1.20300509909160   -0.02894174166844   -3.28565755786118
C         0.38082947880769   -1.15251237633755   -3.30830195142664
C        -1.74433043452814    0.36091641437036    5.10882957592113
F        -0.89966188699444    0.60231808512028    6.04684065629268
F        -2.50914576508906   -0.58922149000802    5.63852658257465
F        -2.34936101102932    1.54984931668220    5.15381252608517
C        -0.71681775649156   -2.12865460482755    4.83348463215275
F        -0.54365707089796   -1.52984989884085    5.98518752718467
F        -1.97543559068938   -2.56760591862509    4.82273639409123
F         0.04268885321871   -3.22030252903023    4.82766240928588
C         1.57742324301232   -0.70754869143982    5.14776454759643
F         0.98087056642934   -0.00433450136360    6.06305472959514
F         1.57955969913109   -1.91562561468639    5.69300609543697
F         2.71762760453310   -0.03359300301889    5.25611809064690
C         4.10115840057192   -1.81824728917504   -2.75987598572863
F         5.06815377640841   -0.97922992493721   -3.06440578117187
F         3.62982977250986   -2.23720045871265   -3.93624236940624
F         4.63648767257911   -2.82637232174982   -2.07591323492731
C         5.07532262934225    1.16502239015261   -0.82692507619763
F         5.63787322434468    0.75312655319722   -1.94347081297880
F         5.16960663319432    2.49589349210935   -0.86443401716702
F         5.77281791946134    0.66655824495383    0.19099889332532
C         3.36747107939853   -2.03155139695498    3.71760798779782
F         4.51492006921522   -2.58461952527514    3.15646343461849
F         4.04862095966921   -1.04510635298055    4.24541533681078
F         3.01544360053464   -2.97248012984128    4.56640099667134
C         2.19553044274789   -4.10741933026164    2.47544291326715
F         3.49041330030062   -4.21419785328741    2.37279893485233
F         1.80897905032650   -5.15500053818327    1.72933128377641
F         1.60758383993155   -4.31208804508068    3.65452263708111
C         0.34921370048433    4.48065271173846    2.69841852007394
F        -0.84829398184839    5.04673623325215    2.79986562004575
F         1.16932192328847    5.32281007596644    2.07683143935293
F         0.81921922469516    4.23718541307654    3.91497319283951
C        -4.73345232388105   -2.07463526827212   -0.92155515295054
F        -4.69574382298987   -2.82495327948469   -2.02454558967543
F        -5.62170911854995   -1.09490865231195   -1.08330250014414
F        -5.16556168493054   -2.81281992231302    0.08575421644072
C        -3.91745959922881   -0.02096965907086    3.57091728798890
F        -5.01016412676198   -0.06975224220291    2.78683377369661
F        -3.99448374269046   -1.16593383128903    4.22093280823016
F        -4.16099559232721    1.13501622412380    4.19888157388586
C        -2.53286527715189   -4.49507124606493    0.91077790452473
F        -2.04276563273450   -5.04825549648200    2.01282284990326
F        -2.35603880527553   -5.32352913225023   -0.11727869493735
F        -3.82836500930244   -4.33775198492092    1.10321878006995
C         0.55385395725650    1.71364810813634   -4.91109325769237
F         0.24217123789674    0.75030437056137   -5.77524305621265
F        -0.24322928093620    2.75650113238430   -5.13270184889785
F         1.81274404351551    2.08555314212454   -5.12521435104216
