63
 energy: -142.115407844446 gnorm: 0.000114254497 xtb: 6.4.1 (a3dbbd7)
C        -1.28755893687363    0.01029012109387    3.55331210428572
C        -0.36152728175294   -1.16578947858649    3.31074809487224
C         0.98538340732988   -0.71781411838270    3.27752526912189
C         0.98784850519120    0.72477913631446    3.27459958687442
C        -0.36283993553843    1.18745441363971    3.31063130880207
C         2.34313661338467   -2.58238496546350    0.57764335912883
C         3.19093075721879   -1.41752616279423    0.57740738253757
C         2.95139790537155   -0.69586337051450    1.80220944202067
C         1.95800232508794   -1.41414693668219    2.55656301134636
C         1.58220035443592   -2.57452423908298    1.80287095754885
C         3.19105323942766    1.41188879624964    0.57729377486195
C         2.34256194469477    2.57544548997735    0.57776182567025
C         1.58244239602314    2.56976338218710    1.80299017695446
C         1.95857880413924    1.41236499721599    2.55507889580982
C         2.95472380523696    0.69177684784664    1.80178867376076
C        -0.36211051296281    3.42853513355126    0.58318408591030
C        -1.72256313971897    3.02223143889368    0.58932149369611
C        -2.08731220902024    2.47119684531785    1.95418332550498
C        -0.72257830319937    2.29439459914132    2.59132463085194
C         0.25451133273287    2.98131159847902    1.80827811126997
C        -3.35271070539094    0.68953141353295    0.57754960036087
C        -3.39071077807085   -0.72289460810364    0.58372768046529
C        -2.75540108763557   -1.14844030361796    1.77188130806779
C        -2.37146987668583    0.03449211851506    2.53345250483989
C        -2.72914756254060    1.13511278176050    1.81825077269979
C        -1.72628796244649   -3.00038583997235    0.56900640963330
C        -0.35547960340948   -3.43617051856828    0.57590154156396
C         0.25533702244639   -2.98612169997880    1.79978751205783
C        -0.73109540173978   -2.26579941415707    2.56003974014982
C        -1.96572041180772   -2.28683747147037    1.80643024376518
C        -0.23251621078954   -3.00914474489386   -1.82168963988358
C         0.75848016466917   -2.28917972193568   -2.58150054734349
C         1.98633760576253   -2.29138843947167   -1.82802219270160
C         1.75324853306761   -3.01203745841938   -0.60258607069705
C         0.37977045557870   -3.45199665035973   -0.60251293084470
C         2.80509677170689   -1.16834161722575   -1.82962668076649
C         2.42616174880587   -0.00232764868063   -2.58731555871407
C         2.80588133493317    1.16273696944613   -1.83044664635485
C         3.42006876512736    0.71763168841118   -0.60564041074488
C         3.41872260406855   -0.72302536714697   -0.60505772249347
C         1.98726017644778    2.28625938270261   -1.82935229619291
C         0.76106831646687    2.28575948352804   -2.58572850178485
C        -0.23002016337935    3.00181619388174   -1.82069461651644
C         0.37911689112633    3.44420957638205   -0.60044958517885
C         1.74926605024521    3.00318649542291   -0.60147310610143
C        -1.54768600673563    2.56192134850091   -1.80538730751147
C        -1.92718706402397    1.40009418720657   -2.56675234722888
C        -2.92118712928206    0.67641431510069   -1.82021797906970
C        -3.16601300771355    1.40661988746151   -0.59361762615904
C        -2.30147111791115    2.56637807479124   -0.57995864218061
C        -2.94144897740446   -0.70397393193964   -1.84535495150467
C        -1.93701330812529   -1.40632309316246   -2.56933862718158
C        -1.55710489362455   -2.57532350265896   -1.80970694893969
C        -2.32402953847462   -2.60382734818891   -0.61081171075471
C        -3.39089453005750   -1.53203665904270   -0.66137655462807
C        -0.97678638251294   -0.71896745806978   -3.30986787833225
C        -0.97456630213931    0.71539724749431   -3.31052879249075
C         0.39621126001694    1.16366915931289   -3.31600473049605
C         1.24239842763971   -0.00223265704051   -3.31553818686863
C         0.39352054448547   -1.16617217490637   -3.31124090486625
Cl       -1.95025089685739   -0.00545428603239    5.23755030080117
Cl       -3.13067021083058    3.62676320331434    2.87727776065437
Cl       -5.03545810147546   -2.27432997966980   -0.98121975905710
