63
 energy: -142.084531617850 gnorm: 0.138142718256 xtb: 6.4.1 (a3dbbd7)
C        -1.29585809770389    0.00401118895665    3.54517689253707
C        -0.36796043462932   -1.17243305037605    3.30515820978008
C         0.98298838983527   -0.72191219207564    3.27512267938171
C         0.98156472667820    0.71960753568128    3.26971969810914
C        -0.37066843460465    1.17924059903467    3.30150764336582
C         2.33648296603916   -2.58548060331365    0.57950289353032
C         3.18657767574002   -1.41946403927647    0.57781419519059
C         2.94957050639235   -0.69854930596759    1.80123308070154
C         1.95308396824160   -1.41752165468763    2.55613481575760
C         1.57961582989334   -2.57968580837377    1.80518673242103
C         3.18767024140451    1.40991878522763    0.57593180000620
C         2.33807592116844    2.57402574447607    0.57591940981122
C         1.57683795432701    2.56605672107525    1.79975339071644
C         1.95304946465436    1.40835201077487    2.55205927518980
C         2.95072023087345    0.68875745016373    1.80098024572921
C        -0.36516779407368    3.42666371337356    0.57921714423118
C        -1.72924376763824    3.01648005769000    0.58287705261872
C        -2.09463355992581    2.46231283092052    1.94730853815858
C        -0.73027134402217    2.28553619303067    2.58224921102021
C         0.24829448349984    2.97593693112150    1.80334175266563
C        -3.37466967425340    0.70300551354290    0.57574930054980
C        -3.39003092747716   -0.73268815647906    0.56838248265369
C        -2.76818811332164   -1.16356142379097    1.78871572221350
C        -2.38904763706855    0.02437925876362    2.53264263719760
C        -2.74834472563595    1.12995086275151    1.81420011519069
C        -1.73481952350512   -3.00995345714269    0.57938225060336
C        -0.36149853481650   -3.44686666227317    0.58178847315895
C         0.25217194581416   -2.99475012292755    1.80551621994623
C        -0.72930832442940   -2.27346636839910    2.56467955448571
C        -1.97147545426586   -2.28746259170963    1.79868366133100
C        -0.24419850626392   -3.01431906333444   -1.82647673840836
C         0.74940205407495   -2.29291975825760   -2.58286291053874
C         1.97453700933417   -2.29239152843074   -1.82543977586922
C         1.74139873400736   -3.01127177410490   -0.59946235558356
C         0.36858334367966   -3.45436466613801   -0.59762914044760
C         2.79442417392884   -1.17031401259636   -1.82833550603033
C         2.41574661888024   -0.00512369156855   -2.58546959716668
C         2.79806943075341    1.16104826420258   -1.83045397172065
C         3.41356646771945    0.71553904943849   -0.60565027142670
C         3.41126633561149   -0.72579612454708   -0.60436594395851
C         1.98256115248497    2.28538932455247   -1.82964816243281
C         0.75350030257848    2.28551308199782   -2.58573232036207
C        -0.23508280213456    3.00436687409655   -1.82344140492918
C         0.37359850932028    3.44286488622179   -0.60220138863872
C         1.74684322376492    3.00246743943424   -0.60372642363492
C        -1.55566653231806    2.56818250386052   -1.80941223575869
C        -1.93859434646944    1.40592010794080   -2.57168095880615
C        -2.93551210457882    0.68461262535792   -1.82146846772098
C        -3.16898901542976    1.39767486975662   -0.59605965548237
C        -2.30435127723071    2.57332623923171   -0.58497549467516
C        -2.94114405309208   -0.70773319324488   -1.83440725641731
C        -1.94505174577217   -1.42387954875747   -2.59102123506710
C        -1.56548890447542   -2.59170746585215   -1.83211639425372
C        -2.32839595515909   -2.59312664323360   -0.60918315818311
C        -3.17773883494341   -1.43218193772331   -0.61434027474195
C        -0.98775846759569   -0.72638522820754   -3.31322849837523
C        -0.98659864719709    0.71557045430270   -3.30737103326374
C         0.38544609985482    1.16109326139683   -3.31071431261235
C         1.23106807703669   -0.00470839638716   -3.31198800126459
C         0.38446650889097   -1.17000629330740   -3.31255499443923
Cl       -1.95494402230001   -0.00808767739961    5.23350834621500
Cl       -3.13453400437008    3.62205440029917    2.87428256883422
Cl       -4.80404626704259   -2.16310187833763   -0.92575667879181
63
 energy: -142.108859655561 gnorm: 0.060729333560 xtb: 6.4.1 (a3dbbd7)
C        -1.29184353705155    0.00758622237328    3.55282052597383
C        -0.36607727248405   -1.16952145609010    3.30825165472014
C         0.98325902517832   -0.72063941802435    3.27693445514547
C         0.98300226836306    0.72116075195908    3.27158572462444
C        -0.36822837756970    1.18283560652642    3.30596100723021
C         2.33840645807941   -2.58508172634804    0.57849626157577
C         3.18728325068381   -1.41947378497479    0.57748188261966
C         2.94894808769055   -0.69833383536990    1.80140121220758
C         1.95401708252252   -1.41713110052816    2.55658305623990
C         1.58052238528721   -2.57867227131492    1.80431524388473
C         3.18760671790951    1.41007716404742    0.57621679373708
C         2.33819254027118    2.57376470479361    0.57620972368845
C         1.57765459634559    2.56676478585227    1.80069991137393
C         1.95380636104834    1.40928296061708    2.55285703570635
C         2.95064926147293    0.68912508862460    1.80086710481268
C        -0.36492885828570    3.42794278672046    0.58106797538009
C        -1.72730253270028    3.01915310035652    0.58624904251513
C        -2.09185650174115    2.46957239898820    1.95273777840393
C        -0.72787277954532    2.28938379339608    2.58671279304178
C         0.24965612180076    2.97770842718108    1.80515087847278
C        -3.36051295222548    0.70268135443159    0.58413428432531
C        -3.40172336318837   -0.72295788873945    0.58918814994580
C        -2.75840041484686   -1.15028085108967    1.78825016460714
C        -2.38293274528234    0.03389987613603    2.54145292757612
C        -2.74145161181809    1.13713603632843    1.82452474192181
C        -1.72182413839799   -3.00369454348666    0.57590805448138
C        -0.35493079267539   -3.45053395516689    0.58066941884641
C         0.25407461886724   -2.99415407359389    1.80397260550589
C        -0.72913013237061   -2.27123087339049    2.56349645816222
C        -1.96584187687253   -2.28299176273743    1.80053953375317
C        -0.23551506550603   -3.01698511663167   -1.82686627845429
C         0.75453202749354   -2.29302874059509   -2.58462821933584
C         1.97925615201672   -2.29290871578108   -1.82727581401245
C         1.74591686485391   -3.01221609096775   -0.60135647862842
C         0.37537326475163   -3.45863362660212   -0.60084052504845
C         2.79747292546047   -1.16990518549313   -1.82899100926978
C         2.41873650666744   -0.00451997688923   -2.58626318748456
C         2.79980722651824    1.16112675473980   -1.83063503940802
C         3.41473930690404    0.71564454946329   -0.60605947170520
C         3.41284830902721   -0.72524853585658   -0.60484972455003
C         1.98326597409825    2.28539918999260   -1.82999081584671
C         0.75561121013928    2.28534053527911   -2.58636859441208
C        -0.23362683116072    3.00366261049761   -1.82317835643592
C         0.37442999599212    3.44349178926546   -0.60191112220038
C         1.74634518236850    3.00225170973509   -0.60328076578587
C        -1.55334437458375    2.56745819371589   -1.81007578165100
C        -1.93416953384463    1.40886184010754   -2.57707424892486
C        -2.92067162335973    0.68522356553208   -1.82124304078578
C        -3.16279928178460    1.40030121447676   -0.59296909031824
C        -2.30298092564949    2.57175872349487   -0.58362250125519
C        -2.92784833609992   -0.70022077158649   -1.84054719390222
C        -1.93629805572143   -1.41670958153909   -2.58573938384103
C        -1.55636727284751   -2.58572534261147   -1.82607545733337
C        -2.31204180752371   -2.59506165616013   -0.60921637044260
C        -3.27625314581667   -1.47658698709572   -0.63338867668363
C        -0.98129176290186   -0.72220562378978   -3.31806267078138
C        -0.98165845938112    0.71702658057909   -3.31427841054810
C         0.38946805741183    1.16168322516314   -3.31361148624971
C         1.23543001710053   -0.00411122269968   -3.31455412793368
C         0.38933278247375   -1.16929619444123   -3.31484612129557
Cl       -1.95204405502301   -0.00778110339237    5.23984932671135
Cl       -3.13372115156416    3.62869103553882    2.87667571296064
Cl       -4.93225449623597   -2.23151010247269   -0.96691004332649
63
 energy: -142.114923107006 gnorm: 0.014592034330 xtb: 6.4.1 (a3dbbd7)
C        -1.28850560083005    0.01057018285829    3.55460971786437
C        -0.36328955697761   -1.16602849702624    3.31003917875761
C         0.98463069008217   -0.71837884753356    3.27792015659238
C         0.98635420807826    0.72387956708588    3.27382533478914
C        -0.36432509104993    1.18681594089430    3.31038139497376
C         2.34153925269099   -2.58393785688941    0.57798399586463
C         3.18898823264619   -1.41832329019340    0.57740713467263
C         2.95005503058690   -0.69679893342488    1.80192306103124
C         1.95640290888622   -1.41518828936112    2.55680039032514
C         1.58192389025749   -2.57628679971033    1.80370820197729
C         3.18957955464162    1.41119233340398    0.57695483410834
C         2.34073219279697    2.57463918047736    0.57717610281029
C         1.58077017737153    2.56865026063848    1.80222596659165
C         1.95687816480050    1.41133469473170    2.55426876485969
C         2.95296138985246    0.69075143740624    1.80134883739830
C        -0.36309029823448    3.42869566998062    0.58307943872036
C        -1.72396384753913    3.02090439410689    0.58928097177275
C        -2.08831128120037    2.47174077814847    1.95523226394112
C        -0.72404801261162    2.29369986214419    2.59107027471182
C         0.25306299225423    2.98026191653654    1.80757649625622
C        -3.35297378218660    0.69471145219865    0.58291017610578
C        -3.40040649905127   -0.72065738505767    0.59205071436987
C        -2.75492042634092   -1.14562675796934    1.77880551129475
C        -2.37527140950748    0.03579626117760    2.53848875268532
C        -2.73324283854757    1.13733260545884    1.82268464991326
C        -1.72096988649211   -2.99886487703119    0.57072623012872
C        -0.35352056230963   -3.44311321792730    0.57828370845234
C         0.25545391188680   -2.99000917649363    1.80196822247646
C        -0.73038877532331   -2.26661975303297    2.56027130382138
C        -1.96525430297695   -2.28282463666680    1.80268901884610
C        -0.23199951366598   -3.01418833845675   -1.82405267634180
C         0.75764712806819   -2.29145654423602   -2.58369298056342
C         1.98380872469369   -2.29204552491642   -1.82808616265677
C         1.75086175069587   -3.01256254549013   -0.60243176203109
C         0.37927265945570   -3.45568781817305   -0.60246947168394
C         2.80194039429364   -1.16878218318193   -1.82926295439941
C         2.42314915204994   -0.00321377659957   -2.58666217577655
C         2.80319884195841    1.16194394339537   -1.83028950194622
C         3.41779480157550    0.71677589387080   -0.60582946974622
C         3.41602585265572   -0.72378016161149   -0.60492610312707
C         1.98525355388834    2.28569256290569   -1.82950474721392
C         0.75894371861099    2.28586602868917   -2.58647360065313
C        -0.23123308480159    3.00297057907970   -1.82176283364678
C         0.37723946805317    3.44406830617359   -0.60080201877502
C         1.74779957786094    3.00266953654771   -0.60203364055568
C        -1.54983758557611    2.56503463245467   -1.80778220479821
C        -1.92911891059596    1.40511476723592   -2.57217220626130
C        -2.91643538962781    0.67967231108743   -1.81964637981246
C        -3.16287835502039    1.40237774141875   -0.59201968864347
C        -2.30126043610346    2.56710249632501   -0.58076539242688
C        -2.92915883470597   -0.69982293736380   -1.84304842087885
C        -1.93468960290593   -1.40911499530638   -2.57472905403508
C        -1.55480309020163   -2.57804622140086   -1.81513698459897
C        -2.31230544342688   -2.59790521903328   -0.60963856740679
C        -3.36156409928668   -1.51678442137540   -0.65256711202990
C        -0.97783858779554   -0.71919033059403   -3.31538028686273
C        -0.97657563014084    0.71637121783627   -3.31353655605283
C         0.39389026975729    1.16296129410872   -3.31573939142025
C         1.23995555911745   -0.00314690036242   -3.31543690769281
C         0.39243435744633   -1.16767435387506   -3.31393952010603
Cl       -1.94698651460396   -0.00779146207997    5.24155454482847
Cl       -3.12992348699323    3.63234758555383    2.87613965721947
Cl       -5.02755715764435   -2.27944892110299   -0.99301480371675
63
 energy: -142.115238962413 gnorm: 0.008679640913 xtb: 6.4.1 (a3dbbd7)
C        -1.28744975441763    0.01090837425402    3.55355344624393
C        -0.36187847655519   -1.16524106920569    3.31012119292188
C         0.98561461186687   -0.71758042275822    3.27775615757620
C         0.98800216180327    0.72487212297979    3.27460443830592
C        -0.36275053215475    1.18761734716703    3.31080477548420
C         2.34288498844559   -2.58272116117014    0.57781009521671
C         3.19054809486715   -1.41750192022175    0.57747082290189
C         2.95135436287141   -0.69584852946438    1.80218157013736
C         1.95782563669813   -1.41413149026531    2.55667815721159
C         1.58234897771549   -2.57463674874912    1.80311595008689
C         3.19118256797464    1.41198797052365    0.57738073747979
C         2.34254310636119    2.57547022950078    0.57777824064020
C         1.58255194389434    2.56979506735811    1.80299422056222
C         1.95868741761215    1.41240154551108    2.55508092856939
C         2.95471403770552    0.69177500804126    1.80182337249965
C        -0.36187290835685    3.42874933317657    0.58342140943915
C        -1.72245611862400    3.02136908371429    0.58960490176234
C        -2.08700105550005    2.47123381948811    1.95477295424239
C        -0.72247768517525    2.29452135974735    2.59151473914371
C         0.25468264477083    2.98134631841542    1.80831838897719
C        -3.35357080313908    0.69129250364170    0.58019986981680
C        -3.39805988381910   -0.72236395812681    0.58822322986603
C        -2.75613319398647   -1.14710424772650    1.77481985743761
C        -2.37286263880991    0.03482226274569    2.53534996736320
C        -2.73072665835346    1.13602242523784    1.81976941977174
C        -1.72490759768551   -2.99976232084961    0.56941263715726
C        -0.35477072989991   -3.43818125633361    0.57686874117541
C         0.25551216734369   -2.98699798847767    1.80048107989239
C        -0.73080092606367   -2.26507578230945    2.55938205676951
C        -1.96601557586324   -2.28463403451446    1.80426809827985
C        -0.23248080856184   -3.01109014619868   -1.82244203295841
C         0.75824309718072   -2.28990822378191   -2.58218268457703
C         1.98553481628707   -2.29122299958057   -1.82798787186044
C         1.75243241468394   -3.01186910755286   -0.60247217109465
C         0.37956166023216   -3.45277005159505   -0.60253679636672
C         2.80429861090868   -1.16821313512889   -1.82933726929948
C         2.42544746797592   -0.00246047073519   -2.58685619700270
C         2.80540716917688    1.16265917300555   -1.83021239420077
C         3.41978766556383    0.71759460404435   -0.60555724909493
C         3.41821724293692   -0.72300445225712   -0.60488885319406
C         1.98692448098585    2.28614486860884   -1.82919795645598
C         0.76066249734473    2.28590112646366   -2.58587187709330
C        -0.23000767700471    3.00212569594388   -1.82072321679558
C         0.37894029230523    3.44423376078787   -0.60033885180836
C         1.74924390592042    3.00314059683515   -0.60146108975290
C        -1.54810045258186    2.56285851991788   -1.80587795747795
C        -1.92770260847741    1.40184515883115   -2.56823610567718
C        -2.91984745992622    0.67715711683745   -1.81989343041608
C        -3.16474153143571    1.40397428055478   -0.59263630564315
C        -2.30072859877684    2.56571594317567   -0.57972257772009
C        -2.93759532724753   -0.70278749941597   -1.84493129703898
C        -1.93683400588591   -1.40765980826534   -2.57139342779914
C        -1.55695141796178   -2.57657896175626   -1.81181428510742
C        -2.32031774198797   -2.60218537565165   -0.61067699707229
C        -3.38107477346263   -1.52695466935137   -0.65846636048022
C        -0.97737683014427   -0.71898977941375   -3.31187442571952
C        -0.97506793214429    0.71552751435377   -3.31114216447487
C         0.39554775671001    1.16336855433016   -3.31558600081383
C         1.24176698541547   -0.00259456555064   -3.31515985638349
C         0.39319284148863   -1.16662652351127   -3.31210037523246
Cl       -1.94681061737332   -0.00654958277699    5.23983185507720
Cl       -3.12880616837498    3.63053816258883    2.87641794745943
Cl       -5.04358262255718   -2.28507910463223   -0.99368174855678
63
 energy: -142.115351647065 gnorm: 0.004752098853 xtb: 6.4.1 (a3dbbd7)
C        -1.28708791737184    0.01063619417213    3.55291202766127
C        -0.36112351122207   -1.16530463874773    3.31044900397560
C         0.98597252391983   -0.71746901605801    3.27761087492275
C         0.98853533860077    0.72511330796615    3.27487650301347
C        -0.36226678870768    1.18768133920904    3.31063426337264
C         2.34347002579479   -2.58214539352657    0.57771182185489
C         3.19134453614053   -1.41728181162716    0.57744318864813
C         2.95191568322615   -0.69557898772364    1.80225697166800
C         1.95847070304150   -1.41381003116592    2.55658815680812
C         1.58245735609502   -2.57402800207394    1.80282346597670
C         3.19163965868653    1.41214244340878    0.57739102823388
C         2.34320019921219    2.57574199175722    0.57791072234090
C         1.58313019721065    2.57017399581526    1.80320639373450
C         1.95928601333179    1.41271584112671    2.55533252554311
C         2.95535905289358    0.69208314122082    1.80193132679106
C        -0.36148140848253    3.42875435345159    0.58335514236836
C        -1.72193286398425    3.02201179635600    0.58949446771402
C        -2.08665025295900    2.47095406812623    1.95417124623973
C        -0.72199013948553    2.29457940974443    2.59136733920305
C         0.25516866846532    2.98174345327151    1.80850063674732
C        -3.35389414188393    0.68945090385466    0.57804317712166
C        -3.39428182593635   -0.72334329883606    0.58482248595129
C        -2.75658807388860   -1.14850039897702    1.77236242053440
C        -2.37143329324931    0.03426531665806    2.53337862958762
C        -2.72919906415137    1.13513986052362    1.81802046497822
C        -1.72704639477597   -3.00043227745740    0.56905526399373
C        -0.35559092889885   -3.43547690800266    0.57599909177083
C         0.25544799444450   -2.98537334196258    1.79961864590073
C        -0.73095260538937   -2.26482103426906    2.55950351108567
C        -1.96608813859159   -2.28629255090611    1.80599678176002
C        -0.23274183274886   -3.00887909178803   -1.82140615284532
C         0.75850468201063   -2.28895582676835   -2.58123324632322
C         1.98647518291850   -2.29107859965400   -1.82794100505851
C         1.75331884580356   -3.01168756577123   -0.60245597583333
C         0.37967357395984   -3.45134243675278   -0.60242498539284
C         2.80548379404237   -1.16817022533291   -1.82958107753662
C         2.42655627895447   -0.00218002259861   -2.58725462876915
C         2.80638890858280    1.16292603655126   -1.83040877213878
C         3.42055015233667    0.71782111386201   -0.60558749367095
C         3.41923159918898   -0.72283834927433   -0.60501891109869
C         1.98771212775061    2.28638836204636   -1.82924108475837
C         0.76143981497312    2.28588271709466   -2.58558371301415
C        -0.22957220109843    3.00172827857401   -1.82036038564315
C         0.37965722714155    3.44432669141660   -0.60028001089757
C         1.74982140327105    3.00335889207302   -0.60135236570254
C        -1.54722555628556    2.56159481655874   -1.80485693159152
C        -1.92701350016992    1.39991687438057   -2.56608754013977
C        -2.92187385411071    0.67614867008989   -1.82002214806760
C        -3.16600391404680    1.40593991944698   -0.59325133777086
C        -2.30078916901255    2.56568359847701   -0.57940433313908
C        -2.94276817272093   -0.70444790813800   -1.84564196365473
C        -1.93769980070653   -1.40654154793438   -2.56926973490607
C        -1.55780927591530   -2.57549414496428   -1.80967332927321
C        -2.32528528879811   -2.60448753652482   -0.61097714277597
C        -3.38958060959525   -1.53161571249860   -0.66138183193363
C        -0.97694481355057   -0.71890599097945   -3.30945223466952
C        -0.97439221090926    0.71522587786811   -3.30990161170553
C         0.39638664073509    1.16369887823642   -3.31566506776040
C         1.24262834785450   -0.00220341587887   -3.31527568389361
C         0.39356414563847   -1.16600597988558   -3.31093658715682
Cl       -1.94869932409900   -0.00522037550153    5.23797865319247
Cl       -3.12936399681083    3.62773801602603    2.87726449811214
Cl       -5.04551929393035   -2.28300927733099   -0.98953201138447
63
 energy: -142.115393632257 gnorm: 0.002470091190 xtb: 6.4.1 (a3dbbd7)
C        -1.28722055246791    0.01035312741853    3.55290249107311
C        -0.36107903395702   -1.16561441374244    3.31079216684703
C         0.98579057095829   -0.71764087383224    3.27755380174753
C         0.98832662407592    0.72498703781691    3.27480379237295
C        -0.36244031070020    1.18755612112426    3.31052908650663
C         2.34342685465918   -2.58213702524367    0.57765495939406
C         3.19133650544192   -1.41740514743354    0.57739342825007
C         2.95180026276477   -0.69570535478634    1.80223188743585
C         1.95840277867590   -1.41392549084326    2.55655257816039
C         1.58234001809634   -2.57418988182131    1.80280202789962
C         3.19138617176771    1.41197738720626    0.57726473226374
C         2.34301719468848    2.57562320555021    0.57781010908549
C         1.58291804762544    2.57003383459877    1.80310703119547
C         1.95907095816840    1.41258487608580    2.55522751669706
C         2.95517858801275    0.69195591675838    1.80183583790737
C        -0.36169678473250    3.42868184366300    0.58323362074291
C        -1.72212225372178    3.02241933764192    0.58937086038222
C        -2.08688819748781    2.47098299120853    1.95396668062277
C        -0.72216427919317    2.29445517810253    2.59126261527949
C         0.25495510350268    2.98163094784681    1.80841724741034
C        -3.35345896082676    0.68893122457418    0.57708432823011
C        -3.39117194101860   -0.72342921838584    0.58313147618261
C        -2.75616698394664   -1.14896648253028    1.77136534224557
C        -2.37099538722484    0.03425642236040    2.53281661074052
C        -2.72867240719216    1.13485386582634    1.81763842686599
C        -1.72716770250850   -3.00047769678368    0.56905446197463
C        -0.35578578786828   -3.43504913207765    0.57569904099954
C         0.25535319763337   -2.98524635596050    1.79945403202089
C        -0.73103381457987   -2.26527111516003    2.55994863716103
C        -1.96579760845033   -2.28707381723314    1.80692205241116
C        -0.23269194978667   -3.00826871957181   -1.82121782544988
C         0.75853765330758   -2.28879471799473   -2.58107596916425
C         1.98666242530018   -2.29130652426779   -1.82797564333741
C         1.75355431255513   -3.01189742607336   -0.60250298236544
C         0.37975273919764   -3.45134178702875   -0.60239242647466
C         2.80557859509288   -1.16833835562118   -1.82974257564739
C         2.42661097292103   -0.00222451332292   -2.58749637879337
C         2.80632904056322    1.16285224202397   -1.83055498177422
C         3.42043065589507    0.71771771788128   -0.60568707889267
C         3.41918844008516   -0.72296454160596   -0.60513059532500
C         1.98766560226783    2.28638050749090   -1.82936616171282
C         0.76142116127577    2.28581251646896   -2.58558979568230
C        -0.22973692694299    3.00170824431096   -1.82047458928768
C         0.37955858849596    3.44429983061224   -0.60037416631376
C         1.74967436972559    3.00332684692678   -0.60143881705754
C        -1.54720811346857    2.56137358307079   -1.80479391737644
C        -1.92691596949159    1.39944397465127   -2.56580082958865
C        -2.92199789242134    0.67610929400832   -1.82002714003443
C        -3.16633907355443    1.40709194068272   -0.59358131873838
C        -2.30117301842615    2.56616646040599   -0.57956468511396
C        -2.94357598931262   -0.70463178394360   -1.84545238754745
C        -1.93745490822537   -1.40596104099573   -2.56853928251157
C        -1.55755332662347   -2.57494808893432   -1.80892055728299
C        -2.32611326724865   -2.60461441217930   -0.61082614045314
C        -3.39158743266299   -1.53269295799871   -0.66203819486245
C        -0.97669438379981   -0.71891355121745   -3.30886198903957
C        -0.97433384949738    0.71528676568371   -3.30990835583889
C         0.39651256449072    1.16382349652901   -3.31592992321552
C         1.24270207359756   -0.00208294628243   -3.31553775981474
C         0.39361811230991   -1.16590821554670   -3.31073907041281
Cl       -1.95046401778644   -0.00472630119262    5.23706897826715
Cl       -3.13041898265490    3.62604845158291    2.87775988622107
Cl       -5.04107856263442   -2.27833284004813   -0.98456277318467
63
 energy: -142.115405336335 gnorm: 0.001304226987 xtb: 6.4.1 (a3dbbd7)
C        -1.28745786369815    0.01023263061408    3.55315720144348
C        -0.36132855452822   -1.16581876033547    3.31091280263573
C         0.98550475436822   -0.71779802762980    3.27754668597392
C         0.98797723998187    0.72482117545455    3.27465477715316
C        -0.36273614071466    1.18745656994149    3.31055989063281
C         2.34321481292303   -2.58230928167579    0.57763191243077
C         3.19105592678916   -1.41753309117181    0.57738093475292
C         2.95150881511020   -0.69585611351375    1.80220514291884
C         1.95813149457566   -1.41410334486237    2.55655533545272
C         1.58222413240628   -2.57449296472356    1.80286777810990
C         3.19108106711203    1.41185332007398    0.57722607510274
C         2.34266512425533    2.57546535304462    0.57773448580649
C         1.58256022141392    2.56981420169331    1.80299261166600
C         1.95870131365213    1.41240211197529    2.55509079590606
C         2.95482845743695    0.69179112305768    1.80176536929686
C        -0.36200574089782    3.42859957918894    0.58317442245173
C        -1.72245416023928    3.02247326164521    0.58931844002667
C        -2.08721259582064    2.47113231386629    1.95404411886830
C        -0.72246836932435    2.29438078176214    2.59127269684848
C         0.25462544590878    2.98140237822533    1.80830521646187
C        -3.35288758964718    0.68915229527930    0.57710340489693
C        -3.39000937398038   -0.72312248383607    0.58302719642624
C        -2.75558621985833   -1.14877971299176    1.77140791304523
C        -2.37115052875332    0.03442871252867    2.53306725052822
C        -2.72880026026074    1.13494210643411    1.81794292690444
C        -1.72656383036254   -3.00035021059367    0.56907228057154
C        -0.35564157404466   -3.43565695063237    0.57574899779239
C         0.25532322507903   -2.98577395625333    1.79963661640084
C        -0.73107506344874   -2.26573562153438    2.56018498251557
C        -1.96559800899565   -2.28710734248312    1.80693487637217
C        -0.23256882123403   -3.00865624374632   -1.82148039691966
C         0.75848817673070   -2.28901405893709   -2.58130904154694
C         1.98649190286550   -2.29146536688766   -1.82801738511509
C         1.75343273305244   -3.01209129870330   -0.60256898291659
C         0.37978952118984   -3.45180878486729   -0.60244763191144
C         2.80526381235543   -1.16841686349616   -1.82972826585236
C         2.42630183668977   -0.00231996984973   -2.58747094788522
C         2.80598443722530    1.16273400705886   -1.83054029281139
C         3.42013007961672    0.71761228796736   -0.60570059156775
C         3.41883593350608   -0.72306047079752   -0.60513021547702
C         1.98737386806273    2.28629246702520   -1.82940511485447
C         0.76117281050261    2.28575840503652   -2.58569094991935
C        -0.22998260498728    3.00181053340258   -1.82067393949946
C         0.37924983868292    3.44424333938803   -0.60045117519072
C         1.74936771601690    3.00322814369804   -0.60149978985006
C        -1.54750773548860    2.56167975202832   -1.80515612001897
C        -1.92706437663341    1.39973689784231   -2.56633928602650
C        -2.92142778528922    0.67634169177819   -1.82007979471549
C        -3.16618399365772    1.40719476708333   -0.59365940569771
C        -2.30146849580098    2.56648956427488   -0.57984452078663
C        -2.94237416205997   -0.70422650582587   -1.84518213917137
C        -1.93704458415564   -1.40597547827250   -2.56879620869649
C        -1.55713550568182   -2.57498684811823   -1.80916088059046
C        -2.32498034743464   -2.60399909096546   -0.61069173398831
C        -3.39111243282006   -1.53230931837868   -0.66168447283649
C        -0.97668099523005   -0.71896375507804   -3.30934557757651
C        -0.97448533956190    0.71540101398362   -3.31034413608818
C         0.39634402640929    1.16377759802058   -3.31609339316065
C         1.24249893084224   -0.00214007293066   -3.31564633731946
C         0.39354632188096   -1.16605795229656   -3.31101823524072
Cl       -1.95094954623298   -0.00499504497075    5.23709232937200
Cl       -3.13094954894910    3.62594631406832    2.87766591703907