63
 energy: -142.111275836302 gnorm: 0.045259170624 xtb: 6.4.1 (a3dbbd7)
C        -1.31874375054418    0.00623640648548    3.59249478010721
C        -0.40400584173818   -1.15907720201321    3.31456884792839
C         0.97210914787100   -0.72754631533856    3.25265029588996
C         0.95770728826939    0.70160903920257    3.24066898944752
C        -0.39587895417178    1.15599507934788    3.28116880884270
C         2.35316174288098   -2.58040249621733    0.57336188674067
C         3.16465338238334   -1.41379449537411    0.56379123447742
C         2.90101426250218   -0.69768975749570    1.79668184814435
C         1.94423754366921   -1.41931050506725    2.55507039945385
C         1.70058694280544   -2.76366552603103    1.92216284470097
C         3.16203980644729    1.41266906693703    0.56439090248835
C         2.32082396494580    2.58412558741203    0.55772856533057
C         1.55900149975720    2.56950647096127    1.77484371110761
C         1.91567116735060    1.40569130757501    2.52400211671849
C         2.90441900642282    0.69553749015712    1.78079934907454
C        -0.37343948411190    3.42566902242096    0.57169017982319
C        -1.73490655711855    2.97385141186620    0.56776296175386
C        -1.98894696219614    2.26822240384280    1.79086864580492
C        -0.73906718164043    2.25888699817573    2.55720309877479
C         0.23620592185826    2.97276485333847    1.78834516069572
C        -3.36963329760626    0.72520077355005    0.57419417164917
C        -3.36435601740219   -0.70200814149959    0.57664360016578
C        -2.78712205099974   -1.14346013495409    1.80917250371980
C        -2.65243742059632    0.01360811547651    2.76720895588146
C        -2.79316632467287    1.17063973963103    1.81131787563252
C        -1.72222432512791   -2.93599561285418    0.57811594575747
C        -0.34699549021896   -3.38657784082890    0.60032627077274
C         0.23284276511728   -2.96920706567720    1.80794913690786
C        -0.73522443238339   -2.25653355331624    2.57170197313247
C        -1.97926802966028   -2.23658817410051    1.79401741580797
C        -0.22856292332773   -2.98897457408879   -1.81319099552990
C         0.76513809233326   -2.26979945819004   -2.57712955192421
C         1.98142215177549   -2.26674512025638   -1.81619204955511
C         1.76099831032189   -2.99511530856625   -0.59584355087803
C         0.37498616536814   -3.42828446932933   -0.60171241008009
C         2.79313410897450   -1.14457885577783   -1.83595932969461
C         2.41753113389695    0.01814969404568   -2.59564917521398
C         2.79277607440008    1.18529624622636   -1.84259441838050
C         3.39169831014121    0.72744661726443   -0.61454185865665
C         3.38907599697288   -0.70723276364606   -0.61133506478238
C         1.97395774826118    2.30016836789044   -1.84371804401014
C         0.75223652535316    2.29705788687702   -2.59944798534342
C        -0.24028642418353    3.00972816196697   -1.84286228163473
C         0.35963662513101    3.44196842603456   -0.60746111618172
C         1.73343064167730    3.01310035185603   -0.61576156932338
C        -1.55493814787775    2.57474743424540   -1.84526276468639
C        -1.93019345146153    1.41863784359420   -2.61017298634044
C        -2.91399467790639    0.69763840577706   -1.83450503437711
C        -3.14464221051147    1.41036718467325   -0.60949962207166
C        -2.31131824451665    2.57087615487516   -0.62212221353465
C        -2.91455581327830   -0.68364937492198   -1.83392951677091
C        -1.92178537327757   -1.40480373558585   -2.60197467847662
C        -1.54954113283040   -2.55684749395104   -1.83564368971052
C        -2.29955285538015   -2.54513056162424   -0.60959157633498
C        -3.14335561509174   -1.39236161667739   -0.60897977617780
C        -0.97122514879605   -0.71223121427784   -3.32939876822867
C        -0.97400485990273    0.72723651727965   -3.33158223351603
C         0.39334467911307    1.17421014352445   -3.33090673085367
C         1.24149235350934    0.01362119435052   -3.32470528088206
C         0.39831022009382   -1.15580602036686   -3.31122433854697
Cl       -1.64267079572794    0.02973462741258    5.38390588159833
Cl       -4.10833933341927   -0.02356933831148    3.85288137285030
Cl        2.44050197852459   -4.16067019318935    2.84311465574502
63
 energy: -142.114702094647 gnorm: 0.021405101007 xtb: 6.4.1 (a3dbbd7)
C        -1.30979288379266    0.00293096209461    3.58132112769425
C        -0.39367975575054   -1.16568049196378    3.30425340695429
C         0.97760830388783   -0.72186349169683    3.25684616572787
C         0.96583036703958    0.71200401722665    3.24763431753426
C        -0.38957491142052    1.16257922697231    3.27745211205760
C         2.34833662238290   -2.58485380248183    0.57597112080371
C         3.16022927852966   -1.41450924187648    0.57236284306815
C         2.91095721499077   -0.69289036339906    1.80278972972425
C         1.95510156904589   -1.41445513143431    2.56732491974543
C         1.69606094831245   -2.75610962701258    1.92852627593414
C         3.17395224320449    1.42056363611101    0.57489029154803
C         2.32994103681903    2.59188131266829    0.57107275517180
C         1.56861383554977    2.58444538790020    1.79113680693419
C         1.93269328005648    1.41706983646490    2.53801945768968
C         2.92394231293016    0.70103794892119    1.79459626510616
C        -0.36956295911868    3.43963090483586    0.57280757440773
C        -1.73673085671799    2.99080376799456    0.56897299418846
C        -1.98587077150550    2.27679468811785    1.79021496002477
C        -0.73950779586099    2.27221151542560    2.55838078274135
C         0.24098202812891    2.99150963003253    1.79542005346604
C        -3.37483269667151    0.72607651066087    0.57124271235701
C        -3.37336574734975   -0.70824251497990    0.57149740611681
C        -2.78816653404862   -1.15312844024832    1.79824066094091
C        -2.64627791525810    0.00782961206822    2.75614115377717
C        -2.79221736707330    1.17263128005014    1.80267738270584
C        -1.73303396205405   -2.96422294722771    0.57126139369911
C        -0.35356119087047   -3.40477552183125    0.59006001654160
C         0.23257536389075   -2.98843418883699    1.80196273091627
C        -0.73167373289221   -2.26554003080384    2.55542534573783
C        -1.97990360176540   -2.25431277553389    1.78675772845508
C        -0.23577316723321   -2.99861364835038   -1.81997413807194
C         0.75760470257842   -2.27643084636561   -2.58097199726710
C         1.97808837399667   -2.27400716435485   -1.81925408166581
C         1.75049464370384   -2.99698949845449   -0.59612071279789
C         0.37003776279308   -3.44672933721635   -0.60740849358967
C         2.79601905865548   -1.15185609698901   -1.83111283223165
C         2.41863615672704    0.01270437848990   -2.59071838476041
C         2.79544173164621    1.17980200739570   -1.83370195150149
C         3.40114783174907    0.72891008066492   -0.60556935549290
C         3.39568613127251   -0.71084807328283   -0.60528637121773
C         1.97599576047355    2.30021782181433   -1.83503688356806
C         0.75157139137206    2.29850256492616   -2.59415956763855
C        -0.24217842332744    3.01520586254494   -1.83936472434214
C         0.36402816521188    3.45310252655567   -0.60654734779565
C         1.73817630535801    3.01866432646438   -0.60843232597827
C        -1.56202366481938    2.58363642603848   -1.84456014143352
C        -1.93841609419450    1.42098502062278   -2.60548854733814
C        -2.92977866936631    0.69825252221675   -1.84207365009164
C        -3.15772914079755    1.41662155610800   -0.61553467710025
C        -2.32097320567812    2.58039458527413   -0.62124716797108
C        -2.93139129452632   -0.68681169652729   -1.84250043991719
C        -1.93541636908761   -1.41046739887299   -2.60119251129148
C        -1.56221730506137   -2.56986321569861   -1.84112790782290
C        -2.31893205694192   -2.56283450575341   -0.61648984602361
C        -3.15996099956089   -1.40223625802566   -0.61578217125528
C        -0.97889327723953   -0.71478412935363   -3.32868697129739
C        -0.97992728363050    0.72657436427079   -3.32878923306767
C         0.39014854897572    1.17354758549171   -3.32592066004502
C         1.23836011629907    0.01007392753056   -3.32044158122414
C         0.39204035261787   -1.15870133935911   -3.31591243130795
Cl       -1.60026701462578    0.02432192755574    5.37684750815526
Cl       -4.12003126229129   -0.00965274108939    3.81515837341106
Cl        2.47112290278327   -4.12913109774405    2.86004650699900
63
 energy: -142.115018334381 gnorm: 0.009644331246 xtb: 6.4.1 (a3dbbd7)
C        -1.30486748120590    0.00039530036208    3.56620642072988
C        -0.38716588293322   -1.17069292626511    3.29659458388643
C         0.97759182961120   -0.71872531835799    3.25591528986120
C         0.96932592907743    0.71844222920268    3.25218055613389
C        -0.38549874726861    1.16684160175185    3.27321057267635
C         2.34553792065343   -2.58741769223029    0.57570726584995
C         3.15624151026618   -1.41440727340377    0.57548231406992
C         2.91489482647131   -0.69076837332925    1.80309849139902
C         1.95784413193591   -1.41171188412401    2.57018363065964
C         1.69210139350189   -2.75260283794819    1.92999995285664
C         3.17896390773877    1.42452355962884    0.57991798348370
C         2.33427241929498    2.59498401362647    0.57871274253241
C         1.57370806490024    2.59117660724016    1.80097758722702
C         1.94286408383111    1.42283078475396    2.54728718834871
C         2.93531647921957    0.70310250433748    1.80226373471640
C        -0.36664034203408    3.44715485637045    0.57326940750136
C        -1.73717544231909    3.00103947289545    0.56918211051210
C        -1.98234482264480    2.28223829654374    1.78860252886074
C        -0.73998779345875    2.28014859279674    2.55777478587547
C         0.24417087395669    3.00200256347462    1.79914821606817
C        -3.37592450531664    0.72751509403627    0.56953708743187
C        -3.37748944797353   -0.71153396904383    0.56882484281850
C        -2.78734360659160   -1.15825704918304    1.79056916429165
C        -2.63555783039941    0.00570897572868    2.74578224537787
C        -2.78931770825786    1.17495482580884    1.79437136320862
C        -1.73913458168768   -2.98095443344204    0.56783652827036
C        -0.35834842012829   -3.41554701336326    0.58378441568433
C         0.23229389695258   -3.00140394247667    1.80020578660390
C        -0.72959651085800   -2.27025471878606    2.54365869671502
C        -1.97962531817643   -2.26394871740109    1.78242536363766
C        -0.24008420590913   -3.00318983671637   -1.82411912988610
C         0.75221466266588   -2.27942543656519   -2.58195378467412
C         1.97518980986434   -2.27682827792979   -1.82048847554320
C         1.74344721154327   -2.99642301967329   -0.59638367152335
C         0.36694382528069   -3.45685199695524   -0.60969343893010
C         2.79672788527048   -1.15544722817708   -1.82789746224878
C         2.41861995018515    0.00970435426451   -2.58800917098403
C         2.79587171929429    1.17619452212301   -1.82874033704392
C         3.40480077657389    0.72967951852748   -0.60130351669469
C         3.40030589625339   -0.71304827708231   -0.60319216136569
C         1.97671793740701    2.29952953435792   -1.82928424242110
C         0.75094347646105    2.29796876361941   -2.59003557981058
C        -0.24304773889134    3.01678570662080   -1.83664407954341
C         0.36678856281076    3.45855124648343   -0.60596695755677
C         1.74049907699723    3.02036910725203   -0.60424345960443
C        -1.56522057173838    2.58795608401081   -1.84373757145851
C        -1.94183275445914    1.42200896609222   -2.60264219687926
C        -2.93607816053728    0.69882867537725   -1.84622226601703
C        -3.16530899494343    1.42110808402713   -0.61931775117698
C        -2.32611249882965    2.58493842143939   -0.62037034279873
C        -2.93796372831615   -0.68788543024606   -1.84708103633901
C        -1.94224750970659   -1.41285517780612   -2.60039955002729
C        -1.56906542303456   -2.57666054786011   -1.84364231551066
C        -2.33007845233763   -2.57169336640764   -0.61985802282294
C        -3.16929170868408   -1.40775943381455   -0.61927920192049
C        -0.98243057903358   -0.71587043727308   -3.32815527227214
C        -0.98254265086334    0.72591543357823   -3.32710575341474
C         0.38869693149094    1.17253558258323   -3.32165928987911
C         1.23665513900684    0.00788965194993   -3.31749609995017
C         0.38860489302666   -1.15966161959280   -3.31802647661141
Cl       -1.63947617665486    0.01506714663900    5.35078335394452
Cl       -4.07889784569507   -0.00049823227007    3.84082889313183
Cl        2.49730484979528   -4.10322350503450    2.87653128577227
63
 energy: -142.115306882024 gnorm: 0.003869020899 xtb: 6.4.1 (a3dbbd7)
C        -1.30637214403326    0.00014384938427    3.56979920002119
C        -0.38694671568957   -1.16951403819323    3.29518954623739
C         0.97559249143436   -0.71852839254525    3.25341951858830
C         0.96847304628877    0.71854177873737    3.25190520772462
C        -0.38557616480112    1.16533030195705    3.27194483591135
C         2.34532733658470   -2.58757488340575    0.57503445312348
C         3.15532774402539   -1.41422020473569    0.57468692276461
C         2.91403893257443   -0.69106224687161    1.80121215898679
C         1.95571608838920   -1.41143027265554    2.56761902059605
C         1.69054775195912   -2.75249549466163    1.92885235394468
C         3.17782765043654    1.42432278619499    0.57951841240500
C         2.33337982474480    2.59407210047477    0.57916535088591
C         1.57293786899861    2.58972308078295    1.80173640870999
C         1.94310910059968    1.42221221803617    2.54799886621067
C         2.93579611854674    0.70250265936619    1.80235672902935
C        -0.36679014459904    3.44626354054694    0.57417372705814
C        -1.73729201546757    3.00045796282016    0.57001293305396
C        -1.98190400913655    2.28143849999523    1.78917543284362
C        -0.74103874841258    2.27924414126145    2.55818020592600
C         0.24370826547466    3.00097557957403    1.79987795752320
C        -3.37419931079273    0.72769314753037    0.56933181828918
C        -3.37632958442980   -0.71132801499137    0.56867446769585
C        -2.78628784642685   -1.15637333479839    1.78978266270192
C        -2.63852998976999    0.00618649944986    2.74828159767357
C        -2.78765569264812    1.17364161372709    1.79244959672307
C        -1.73943577459523   -2.98062967967676    0.56896915315113
C        -0.35963998745654   -3.41533769822119    0.58421471635752
C         0.23164260094062   -3.00206643839376    1.80230491523399
C        -0.73030766478162   -2.26904672415895    2.54295932398827
C        -1.97972375250281   -2.26269498771178    1.78331730097399
C        -0.24052555070611   -3.00254278367929   -1.82391098365691
C         0.75115977501096   -2.27901547179628   -2.58083222477432
C         1.97424198253864   -2.27611308906433   -1.81980232539957
C         1.74232624246876   -2.99535169736708   -0.59595460700238
C         0.36626254011868   -3.45632192587336   -0.60825681634323
C         2.79596606491336   -1.15527521518122   -1.82730255378308
C         2.41803774065062    0.00969220746370   -2.58773498624102
C         2.79495811405304    1.17582923662893   -1.82837092285932
C         3.40372147958263    0.72961128588666   -0.60156979555351
C         3.40086864983156   -0.71332612230692   -0.60379589966731
C         1.97612406538296    2.29909319245589   -1.82818036310780
C         0.75047108679377    2.29716920359386   -2.58884657143728
C        -0.24325046590960    3.01577994949405   -1.83551530722062
C         0.36639224584557    3.45773178713736   -0.60500873786861
C         1.73982026749751    3.01940888028262   -0.60370544187142
C        -1.56495145276412    2.58749897675575   -1.84295280955951
C        -1.94120097894515    1.42187632305018   -2.60232508805469
C        -2.93473378083781    0.69896152532102   -1.84642425928204
C        -3.16541903901361    1.42149481707487   -0.61955585743958
C        -2.32607382545083    2.58397441166342   -0.61944749431189
C        -2.93635121964078   -0.68744337600447   -1.84727594732296
C        -1.94184533585845   -1.41236053664018   -2.60013363748136
C        -1.56903815503127   -2.57627207924029   -1.84289394371483
C        -2.33025096006437   -2.57063877108099   -0.61908758002861
C        -3.16915933363085   -1.40767796513434   -0.61919475916201
C        -0.98203432071982   -0.71562869927004   -3.32804449515223
C        -0.98221816937693    0.72576910966033   -3.32692235170624
C         0.38877496591560    1.17221742036186   -3.32046708469274
C         1.23652789908120    0.00774487326200   -3.31687105684240
C         0.38853385860209   -1.15929269338941   -3.31756464256953
Cl       -1.59949151015484    0.01205913991802    5.36199434065620
Cl       -4.10613704966533    0.00100760433362    3.81069448389103
Cl        2.50286132447909   -4.09756476238867    2.88102070045558
63
 energy: -142.115338610562 gnorm: 0.002287655990 xtb: 6.4.1 (a3dbbd7)
C        -1.30731077519418    0.00078442570003    3.57039994516477
C        -0.38771918242215   -1.16885040875172    3.29616066805437
C         0.97496298009891   -0.71899820661656    3.25359518574034
C         0.96748104638291    0.71787028912238    3.25135656587903
C        -0.38602160356402    1.16534583714402    3.27291277922262
C         2.34585479295898   -2.58732160836816    0.57495970611410
C         3.15574900522336   -1.41420859090996    0.57417687909677
C         2.91292389529977   -0.69140153444778    1.80082257227912
C         1.95462718970605   -1.41167260512815    2.56689168745046
C         1.69069236602562   -2.75257058165352    1.92809543910878
C         3.17653339255672    1.42346306424129    0.57844589944144
C         2.33240598224950    2.59314262870327    0.57763287660998
C         1.57187866374997    2.58813679587889    1.79995010580805
C         1.94122503281374    1.42120376232661    2.54651183991723
C         2.93380519056571    0.70207578570461    1.80114779480837
C        -0.36713342495582    3.44486444258860    0.57402898744634
C        -1.73709423829065    2.99874415295767    0.56996142201010
C        -1.98236623589347    2.28105241777400    1.78964687217408
C        -0.74110942198708    2.27844523106019    2.55844531358814
C         0.24328054626199    2.99920230391176    1.79912422679798
C        -3.37346845437051    0.72750287921782    0.56992688746588
C        -3.37526576113541   -0.71101672181873    0.56938892340858
C        -2.78632542902607   -1.15599184063150    1.79089611457842
C        -2.63858348910133    0.00653037937528    2.74918103820139
C        -2.78787389973847    1.17361877428140    1.79329002629564
C        -1.73808783461275   -2.97786564721694    0.56942027133076
C        -0.35902869616485   -3.41373711459767    0.58489249966941
C         0.23197052644209   -3.00047351140210    1.80320242899670
C        -0.73057190243966   -2.26868809070481    2.54463160026484
C        -1.97948819524938   -2.26138025195585    1.78407362575228
C        -0.23989473357436   -3.00140943909728   -1.82354161092421
C         0.75179727731934   -2.27837559096469   -2.58057256023481
C         1.97449478151314   -2.27546671903016   -1.81956172675123
C         1.74332286352710   -2.99513157472391   -0.59586325716443
C         0.36674539454947   -3.45439742277757   -0.60768819464767
C         2.79564515390241   -1.15472305281076   -1.82771646778517
C         2.41789214726051    0.01011025810545   -2.58819802370506
C         2.79467575750090    1.17618341428355   -1.82912917555471
C         3.40277279349754    0.72926746688338   -0.60238271991143
C         3.40016529839747   -0.71326522964969   -0.60423759162776
C         1.97593109134107    2.29899737705457   -1.82903245485523
C         0.75053687270140    2.29700280297234   -2.58953489529771
C        -0.24308183620537    3.01515763905955   -1.83592472566636
C         0.36594990883080    3.45660488771433   -0.60513005989708
C         1.73936571955180    3.01876069242829   -0.60462115333798
C        -1.56420220151055    2.58659184638074   -1.84298805916907
C        -1.94039444405944    1.42156430197519   -2.60269388024101
C        -2.93329163324200    0.69892082377845   -1.84573088947280
C        -3.16406556689369    1.42085028520810   -0.61873696311034
C        -2.32507771958270    2.58275856233940   -0.61937211312561
C        -2.93472271236177   -0.68704503119117   -1.84657411664246
C        -1.94053638425946   -1.41155567740268   -2.60028224588416
C        -1.56771957300382   -2.57483578122940   -1.84239419385737
C        -2.32817171275163   -2.56864935739991   -0.61850818051884
C        -3.16732573484782   -1.40678037843589   -0.61845171799235
C        -0.98127711338628   -0.71528375841024   -3.32831770632599
C        -0.98165939558950    0.72585382247360   -3.32731602788285
C         0.38911072625568    1.17231688227918   -3.32117142479779
C         1.23684598348938    0.00801877750040   -3.31736955006902
C         0.38915084067083   -1.15903334017901   -3.31740971035574
Cl       -1.60653716043988    0.01278436419290    5.36137103184716
Cl       -4.10283323087351    0.00021186352188    3.81575280645991
Cl        2.50020890653383   -4.10126806588808    2.87806315105180
63
 energy: -142.115343203344 gnorm: 0.000963530779 xtb: 6.4.1 (a3dbbd7)
C        -1.30754968916007    0.00079793857895    3.57010763507728
C        -0.38750465171926   -1.16887989323309    3.29597325372600
C         0.97462656785468   -0.71903223801803    3.25353921714483
C         0.96724560274199    0.71803666364680    3.25142955313095
C        -0.38594456918356    1.16550816834913    3.27298076815587
C         2.34582775948061   -2.58733487832675    0.57495908917079
C         3.15571262942541   -1.41417414715351    0.57420046479423
C         2.91277718063371   -0.69138651264285    1.80066703888175
C         1.95438322838519   -1.41158535480587    2.56671074709977
C         1.69029083264682   -2.75218954789447    1.92779064123990
C         3.17632688315667    1.42339829205717    0.57835681227509
C         2.33224860382586    2.59293448791168    0.57752656443387
C         1.57170201570956    2.58787436300290    1.79990685609792
C         1.94110194823251    1.42116184739965    2.54652095475310
C         2.93381318381542    0.70206778118166    1.80122912558972
C        -0.36711303146877    3.44475768963576    0.57401991885633
C        -1.73711167725430    2.99874663316644    0.56998100667588
C        -1.98239225131112    2.28134946325991    1.78983218500165
C        -0.74129647344102    2.27861322822198    2.55855920070109
C         0.24325535303240    2.99916418215867    1.79911491271668
C        -3.37315890093755    0.72754502549627    0.57003959743597
C        -3.37504434370519   -0.71110230712150    0.56952565037309
C        -2.78623285192721   -1.15604438539282    1.79082844092468
C        -2.63822088356122    0.00660231477708    2.74921192507069
C        -2.78769687761449    1.17369284679202    1.79290555767077
C        -1.73798435790933   -2.97786241339828    0.56944825981679
C        -0.35923955472633   -3.41382009981077    0.58471476191182
C         0.23208936647013   -3.00074006365770    1.80367219880972
C        -0.73059863485739   -2.26901424197424    2.54462633952431
C        -1.97934238169733   -2.26141802746031    1.78418752910009
C        -0.23996879501872   -3.00118314611626   -1.82367578305683
C         0.75165622049495   -2.27832902466640   -2.58048418620435
C         1.97440293665513   -2.27540094018649   -1.81955212974979
C         1.74319908451984   -2.99491486930553   -0.59579346481361
C         0.36667892312372   -3.45417192870625   -0.60743187068123
C         2.79557469325882   -1.15474385537936   -1.82766726066908
C         2.41783066015168    0.01010076735817   -2.58820300352901
C         2.79459003876035    1.17609732996696   -1.82907011617335
C         3.40265715319084    0.72919120672180   -0.60241866320102
C         3.40023710307820   -0.71341781821083   -0.60428900504745
C         1.97590370872453    2.29894872155473   -1.82896747702592
C         0.75051767750892    2.29690383828259   -2.58956049443508
C        -0.24308825647859    3.01498750819273   -1.83590536584972
C         0.36591084721476    3.45650389658001   -0.60509665879841
C         1.73931284610610    3.01859291974721   -0.60471090392869
C        -1.56409911174880    2.58650981644694   -1.84296087680379
C        -1.94030340989495    1.42148803738265   -2.60268075859743
C        -2.93315290747929    0.69894145624078   -1.84581969014070
C        -3.16403474515813    1.42093573720260   -0.61869612769491
C        -2.32504655722370    2.58250598066828   -0.61925831626643
C        -2.93449726092909   -0.68693849249875   -1.84666335883606
C        -1.94049203100569   -1.41136357587979   -2.60029066671149
C        -1.56763440870058   -2.57468944189272   -1.84225204696071
C        -2.32813075746553   -2.56837345669486   -0.61843336677281
C        -3.16717723769024   -1.40678678884154   -0.61835012036389
C        -0.98120598156014   -0.71523580209470   -3.32841814283571
C        -0.98161887102535    0.72582880863907   -3.32742289554895
C         0.38915115836131    1.17230605937773   -3.32120328883000
C         1.23687064859794    0.00796657764945   -3.31738283951429
C         0.38918711525641   -1.15901524197447   -3.31753270904943
Cl       -1.60837749686360    0.01204114392184    5.36053349832489
Cl       -4.10127161145277    0.00081564062957    3.81685180107276
Cl        2.50121103020526   -4.10122577411578    2.87814585776051
63
 energy: -142.115344266322 gnorm: 0.000514606881 xtb: 6.4.1 (a3dbbd7)
C        -1.30774636717407    0.00080379578194    3.57008775795384
C        -0.38730845413570   -1.16884910212568    3.29576384017304
C         0.97442660723159   -0.71906796494871    3.25353529085030
C         0.96710562921833    0.71817429543254    3.25149259173252
C        -0.38588594094291    1.16563166010117    3.27304836209500
C         2.34576956062553   -2.58728330623078    0.57500819490679
C         3.15579337015261   -1.41413758657305    0.57424729323207
C         2.91277421898218   -0.69136388686317    1.80065638968287
C         1.95434613560235   -1.41154382340718    2.56663952284030
C         1.68988722463405   -2.75167427280960    1.92746396705039
C         3.17625196796411    1.42337396259675    0.57835197797873
C         2.33217924066551    2.59283094730669    0.57747725903263
C         1.57158622903068    2.58774517545366    1.79988728427497
C         1.94101209508361    1.42115823759083    2.54650566217136
C         2.93383947954842    0.70209914888737    1.80132221038630
C        -0.36712017159588    3.44471664110775    0.57400269577017
C        -1.73717024424858    2.99879972463988    0.56999274485302
C        -1.98244862402918    2.28161230365896    1.78998451176817
C        -0.74143440191918    2.27875327261442    2.55865336608123
C         0.24322569365670    2.99918758818900    1.79912808744919
C        -3.37298807642517    0.72754197424235    0.57009469089501
C        -3.37493536381025   -0.71120801597720    0.56961557723640
C        -2.78623562495284   -1.15612942109910    1.79081704314820
C        -2.63814282495738    0.00663986182187    2.74936769779949
C        -2.78753459871062    1.17369872901004    1.79259069867233
C        -1.73794287767721   -2.97790785739411    0.56948036499449
C        -0.35942417366736   -3.41392643792511    0.58454963422696
C         0.23218954291129   -3.00085862086631    1.80402400604529
C        -0.73063556476538   -2.26936330853355    2.54470389942853
C        -1.97926268407783   -2.26148216250603    1.78429342988231
C        -0.24002468106813   -3.00104769635841   -1.82379782275950
C         0.75159560374463   -2.27833180067363   -2.58045376377322
C         1.97439338453909   -2.27541135418792   -1.81959080515848
C         1.74316377146493   -2.99479495166292   -0.59575945926711
C         0.36664279980687   -3.45396435720348   -0.60719664875674
C         2.79555426745006   -1.15475444320246   -1.82765780000714
C         2.41780246282232    0.01012165006859   -2.58819891319689
C         2.79456831118769    1.17607401682885   -1.82900519314297
C         3.40265492949816    0.72916486742715   -0.60241110269697
C         3.40027063721192   -0.71351097357597   -0.60430528158767
C         1.97590558780896    2.29896484176513   -1.82893261419106
C         0.75051125903522    2.29686843017860   -2.58959562285201
C        -0.24311032442238    3.01490363444018   -1.83590473706337
C         0.36586925186752    3.45648888880498   -0.60505702799347
C         1.73929885778635    3.01852683183930   -0.60475121357416
C        -1.56405065267782    2.58646924694941   -1.84296039183158
C        -1.94029494445252    1.42143156175124   -2.60268598928140
C        -2.93314381037034    0.69892978494735   -1.84591384000605
C        -3.16402345022211    1.42099476883323   -0.61868255723180
C        -2.32506441293299    2.58235057399694   -0.61919046525337
C        -2.93443555509258   -0.68690258232501   -1.84675298572953
C        -1.94051792746857   -1.41127446391756   -2.60031726580425
C        -1.56757870620438   -2.57464467551283   -1.84212757550184
C        -2.32815937366948   -2.56825766441842   -0.61839068708535
C        -3.16710161237363   -1.40684207958830   -0.61828355732576
C        -0.98118747400691   -0.71523941916632   -3.32847143556131
C        -0.98162802699462    0.72580995183288   -3.32750539248721
C         0.38915638004070    1.17231928332006   -3.32124579998486
C         1.23688652916209    0.00793452765906   -3.31739785137591
C         0.38921712577913   -1.15902694028672   -3.31763419469848
Cl       -1.60824130084892    0.01131222134765    5.36037420936698
Cl       -4.10114466759057    0.00158018358818    3.81664041349241