63
 energy: -142.115344580797 gnorm: 0.000095619983 xtb: 6.4.1 (a3dbbd7)
C        -1.30765155909042    0.00080158745428    3.57015767175318
C        -0.38732843926658   -1.16880117248031    3.29574493924335
C         0.97452327803240   -0.71902972367110    3.25355222557294
C         0.96718940252245    0.71816413974791    3.25151348389769
C        -0.38591382104804    1.16564335862051    3.27308308682783
C         2.34573177004438   -2.58722393236221    0.57504238715816
C         3.15586399362138   -1.41413012013046    0.57425489542390
C         2.91285646143145   -0.69135191511578    1.80074942552167
C         1.95445744452762   -1.41158567964384    2.56669517993448
C         1.68984493985925   -2.75149699323790    1.92736786557173
C         3.17631979743125    1.42340019292514    0.57839099985565
C         2.33222901254407    2.59292079365193    0.57750184898818
C         1.57163619884843    2.58785783755552    1.79988806330361
C         1.94104097738686    1.42119929764814    2.54650081329134
C         2.93383121990794    0.70212574498313    1.80130249697546
C        -0.36713554219595    3.44477090055920    0.57398338411448
C        -1.73718058629239    2.99882262620843    0.56997546127606
C        -1.98245462026770    2.28155489460708    1.78992072979640
C        -0.74136988934574    2.27872290881368    2.55861177881072
C         0.24322285103772    2.99922664770190    1.79912796565955
C        -3.37308736117647    0.72750986084966    0.57004674132435
C        -3.37501753939164   -0.71120157308458    0.56957867309037
C        -2.78629345724274   -1.15615792434388    1.79087063973236
C        -2.63823218052388    0.00663092234430    2.74934969017833
C        -2.78754587114385    1.17367496385697    1.79266949039469
C        -1.73798258701174   -2.97793758628385    0.56947987005346
C        -0.35938337254929   -3.41394698225035    0.58457318042710
C         0.23217348376443   -3.00071776991850    1.80387758276427
C        -0.73062680965223   -2.26931059796893    2.54472648904715
C        -1.97931328503416   -2.26148822938373    1.78426238810913
C        -0.24000021790656   -3.00111942754217   -1.82376236866665
C         0.75166298967977   -2.27835795755699   -2.58047961545964
C         1.97444481323323   -2.27546182156291   -1.81959628861551
C         1.74323722135159   -2.99487897570936   -0.59578096358259
C         0.36667121760175   -3.45396787671861   -0.60722928247290
C         2.79557743930640   -1.15474783615661   -1.82767190181948
C         2.41781979433753    0.01012608283963   -2.58818384221000
C         2.79459761120362    1.17611337743167   -1.82902050567493
C         3.40270089429253    0.72920447777617   -0.60239877757161
C         3.40022811266176   -0.71345067748382   -0.60427324333978
C         1.97590976817323    2.29898874616463   -1.82897101052770
C         0.75051616176873    2.29690252482798   -2.58959745283214
C        -0.24311754958826    3.01496488068138   -1.83593127184679
C         0.36587130777816    3.45653630499955   -0.60507749797194
C         1.73931221528981    3.01859266682944   -0.60473111990652
C        -1.56409002025458    2.58649785246469   -1.84298587739349
C        -1.94033381194912    1.42145190429116   -2.60270267590283
C        -2.93319886933833    0.69891407533837   -1.84588798081407
C        -3.16401719855764    1.42096354621914   -0.61870280655339
C        -2.32508090642920    2.58243725645024   -0.61924016888919
C        -2.93451670921341   -0.68694369100302   -1.84671182687725
C        -1.94053698144541   -1.41134344603268   -2.60031750024740
C        -1.56758940491392   -2.57470299705277   -1.84214511196609
C        -2.32818418454886   -2.56838098042481   -0.61841544061817
C        -3.16714639196406   -1.40685449959000   -0.61830746945102
C        -0.98120764427611   -0.71527037983165   -3.32840868640376
C        -0.98164274771663    0.72581618508742   -3.32746824092076
C         0.38913508775145    1.17232168217489   -3.32124180283000
C         1.23687790491687    0.00794672622139   -3.31739208154894
C         0.38921553108730   -1.15904387876451   -3.31758118903470
Cl       -1.60798246269159    0.01131930020924    5.36047738978313
Cl       -4.10131317975514    0.00157191135303    3.81651281259711
Cl        2.50153873083868   -4.10224942883721    2.87833012669998
