62
 energy: -137.473627857955 gnorm: 0.187779240538 xtb: 6.4.1 (a3dbbd7)
C        -1.23626340000000    0.00000000000000    3.32997640000000
C        -0.38202640000000   -1.17575640000000    3.32997640000000
C         1.00015810000000   -0.72665740000000    3.32997640000000
C         1.00015810000000    0.72665740000000    3.32997640000000
C        -0.38202640000000    1.17575640000000    3.32997640000000
C         2.34433560000000   -2.60145750000000    0.59464210000000
C         3.19857260000000   -1.42570110000000    0.59464210000000
C         2.96246730000000   -0.69904370000000    1.83090550000000
C         1.96230920000000   -1.42570110000000    2.59495830000000
C         1.58028280000000   -2.60145750000000    1.83090550000000
C         3.19857260000000    1.42570110000000    0.59464210000000
C         2.34433560000000    2.60145750000000    0.59464210000000
C         1.58028280000000    2.60145750000000    1.83090550000000
C         1.96230920000000    1.42570110000000    2.59495830000000
C         2.96246730000000    0.69904370000000    1.83090550000000
C        -0.36750900000000    3.48258920000000    0.59464210000000
C        -1.74969350000000    3.03349030000000    0.59464210000000
C        -1.98579880000000    2.30683290000000    1.83090550000000
C        -0.74953540000000    2.30683290000000    2.59495830000000
C         0.25062270000000    3.03349030000000    1.83090550000000
C        -3.42570570000000    0.72665740000000    0.59464210000000
C        -3.42570570000000   -0.72665740000000    0.59464210000000
C        -2.80757400000000   -1.17575640000000    1.83090550000000
C        -2.42554760000000    0.00000000000000    2.59495830000000
C        -2.80757400000000    1.17575640000000    1.83090550000000
C        -1.74969350000000   -3.03349030000000    0.59464210000000
C        -0.36750900000000   -3.48258920000000    0.59464210000000
C         0.25062270000000   -3.03349030000000    1.83090550000000
C        -0.74953540000000   -2.30683290000000    2.59495830000000
C        -1.98579880000000   -2.30683290000000    1.83090550000000
C        -0.25062270000000   -3.03349030000000   -1.83090550000000
C         0.74953540000000   -2.30683290000000   -2.59495830000000
C         1.98579880000000   -2.30683290000000   -1.83090550000000
C         1.74969350000000   -3.03349030000000   -0.59464210000000
C         0.36750900000000   -3.48258920000000   -0.59464210000000
C         2.80757400000000   -1.17575640000000   -1.83090550000000
C         2.42554760000000    0.00000000000000   -2.59495830000000
C         2.80757400000000    1.17575640000000   -1.83090550000000
C         3.42570570000000    0.72665740000000   -0.59464210000000
C         3.42570570000000   -0.72665740000000   -0.59464210000000
C         1.98579880000000    2.30683290000000   -1.83090550000000
C         0.74953540000000    2.30683290000000   -2.59495830000000
C        -0.25062270000000    3.03349030000000   -1.83090550000000
C         0.36750900000000    3.48258920000000   -0.59464210000000
C         1.74969350000000    3.03349030000000   -0.59464210000000
C        -1.58028280000000    2.60145750000000   -1.83090550000000
C        -1.96230920000000    1.42570110000000   -2.59495830000000
C        -2.96246730000000    0.69904370000000   -1.83090550000000
C        -3.19857260000000    1.42570110000000   -0.59464210000000
C        -2.34433560000000    2.60145750000000   -0.59464210000000
C        -2.96246730000000   -0.69904370000000   -1.83090550000000
C        -1.96230920000000   -1.42570110000000   -2.59495830000000
C        -1.58028280000000   -2.60145750000000   -1.83090550000000
C        -2.34433560000000   -2.60145750000000   -0.59464210000000
C        -3.19857260000000   -1.42570110000000   -0.59464210000000
C        -1.00015810000000   -0.72665740000000   -3.32997640000000
C        -1.00015810000000    0.72665740000000   -3.32997640000000
C         0.38202640000000    1.17575640000000   -3.32997640000000
C         1.23626340000000    0.00000000000000   -3.32997640000000
C         0.38202640000000   -1.17575640000000   -3.32997640000000
Cl       -1.84886636902500    0.00000000000000    5.03315507598844
Cl        4.82196538477448   -2.16008291139484    0.91304313868330
62
 energy: -137.517114061191 gnorm: 0.099953241859 xtb: 6.4.1 (a3dbbd7)
C        -1.25257434350506    0.00106935179679    3.35661430314200
C        -0.36685945117078   -1.18163945345599    3.32889695380147
C         0.99385547143773   -0.72017278991750    3.31933308313028
C         0.99539279874690    0.72860795190323    3.31943287223604
C        -0.36816423654996    1.18447603645304    3.33030090741235
C         2.31461272749954   -2.59131220441414    0.59451547857665
C         3.27154059132370   -1.46063635075746    0.60556255941028
C         2.93419491485578   -0.68831638678509    1.82651398647235
C         1.95183858570350   -1.41600598440487    2.57913585176335
C         1.56869553926388   -2.58727475727158    1.82096750908629
C         3.18557447829029    1.42115749492925    0.58764594242058
C         2.33463660476547    2.58783557602730    0.59012952110194
C         1.57755561707623    2.58974805104349    1.82305877243869
C         1.95644298767231    1.42787821852710    2.58719162934941
C         2.93748547125745    0.69847299907485    1.81720684006854
C        -0.36325065980883    3.46606411695205    0.59536837948273
C        -1.73937986978786    3.01769705023509    0.59486483677080
C        -1.97576516267882    2.29705300591624    1.82029104972996
C        -0.73836935585800    2.29521021412840    2.58230333659187
C         0.25308860479456    3.02282699001718    1.82403674128924
C        -3.42065333992120    0.72409920151407    0.57946861939739
C        -3.42095584965885   -0.72274337776727    0.57908119319727
C        -2.79740577688791   -1.16575634444245    1.80604415906302
C        -2.43545426313153    0.00111327194330    2.54708325351165
C        -2.79770552812095    1.16908717260871    1.80556326919612
C        -1.74169784773059   -3.01727830488486    0.59431029409498
C        -0.36827016167659   -3.46797040250295    0.59578442436344
C         0.24647761949627   -3.02762374993283    1.82360909507863
C        -0.74099629516522   -2.29601682693618    2.58365212708644
C        -1.97586518328221   -2.29488480474574    1.82162283069412
C        -0.25097796108616   -3.02259877742044   -1.82099605277184
C         0.74501900692205   -2.29719674464352   -2.58130938085574
C         1.97328884241967   -2.29569042472585   -1.82660301921305
C         1.72918480476211   -3.01166676251636   -0.58899855581401
C         0.36050037020347   -3.46980282120823   -0.59209787373379
C         2.78450381262477   -1.16031615495461   -1.82861196890116
C         2.40960158452629    0.00752592659886   -2.59401497910407
C         2.79205092382117    1.17687652292117   -1.83412597804054
C         3.40489297518585    0.72430199434304   -0.60306313871534
C         3.40997737580043   -0.70967308053244   -0.61922945118687
C         1.97449734627453    2.29927436183395   -1.82797627468154
C         0.74287923787128    2.29849162705284   -2.58542637237790
C        -0.24974515032305    3.02039958138674   -1.82124846434700
C         0.36735341564594    3.46672283549585   -0.59088432934723
C         1.74056469017005    3.02080670195781   -0.59351823679039
C        -1.57359985417413    2.58970508540525   -1.82120957205992
C        -1.95446621779090    1.41992423698404   -2.58344471622471
C        -2.95110190789301    0.69631707954575   -1.82613737049586
C        -3.18801428299650    1.42151647802545   -0.59879040717855
C        -2.33313116104998    2.58935017790997   -0.59216032762608
C        -2.95115478335240   -0.69543578089117   -1.82584447078159
C        -1.95483781215752   -1.41999572939152   -2.58223448767338
C        -1.57510718505827   -2.59025947456204   -1.82075327909949
C        -2.33443817490670   -2.58995620857483   -0.59264295900742
C        -3.18905533699079   -1.41992579426166   -0.59799866097756
C        -0.99717004149279   -0.72330511827500   -3.31382346981264
C        -0.99840248554014    0.72390514420174   -3.31507396145906
C         0.37604964962249    1.17297279850908   -3.31720102125923
C         1.22510968131459    0.00334443405964   -3.32056214567170
C         0.37701689841288   -1.16944242580898   -3.31445995646698
Cl       -1.88393465147137   -0.00841908782334    5.10126526022503
Cl        4.92772071920634   -2.20259847688721    0.93578401616345
62
 energy: -137.535478826689 gnorm: 0.039868762041 xtb: 6.4.1 (a3dbbd7)
C        -1.29259795513119    0.00336693954545    3.47616450329452
C        -0.35853228596897   -1.17548055542837    3.28659127758384
C         0.97868707422834   -0.71266102427882    3.28720567872019
C         0.98128094742918    0.72783738541898    3.28551359833802
C        -0.36154180723063    1.18281561011792    3.28896554282597
C         2.29589645468197   -2.58527643238956    0.58508054486747
C         3.35883325572591   -1.50283171020978    0.62525762336945
C         2.91307461342457   -0.67982783633102    1.82388788819356
C         1.94197733871090   -1.40567982673006    2.55066833373058
C         1.55890730740765   -2.57135345776601    1.79449572506856
C         3.17447617009275    1.41719050121720    0.58525921217899
C         2.32630324599530    2.57539002339499    0.58549433317086
C         1.57311742336782    2.58197525170873    1.81301859144917
C         1.94855135274835    1.42925448328212    2.56998807982549
C         2.92415019666131    0.69621900512765    1.80913798102634
C        -0.36330667100048    3.45683283196226    0.59046117609869
C        -1.73403647183425    3.00517134879076    0.59177744571459
C        -1.97545833589379    2.29582927453122    1.81030617914098
C        -0.73410188128926    2.28240304125301    2.55384323195938
C         0.25030832439993    3.01556103700385    1.80902162843981
C        -3.40912429322801    0.72150430569668    0.57151843542130
C        -3.41202325691415   -0.71737087156773    0.57189888478577
C        -2.78236121517138   -1.14873245589498    1.79733740252901
C        -2.44407349663081    0.00299241571163    2.53826962802261
C        -2.78175426899885    1.15768209517165    1.79433739870701
C        -1.73786244189742   -3.00284075696320    0.59165268508843
C        -0.37100494596642   -3.45535826366102    0.59182804305467
C         0.24044708347318   -3.02156173649473    1.80798067537630
C        -0.73891121982517   -2.28311127314128    2.55761778635776
C        -1.97413013191765   -2.28782942924619    1.81407335137056
C        -0.24968456459167   -3.01100462374853   -1.81572922216620
C         0.74528375431106   -2.28673822660254   -2.57039951443466
C         1.96799830514455   -2.29003841794031   -1.82811401164004
C         1.71869305272213   -2.99614904749556   -0.58893418113303
C         0.35657331947786   -3.45284367528474   -0.59425308904301
C         2.76888948113039   -1.14796344919627   -1.81714803107888
C         2.39742407834690    0.01208266055312   -2.58831628475696
C         2.77829673851939    1.17595910029342   -1.83424120417486
C         3.37866576334763    0.71401503135416   -0.60454783917640
C         3.39316327492362   -0.69554838879727   -0.63237976334518
C         1.96517822356744    2.29174371694653   -1.82524928951156
C         0.73904519611530    2.29107842260944   -2.57944379859243
C        -0.24795247512200    3.00855266096939   -1.81641416140348
C         0.36732981003319    3.45353231788319   -0.59137491039258
C         1.73209862758296    3.01137727945319   -0.59347751175503
C        -1.56739942536528    2.57888528740067   -1.81565522620212
C        -1.94670440741970    1.41447789405273   -2.57640589853682
C        -2.94122062215864    0.69480366427896   -1.82449986658469
C        -3.17579344514223    1.41613575754897   -0.60194441134558
C        -2.32487701816094    2.57924970265151   -0.59459653209137
C        -2.94085039008580   -0.69179415644634   -1.82316680342102
C        -1.94776997926554   -1.41401191984775   -2.57344467518740
C        -1.57050344605385   -2.57919861488497   -1.81376852450629
C        -2.32692092171235   -2.57939693836354   -0.59458328942203
C        -3.17804864442914   -1.41106656613010   -0.59886948723992
C        -0.99197835589602   -0.72009942506739   -3.30191485259995
C        -0.99444539541708    0.72159952568428   -3.30450295081239
C         0.37353982101394    1.17004598202796   -3.30925189180557
C         1.21806669439082    0.00550243354406   -3.31145952992864
C         0.37490430490677   -1.16307906968917   -3.30425026603105
Cl       -1.92962775951628   -0.01678828075842    5.25342136730129
Cl        5.03653531110329   -2.24551346822486    0.96246099997969
62
 energy: -137.537711289924 gnorm: 0.020945968818 xtb: 6.4.1 (a3dbbd7)
C        -1.29973081043534    0.00444542101035    3.49372994360789
C        -0.37041250823059   -1.17290660249571    3.30530686603355
C         0.97131612624898   -0.71248529299489    3.28330488101089
C         0.97200790658217    0.72711286067507    3.28634005833721
C        -0.37579299174811    1.18349375347333    3.31149692501295
C         2.32056010756581   -2.59315252519502    0.58494296366918
C         3.37495876171317   -1.50947461184760    0.62582814425133
C         2.93293723964053   -0.68864405718957    1.82207066345494
C         1.94275242503704   -1.40163503693618    2.54435762538607
C         1.56502983868899   -2.56778776634902    1.78945507860080
C         3.17838405653013    1.41404168136692    0.58255285787051
C         2.32569771105084    2.57191266219277    0.58178286846388
C         1.56915525805237    2.57524685341073    1.80842105627228
C         1.94202105681428    1.41976431688394    2.56274837864680
C         2.93094140279593    0.69072346032758    1.80615503651068
C        -0.36612137299959    3.45377807513788    0.58939941045720
C        -1.73790660170975    3.00505824025191    0.59133937739718
C        -1.98105940915046    2.29821049075604    1.81396536939891
C        -0.74302253136679    2.28255501698011    2.56606515735015
C         0.24505028880404    3.00549947640945    1.80801260248995
C        -3.40835513251079    0.72435363798556    0.57325931432229
C        -3.41012274345478   -0.71434801447466    0.57392998937147
C        -2.78471576007388   -1.14531160912735    1.80502226793463
C        -2.44369902695793    0.00537183752490    2.55315759514166
C        -2.78561544663249    1.15951974225617    1.80192977510166
C        -1.73883679636080   -2.99785448196051    0.59119559912317
C        -0.36972905903277   -3.44658954134913    0.59035371411062
C         0.24166606936858   -3.00631558299602    1.80516436706751
C        -0.74394478180116   -2.27884685469647    2.56661821450808
C        -1.97665115052709   -2.28462914100084    1.81710549280589
C        -0.24828595952788   -3.00758872043868   -1.81724512521543
C         0.74682718919475   -2.28535595654619   -2.57363862936879
C         1.97302188640207   -2.29261413539771   -1.83222297748849
C         1.73084003246439   -2.99889523218294   -0.59056520398063
C         0.36123025553205   -3.44450707131429   -0.59415473566715
C         2.77708388314001   -1.15331432590510   -1.81788922314094
C         2.39817018949535    0.00815686664586   -2.58895715106626
C         2.77857377579881    1.17145192618553   -1.83392900652060
C         3.38633866408463    0.70769345278043   -0.60502546468704
C         3.40760322631286   -0.70651765586406   -0.62767235424862
C         1.96405869260702    2.28915499540703   -1.82785459397736
C         0.73807444623724    2.29256953887421   -2.58470361260458
C        -0.24965897506081    3.01053089819944   -1.82082232981124
C         0.36540103178718    3.45248620515067   -0.59343660702157
C         1.73125041004229    3.01038640992118   -0.59654632057926
C        -1.56996627138601    2.58147344998770   -1.81965942207228
C        -1.95041272258656    1.41733462462964   -2.58200507157740
C        -2.94576937240564    0.69785402903361   -1.82875860662102
C        -3.17846918444937    1.41858426704019   -0.60370068052241
C        -2.32785750064162    2.58182492902229   -0.59713997606678
C        -2.94493263989824   -0.68999371636240   -1.82696263730375
C        -1.95066426268857   -1.41273960169568   -2.57753844299705
C        -1.57074648810261   -2.57701038732364   -1.81588135906048
C        -2.32811795515526   -2.57698434526675   -0.59620286649817
C        -3.17882974903453   -1.40788563789390   -0.59989466855852
C        -0.99434336860601   -0.71910602385021   -3.30672507773015
C        -0.99732417357813    0.72350899948569   -3.31081965068549
C         0.37217634466574    1.17110110021731   -3.31574645531760
C         1.21776435140431    0.00522469225162   -3.31501475159304
C         0.37382998640267   -1.16280232652484   -3.30884056426468
Cl       -1.93899508558749   -0.02097930438079    5.25896364606892
Cl        5.04846623298626   -2.24423126330980    0.96177654114023
62
 energy: -137.538378203342 gnorm: 0.012111923830 xtb: 6.4.1 (a3dbbd7)
C        -1.30592130486495    0.00513325519179    3.51578186673459
C        -0.37733291634982   -1.16984534866665    3.31043164977331
C         0.96543271480457   -0.71193732042844    3.27613703856986
C         0.96556249412949    0.72695250237650    3.28253589472049
C        -0.38453910101845    1.18319655170907    3.31973997121322
C         2.33434634284693   -2.59775763007476    0.58340270973054
C         3.38713305862704   -1.51550082606847    0.62826381072528
C         2.94244840246891   -0.69339947623139    1.82009316224163
C         1.94142994611389   -1.39822121980779    2.53744166371373
C         1.56706034384049   -2.56530676228550    1.78385676227499
C         3.18048271465370    1.41416779575655    0.58240495807380
C         2.32598630503643    2.57172590456883    0.57979796798311
C         1.56706250844714    2.57204993649424    1.80503365021128
C         1.93725840548927    1.41409227253899    2.55713121480841
C         2.93300259375577    0.68792620218718    1.80413245367592
C        -0.36747768778825    3.45190219953879    0.58852323845621
C        -1.74028348073834    3.00633255126594    0.59071671874294
C        -1.98494792634644    2.30197403068027    1.81532354293679
C        -0.74728448641237    2.28188717316346    2.56981685074895
C         0.24269108065432    3.00008826288012    1.80656000456749
C        -3.40441116941218    0.72515983441096    0.57472781358585
C        -3.40599375812662   -0.71253500545694    0.57569825317833
C        -2.78345245203249   -1.14303816471057    1.81074635755372
C        -2.43917037192198    0.00664934646833    2.56160420931091
C        -2.78514838185402    1.16018590089527    1.80697679302784
C        -1.74053373895407   -2.99677615070853    0.59046964535527
C        -0.36990337447603   -3.44168007199363    0.58900098337415
C         0.24223772632117   -2.99715933454098    1.80213066287209
C        -0.74648159255700   -2.27586778483166    2.56837942293758
C        -1.97878456218545   -2.28553742643475    1.81847080523959
C        -0.24727050556481   -3.00533294187610   -1.81761168191685
C         0.74771546489606   -2.28537101516720   -2.57605161462269
C         1.97537234202334   -2.29521709661916   -1.83583875960815
C         1.73622853194019   -2.99966143571116   -0.59147416555143
C         0.36337897900452   -3.43973689084657   -0.59379177792287
C         2.78050661734794   -1.15674266668277   -1.81627869994094
C         2.39725533093957    0.00577564729773   -2.58662862309615
C         2.77720716515644    1.16838442054918   -1.83175488224986
C         3.38852082466259    0.70325091308178   -0.60304860270761
C         3.41067878403024   -0.71220138223483   -0.62240774238961
C         1.96390534919428    2.28799321466200   -1.82870441452635
C         0.73841691560996    2.29304342224178   -2.58677060448173
C        -0.24980571682383    3.01194850890548   -1.82322009496587
C         0.36490396239115    3.45237973377729   -0.59449018934389
C         1.73104938440123    3.01082465185063   -0.59792006803800
C        -1.57052123101487    2.58306840754884   -1.82182691649465
C        -1.95170905382473    1.41867744234553   -2.58465425610215
C        -2.94723624343850    0.69930813974433   -1.83020316725436
C        -3.17850706722046    1.41966422448877   -0.60417620321694
C        -2.32895274574355    2.58359645382670   -0.59885608681794
C        -2.94652084987971   -0.68938972303553   -1.82803773588641
C        -1.95224590172194   -1.41257818775562   -2.57950593245375
C        -1.57085631278948   -2.57635888778292   -1.81675399271584
C        -2.32891798877673   -2.57655189986293   -0.59737726421701
C        -3.17869995421182   -1.40631384294585   -0.59978671411767
C        -0.99557725698630   -0.71913764718381   -3.30905125961411
C        -0.99830182125907    0.72411074924040   -3.31378736449865
C         0.37211357684550    1.17103900818166   -3.31835738112584
C         1.21761599278696    0.00457090521341   -3.31596213755595
C         0.37321940772248   -1.16308433942513   -3.31131672881983
Cl       -1.94639253739571   -0.02490293171715    5.26643700800270
Cl        5.05605724129787   -2.23999906338988    0.96007619258428
62
 energy: -137.538577755325 gnorm: 0.007249736259 xtb: 6.4.1 (a3dbbd7)
C        -1.30793912486251    0.00512225070088    3.52661664170612
C        -0.37907941039371   -1.16837221886139    3.30829433466875
C         0.96342659204347   -0.71181144433766    3.27251530052158
C         0.96397498622049    0.72717386236416    3.27984073922862
C        -0.38672175266026    1.18258650228239    3.31854525387400
C         2.33673711756710   -2.59862779577670    0.58231380757877
C         3.38978874421175   -1.51700232874590    0.62960898164069
C         2.94299017476969   -0.69408446395721    1.81898405025112
C         1.94025928646238   -1.39719287967761    2.53477135943375
C         1.56662724207379   -2.56510875713899    1.78177369207591
C         3.18121725300452    1.41531216993791    0.58329443642422
C         2.32687903054088    2.57305630486049    0.57989402775034
C         1.56710503430829    2.57234897081426    1.80443564388132
C         1.93628073804227    1.41303014474968    2.55587742829177
C         2.93282677673787    0.68781178807908    1.80395861968633
C        -0.36756936102598    3.45215960981854    0.58844021102568
C        -1.74091413801348    3.00787702204862    0.59067696786476
C        -1.98616495308208    2.30427125459633    1.81546212261109
C        -0.74768526823445    2.28176135673854    2.56942127941520
C         0.24269752924505    2.99944417720584    1.80616198497511
C        -3.40202989309574    0.72490108052915    0.57549068877712
C        -3.40367877504958   -0.71209613864850    0.57653820796609
C        -2.78177171384165   -1.14242485135758    1.81278505238928
C        -2.43511688358664    0.00678371977921    2.56305793377887
C        -2.78351309836642    1.16006649676126    1.80849088588637
C        -1.74161652306389   -2.99823364803830    0.59036592029452
C        -0.37050062827061   -3.44169574352770    0.58860233897604
C         0.24225654644413   -2.99562369035237    1.80131224045880
C        -0.74701014904384   -2.27569548916820    2.56761514320560
C        -1.97977790736351   -2.28759945534535    1.81881646737179
C        -0.24703082891012   -3.00550719364770   -1.81772318702131
C         0.74790652449320   -2.28636061634088   -2.57704510040282
C         1.97563902937782   -2.29666870324354   -1.83721191169436
C         1.73651050825167   -2.99996454532610   -0.59160639103377
C         0.36358258101682   -3.43962731877444   -0.59354565852848
C         2.78047652929896   -1.15773002159986   -1.81495713130299
C         2.39688286400518    0.00517389355603   -2.58518739795293
C         2.77646950039636    1.16748070670072   -1.83055025689841
C         3.38782190385158    0.70198499330123   -0.60150027237509
C         3.40800743647698   -0.71308140598086   -0.61958733957499
C         1.96440076588014    2.28804896355198   -1.82857982610867
C         0.73909335223599    2.29295428815795   -2.58669649142612
C        -0.24935778499395    3.01238791412835   -1.82351201114968
C         0.36525365006878    3.45309526676698   -0.59447693555618
C         1.73140718164653    3.01154703296697   -0.59774776775478
C        -1.57018147380320    2.58355071393471   -1.82209400321346
C        -1.95149926502966    1.41881360801935   -2.58480809911944
C        -2.94688489171048    0.69945769453945   -1.82974817787468
C        -3.17796352075826    1.41990120964627   -0.60380428061089
C        -2.32887242306621    2.58435638647432   -0.59911092964208
C        -2.94637262669700   -0.68949798459581   -1.82750298700833
C        -1.95234449704302   -1.41287886861023   -2.57959940601117
C        -1.57093429397975   -2.57707955447088   -1.81690838908151
C        -2.32907478134955   -2.57727809579816   -0.59758488520883
C        -3.17846672091556   -1.40628552601475   -0.59926928539716
C        -0.99563678591720   -0.71950132850680   -3.30932013640210
C        -0.99806185776540    0.72400350142029   -3.31397679269182
C         0.37265930549664    1.17064457614527   -3.31829700495589
C         1.21790417142821    0.00405286383599   -3.31593728321581
C         0.37326139045110   -1.16363546032977   -3.31182241097976
Cl       -1.94790998015275   -0.02624939989041    5.26448099945524
Cl        5.05443658174832   -2.23432830774339    0.95746720340043
62
 energy: -137.538663964555 gnorm: 0.003524805827 xtb: 6.4.1 (a3dbbd7)
C        -1.30851555670804    0.00487544704256    3.53174361472382
C        -0.37890434804724   -1.16785614284056    3.30497467800520
C         0.96311423561958   -0.71190682954706    3.27126688382319
C         0.96420379517954    0.72739307101860    3.27848413261089
C        -0.38638386881199    1.18210436559445    3.31526069931743
C         2.33522576169705   -2.59834568005160    0.58180587266311
C         3.38945448546871   -1.51677457796620    0.63011784529471
C         2.94080808172981   -0.69342986353869    1.81848473039317
C         1.93959567381241   -1.39728064416193    2.53428047166094
C         1.56580867473253   -2.56575087677478    1.78149707571329
C         3.18145778847886    1.41606758741823    0.58411078174031
C         2.32764554911542    2.57409921516938    0.58062646872713
C         1.56773692478254    2.57354137596163    1.80495804982736
C         1.93676679382143    1.41362439953551    2.55633183188008
C         2.93243221954307    0.68844679740142    1.80451911717099
C        -0.36728310305825    3.45292042469091    0.58867573066626
C        -1.74085193060860    3.00886063277997    0.59096389903849
C        -1.98633366366502    2.30532440598362    1.81539683529060
C        -0.74703592677315    2.28201837376777    2.56851809954122
C         0.24325967498976    3.00018909707763    1.80625506265949
C        -3.40119144004525    0.72454264344988    0.57581046131764
C        -3.40294028316997   -0.71211040033358    0.57683472457733
C        -2.78066966712116   -1.14231235302007    1.81307226188363
C        -2.43283797098953    0.00659882216805    2.56201541980469
C        -2.78225259527125    1.15974933128215    1.80850985753549
C        -1.74206745498014   -2.99973803634170    0.59063200505867
C        -0.37095067348138   -3.44315972828100    0.58865634106215
C         0.24209039246224   -2.99676156867554    1.80147575113105
C        -0.74692540831248   -2.27655303481395    2.56685983301103
C        -1.98018751083748   -2.28911062880756    1.81891956040502
C        -0.24711240634256   -3.00638260542620   -1.81774506411240
C         0.74788917072093   -2.28726336367456   -2.57716160408414
C         1.97538218400411   -2.29730679191681   -1.83736107213119
C         1.73555306048725   -3.00035675984454   -0.59146378874280
C         0.36326061929485   -3.44087281037056   -0.59343195526140
C         2.77954792200539   -1.15767552529972   -1.81429697124178
C         2.39701625202769    0.00523544598572   -2.58477499025630
C         2.77640007802740    1.16748930341009   -1.83028069508631
C         3.38661110154290    0.70199322272734   -0.60081101658850
C         3.40480671911438   -0.71234334455265   -0.61860046535196
C         1.96491682694090    2.28829883277965   -1.82823298389764
C         0.73960702380925    2.29271400045273   -2.58612951019323
C        -0.24890565073873    3.01228185949882   -1.82309659711996
C         0.36574330916039    3.45358777146247   -0.59412243900641
C         1.73182756510744    3.01189667010362   -0.59715721072806
C        -1.56973574152146    2.58352202220257   -1.82168900539382
C        -1.95093516544821    1.41856234402606   -2.58419054959393
C        -2.94623385173747    0.69925306848461   -1.82897134208190
C        -3.17752238141189    1.41990350026310   -0.60332791490568
C        -2.32851067869562    2.58457220172104   -0.59880805497194
C        -2.94584285796393   -0.68967023911933   -1.82674018264364
C        -1.95196795334856   -1.41309665430423   -2.57906992161562
C        -1.57096789539558   -2.57782130802598   -1.81670561364637
C        -2.32897758297357   -2.57797412061679   -0.59735529478227
C        -3.17827268392909   -1.40659578876196   -0.59878461577974
C        -0.99530751012224   -0.71979006982512   -3.30886866700372
C        -0.99755799216159    0.72376022564292   -3.31328071529877
C         0.37318442636457    1.17031526131068   -3.31760620269001
C         1.21823985193727    0.00372136733602   -3.31570522975572
C         0.37351288966771   -1.16408184676237   -3.31155057009778
Cl       -1.94678077877063   -0.02625610121653    5.25769824684631
Cl        5.04996249654616   -2.22896830427247    0.95476211535406
62
 energy: -137.538682466138 gnorm: 0.001740122098 xtb: 6.4.1 (a3dbbd7)
C        -1.30847966944607    0.00474185551581    3.53174792576843
C        -0.37820855377116   -1.16811083473519    3.30401688090295
C         0.96358814510391   -0.71199484936804    3.27185859725694
C         0.96480061260546    0.72741006802296    3.27871944015086
C        -0.38542907787429    1.18211532319496    3.31407444110335