62
 energy: -137.491147128572 gnorm: 0.199934129733 xtb: 6.4.1 (a3dbbd7)
C        -1.23626340000000    0.00000000000000    3.32997640000000
C        -0.38202640000000   -1.17575640000000    3.32997640000000
C         1.00015810000000   -0.72665740000000    3.32997640000000
C         1.00015810000000    0.72665740000000    3.32997640000000
C        -0.38202640000000    1.17575640000000    3.32997640000000
C         2.34433560000000   -2.60145750000000    0.59464210000000
C         3.19857260000000   -1.42570110000000    0.59464210000000
C         2.96246730000000   -0.69904370000000    1.83090550000000
C         1.96230920000000   -1.42570110000000    2.59495830000000
C         1.58028280000000   -2.60145750000000    1.83090550000000
C         3.19857260000000    1.42570110000000    0.59464210000000
C         2.34433560000000    2.60145750000000    0.59464210000000
C         1.58028280000000    2.60145750000000    1.83090550000000
C         1.96230920000000    1.42570110000000    2.59495830000000
C         2.96246730000000    0.69904370000000    1.83090550000000
C        -0.36750900000000    3.48258920000000    0.59464210000000
C        -1.74969350000000    3.03349030000000    0.59464210000000
C        -1.98579880000000    2.30683290000000    1.83090550000000
C        -0.74953540000000    2.30683290000000    2.59495830000000
C         0.25062270000000    3.03349030000000    1.83090550000000
C        -3.42570570000000    0.72665740000000    0.59464210000000
C        -3.42570570000000   -0.72665740000000    0.59464210000000
C        -2.80757400000000   -1.17575640000000    1.83090550000000
C        -2.42554760000000    0.00000000000000    2.59495830000000
C        -2.80757400000000    1.17575640000000    1.83090550000000
C        -1.74969350000000   -3.03349030000000    0.59464210000000
C        -0.36750900000000   -3.48258920000000    0.59464210000000
C         0.25062270000000   -3.03349030000000    1.83090550000000
C        -0.74953540000000   -2.30683290000000    2.59495830000000
C        -1.98579880000000   -2.30683290000000    1.83090550000000
C        -0.25062270000000   -3.03349030000000   -1.83090550000000
C         0.74953540000000   -2.30683290000000   -2.59495830000000
C         1.98579880000000   -2.30683290000000   -1.83090550000000
C         1.74969350000000   -3.03349030000000   -0.59464210000000
C         0.36750900000000   -3.48258920000000   -0.59464210000000
C         2.80757400000000   -1.17575640000000   -1.83090550000000
C         2.42554760000000    0.00000000000000   -2.59495830000000
C         2.80757400000000    1.17575640000000   -1.83090550000000
C         3.42570570000000    0.72665740000000   -0.59464210000000
C         3.42570570000000   -0.72665740000000   -0.59464210000000
C         1.98579880000000    2.30683290000000   -1.83090550000000
C         0.74953540000000    2.30683290000000   -2.59495830000000
C        -0.25062270000000    3.03349030000000   -1.83090550000000
C         0.36750900000000    3.48258920000000   -0.59464210000000
C         1.74969350000000    3.03349030000000   -0.59464210000000
C        -1.58028280000000    2.60145750000000   -1.83090550000000
C        -1.96230920000000    1.42570110000000   -2.59495830000000
C        -2.96246730000000    0.69904370000000   -1.83090550000000
C        -3.19857260000000    1.42570110000000   -0.59464210000000
C        -2.34433560000000    2.60145750000000   -0.59464210000000
C        -2.96246730000000   -0.69904370000000   -1.83090550000000
C        -1.96230920000000   -1.42570110000000   -2.59495830000000
C        -1.58028280000000   -2.60145750000000   -1.83090550000000
C        -2.34433560000000   -2.60145750000000   -0.59464210000000
C        -3.19857260000000   -1.42570110000000   -0.59464210000000
C        -1.00015810000000   -0.72665740000000   -3.32997640000000
C        -1.00015810000000    0.72665740000000   -3.32997640000000
C         0.38202640000000    1.17575640000000   -3.32997640000000
C         1.23626340000000    0.00000000000000   -3.32997640000000
C         0.38202640000000   -1.17575640000000   -3.32997640000000
Cl       -1.84886636902500    0.00000000000000    5.03315507598844
Cl       -3.54443019171709    3.91845930637349   -0.91304312534438
62
 energy: -137.537374234771 gnorm: 0.114926204337 xtb: 6.4.1 (a3dbbd7)
C        -1.24973044417676    0.00386899345416    3.35827391372075
C        -0.36455852762253   -1.18028269709430    3.33068549761449
C         1.00169048217479   -0.72455410569324    3.31681019032873
C         1.00517013413193    0.72447483262804    3.31801993398214
C        -0.35955408373568    1.18338334594595    3.33248539381899
C         2.33474564253200   -2.59005431893330    0.59142672854276
C         3.18495648462834   -1.42072106979833    0.58955834409124
C         2.95263778368554   -0.69727760964068    1.82078702559818
C         1.96017886051885   -1.42218074826549    2.58316492767020
C         1.57850703697178   -2.59022501578746    1.82388785812339
C         3.18824290430669    1.41760707058856    0.59024962341016
C         2.34170893949624    2.58902940177381    0.59339610272043
C         1.58966009676499    2.59149788301914    1.82699015914158
C         1.96512740009940    1.42039629006375    2.58416852266640
C         2.95519734571712    0.69360519954387    1.82089586568534
C        -0.35409080160896    3.45048952798293    0.60204543906686
C        -1.73012362309464    3.01151932929550    0.61841566032011
C        -1.95800967574379    2.29348457215765    1.81593199774618
C        -0.72372011846747    2.29317500330378    2.58871255575553
C         0.26722935213467    3.02241784172269    1.83445306240540
C        -3.42054677622478    0.70794359553023    0.57496671280080
C        -3.41710397057023   -0.73357512274790    0.57613763049541
C        -2.79503033761874   -1.16959751584619    1.80136233131961
C        -2.43054713319884    0.00869710688571    2.54254114322997
C        -2.79090930868884    1.15932260294314    1.80570964332139
C        -1.74091570704018   -3.01752046922358    0.59319779369658
C        -0.36504007120161   -3.46214190162569    0.59492292551214
C         0.25391428266653   -3.01982406388056    1.82732467968266
C        -0.73473225075332   -2.29087558383935    2.58505617357360
C        -1.97407883744625   -2.29166478700485    1.81816935600263
C        -0.25030669663937   -3.02119207118177   -1.82125643088369
C         0.74484168550470   -2.29758573693964   -2.58239740962600
C         1.97465979506629   -2.29813935956574   -1.82225492918825
C         1.74104315530777   -3.01994565915167   -0.59202659290280
C         0.36484966851067   -3.46568468202609   -0.58967867934454
C         2.79314452737444   -1.17096032005085   -1.82399340901194
C         2.41297001216497   -0.00204234012881   -2.58435904919990
C         2.79255771460729    1.16862364616808   -1.82367338969077
C         3.40952661217823    0.72186850172830   -0.59399659783839
C         3.40923807894154   -0.72484922755230   -0.59432098294031
C         1.97449805686594    2.29405593915453   -1.82212298172130
C         0.74514055905057    2.29594492163831   -2.58601542366448
C        -0.24649250528181    3.01424748362036   -1.82104648084184
C         0.37101601349639    3.46179200458971   -0.58402787614736
C         1.74344358251135    3.01717172595061   -0.59064473259310
C        -1.56703150660643    2.60051787994273   -1.83326418575426
C        -1.94662042782227    1.42278792527567   -2.58045656956196
C        -2.94636447192904    0.68842602404936   -1.82969523548054
C        -3.18878948878806    1.39171985064215   -0.60258627113651
C        -2.40170379441341    2.64180764690263   -0.60778686932352
C        -2.94621045526338   -0.70429507159543   -1.82854508874101
C        -1.95121256285071   -1.42405131950471   -2.58757321188659
C        -1.57349847270925   -2.59358934605526   -1.82401364553029
C        -2.33533324242451   -2.59417194439026   -0.59551372244607
C        -3.18888880373665   -1.42973269119613   -0.60422050381141
C        -0.99511579195613   -0.72443729665469   -3.31609355268746
C        -0.99326658136002    0.72291337173726   -3.31775100931169
C         0.37991140499383    1.16870984353202   -3.31866586894966
C         1.22914229595657   -0.00195068842556   -3.31662093421253
C         0.38006941743840   -1.17212142713891   -3.31525953712055
Cl       -1.87627217874923    0.00417850130661    5.10343813982005
Cl       -3.62251723881700    3.98802563423499   -0.93321220967092
62
 energy: -137.558409385735 gnorm: 0.056754576792 xtb: 6.4.1 (a3dbbd7)
C        -1.28553741976885    0.00702984100644    3.47961743059243
C        -0.35054837249164   -1.17639462143885    3.28303258074418
C         0.99561144963075   -0.72181751925008    3.28345037834006
C         1.00204790830734    0.72027188969119    3.28663842786851
C        -0.34186170329763    1.18310280721919    3.28988724454045
C         2.32897262656943   -2.57976697908766    0.58665380123048
C         3.17498696905472   -1.41636203970691    0.58527450667385
C         2.94517548991391   -0.69594407109235    1.81134477190767
C         1.95815164840712   -1.42133088003387    2.56594926949234
C         1.57690481111161   -2.58116617277432    1.81256928976432
C         3.18079246540664    1.41214426871017    0.58840664996316
C         2.34153529479146    2.57975762429950    0.59434600793506
C         1.59700964420647    2.58284206870431    1.82100263352075
C         1.96749723789078    1.41704880243945    2.57019021145410
C         2.95031255558009    0.68908614183412    1.81277058427814
C        -0.34404581419492    3.42775873398451    0.60211302344244
C        -1.71113912666512    2.99068294490386    0.63981850941380
C        -1.93767834635793    2.28831073852325    1.79279425113330
C        -0.70410878484353    2.28362405299068    2.56706741289550
C         0.27853683752937    3.01411144545550    1.82823659339559
C        -3.39966828382876    0.69333161976011    0.56418991757157
C        -3.41045839157145   -0.73744649897020    0.56501113997003
C        -2.77749475623312   -1.16030746723005    1.78074057734060
C        -2.43260189847303    0.02008402143222    2.52061051881966
C        -2.77020806312770    1.13548947069106    1.80191810153879
C        -1.73468294276631   -3.00431404241076    0.58495122939781
C        -0.36442431426232   -3.44692244701424    0.58677020620293
C         0.25465992023279   -3.00834861465374    1.81357654824488
C        -0.72372600528446   -2.27470079354837    2.55488227273289
C        -1.97058570493416   -2.28179550177081    1.79953177771751
C        -0.24720172075086   -3.00914773235259   -1.81618475167907
C         0.74541043761294   -2.28905089806263   -2.57226269022847
C         1.96796331558040   -2.28913008545976   -1.81454660891938
C         1.73596279335241   -3.00717343293710   -0.59203396165575
C         0.36482052925601   -3.45099832859411   -0.59053197958400
C         2.78405870803039   -1.16441933504218   -1.81627371720142
C         2.40620805007162   -0.00293094116326   -2.57259615073029
C         2.78289308736434    1.16311919040310   -1.81423135535321
C         3.39800964593852    0.71893125232432   -0.59089179609083
C         3.39694208185525   -0.72161744529227   -0.59273424580194
C         1.96653024702769    2.28206761316662   -1.81103772230360
C         0.74375198045274    2.28083583425876   -2.57554626132959
C        -0.24431090617974    2.97977957754956   -1.81217665013805
C         0.37444596335607    3.44546253464742   -0.57737205712647
C         1.73715283315584    3.00312235155112   -0.58578092717008
C        -1.54388590981958    2.55994828364475   -1.82694337349563
C        -1.92808401138534    1.40477499308424   -2.56536413014520
C        -2.92258983175375    0.67795353589464   -1.81464624793526
C        -3.16647096704038    1.36632869802297   -0.59844252232574
C        -2.47631970776344    2.72042597136993   -0.62912116986896
C        -2.93568455899250   -0.71136685994994   -1.82680022487277
C        -1.94190045634856   -1.42335986228691   -2.58319253494577
C        -1.56616685556359   -2.58679012826380   -1.82160605900393
C        -2.32983805315175   -2.58855668928174   -0.60287586898454
C        -3.18079603613822   -1.43277746301659   -0.61228565338942
C        -0.98765791335025   -0.72680357242548   -3.30623971392581
C        -0.98218646901242    0.71229886203774   -3.31017409576715
C         0.38142629413467    1.15781243460747   -3.30833956268783
C         1.22789786603813   -0.00496812294237   -3.30436202276876
C         0.38300045433919   -1.16932646888528   -3.30355491617002
Cl       -1.91831636175117    0.00359272541356    5.25609884556365
Cl       -3.71178601983834    4.08236399168994   -0.96118379144344
62
 energy: -137.561663897374 gnorm: 0.027319170867 xtb: 6.4.1 (a3dbbd7)
C        -1.28456759237755    0.00602173941859    3.49384953282553
C        -0.35896858098833   -1.17494241219243    3.30631442199512
C         0.99295399723517   -0.72249865758407    3.28973802070352
C         1.00008295075924    0.71955167021938    3.29355002345839
C        -0.35024766661617    1.18041779305876    3.31023019247625
C         2.33393508620081   -2.58371711622495    0.58538969055584
C         3.18161941396584   -1.42008891590548    0.58380974872195
C         2.95043595562220   -0.69893532301746    1.81111120503770
C         1.95747581225418   -1.41983554645445    2.56629013325502
C         1.57854433357229   -2.57979907429711    1.81156279329586
C         3.18848320380679    1.40972403660062    0.58719858271236
C         2.34712003937972    2.57823995195689    0.59383080010030
C         1.59825583643770    2.57828708436680    1.81998936497773
C         1.96873819784712    1.41257961869840    2.57157278057664
C         2.95659370019243    0.68691250165208    1.81328421938842
C        -0.34993003029421    3.42941902478954    0.59823751444590
C        -1.72465838408144    2.99780659082083    0.62515240942599
C        -1.94516397103633    2.29171486752894    1.79325788843694
C        -0.71044134214061    2.27953609792053    2.57276815072712
C         0.27513310521944    3.00354956067994    1.82313297845085
C        -3.39926154477451    0.70197405651868    0.56316020280080
C        -3.39935491871823   -0.73300931374961    0.56430737227903
C        -2.77503834024901   -1.15983683711354    1.78744841196194
C        -2.42426846537592    0.01769276882245    2.53829166594931
C        -2.77319790982401    1.13836858977426    1.80816305493581
C        -1.73276456886297   -3.00354328291357    0.58302018147366
C        -0.36208297155109   -3.44482429988621    0.58541611031346
C         0.25391235267443   -2.99940727227000    1.81230722641162
C        -0.72720956344491   -2.27261244675796    2.56547226072426
C        -1.96923513599329   -2.28126056697389    1.80139124450813
C        -0.24408165744008   -3.01453076994096   -1.82138338228761
C         0.74921143899224   -2.29398354453627   -2.57781228330342
C         1.97260424108757   -2.29368339230835   -1.81877907405870
C         1.74049223054837   -3.01140252664102   -0.59448434939179
C         0.36780834327164   -3.45357921438465   -0.59305430522393
C         2.78928425924067   -1.16850096590432   -1.82042100882222
C         2.41012591756633   -0.00588513571803   -2.57702290367890
C         2.78627806725770    1.16035338766910   -1.81667741567048
C         3.40510035810047    0.71586631277451   -0.59388172075710
C         3.40392154476180   -0.72558505420732   -0.59610466970074
C         1.96672040577847    2.27859255042757   -1.81037994791893
C         0.73952399770568    2.27713738287822   -2.56916185027422
C        -0.25224794106288    2.98792432781220   -1.81310224191806
C         0.37293248052789    3.44524939505024   -0.57816130639703
C         1.73828724035947    3.00037083045490   -0.58531338314912
C        -1.56200977022754    2.57806008197139   -1.83166730237905
C        -1.93191209726384    1.41051634875627   -2.56600688059619
C        -2.92711653676183    0.68347546284574   -1.81694980205741
C        -3.18085471653989    1.38606973956777   -0.60390660482560
C        -2.48350695119737    2.72776903146269   -0.63609162916975
C        -2.93397049879406   -0.70902743594271   -1.83066983844758
C        -1.94100931323804   -1.42575902143690   -2.58872916906911
C        -1.56454108224825   -2.59147247502099   -1.82770184116825
C        -2.32844518408529   -2.59224722664074   -0.60695733384736
C        -3.17618397135931   -1.43216087326858   -0.61490974905836
C        -0.98580878245152   -0.72831955551254   -3.31113618100363
C        -0.98285733628940    0.71288136455301   -3.30821237427787
C         0.38159588400551    1.15615855855355   -3.30767927607446
C         1.23073631471676   -0.00715670655414   -3.30915757696442
C         0.38573473625528   -1.17285329281479   -3.30950289213918
Cl       -1.92011159805101    0.00646191508378    5.25521833134846
Cl       -3.71588958274645    4.08023491985889   -0.95933626999940
62
 energy: -137.562649055539 gnorm: 0.016385511160 xtb: 6.4.1 (a3dbbd7)
C        -1.28863235653685    0.00564831411875    3.51562567585999
C        -0.36566322577213   -1.17261914904492    3.31273727345041
C         0.98862409046312   -0.72238537323596    3.28817121866614
C         0.99596901151419    0.71925891886734    3.29203725300300
C        -0.35675697053592    1.17761443615972    3.31484593699213
C         2.33649314859489   -2.58515096972117    0.58380354951022
C         3.18513169845092   -1.42165372901874    0.58291708797249
C         2.95156615994761   -0.69941084921739    1.80996506927772
C         1.95551149008252   -1.41811167286883    2.56424116391806
C         1.57878501691421   -2.57840850519710    1.80965649525608
C         3.19287264206953    1.40997762175467    0.58644236768439
C         2.35080478741603    2.57890203062887    0.59301051622860
C         1.59849570266728    2.57649736757524    1.81844600701890
C         1.96750600051198    1.41060759424876    2.57018928668780
C         2.95853659427171    0.68684499140031    1.81270212066936
C        -0.35283713046812    3.42918878581756    0.59523226110381
C        -1.73063970750507    2.99736473733563    0.61690803943200
C        -1.95021279770408    2.29494114461320    1.79058634805721
C        -0.71367646299941    2.27516676338496    2.57079043709901
C         0.27307120916653    2.99586942088404    1.81820645820203
C        -3.39223626308124    0.70540846861759    0.56345551356382
C        -3.39119299714946   -0.73004099058243    0.56415989263292
C        -2.77201454831046   -1.15881527044605    1.79098456303250
C        -2.41666841751293    0.01765470421046    2.54776822210973
C        -2.77306886477634    1.13795038520202    1.81534126470566
C        -1.73233776246588   -3.00433867860234    0.58119279253695
C        -0.36123763030509   -3.44299596566450    0.58359748933536
C         0.25301938174095   -2.99310537966686    1.80971369472067
C        -0.72949397475236   -2.27026217813719    2.56749413694918
C        -1.97020698015612   -2.28249748790799    1.80093391511248
C        -0.24248338030855   -3.01758503925950   -1.82452943945431
C         0.75161859909675   -2.29689462447033   -2.58099447325790
C         1.97553507290392   -2.29598399360088   -1.82145134130411
C         1.74275871985393   -3.01302844992708   -0.59646889250973
C         0.36940756502035   -3.45507555355990   -0.59522663135985
C         2.79297265293943   -1.17040092908650   -1.82240416720987
C         2.41272007578080   -0.00738846059518   -2.57852899084864
C         2.78882393957822    1.15925522085359   -1.81764163563817
C         3.40949529397648    0.71509241647174   -0.59524993910722
C         3.40826157231045   -0.72703313518270   -0.59777062226969
C         1.96660979295475    2.27634036877261   -1.80923179930443
C         0.73714323732460    2.27357795419906   -2.56456963373810
C        -0.25583496815663    2.98888582754021   -1.81229966789005
C         0.37348110254820    3.44575696249745   -0.57861693981009
C         1.73966128536252    2.99970620526608   -0.58544225694114
C        -1.56958465510729    2.58334802557626   -1.83101858633534
C        -1.93187925031199    1.41154785671374   -2.56324959224391
C        -2.92686870391162    0.68582495119714   -1.81378625989437
C        -3.18544719083652    1.39734141974460   -0.60388569542923
C        -2.49149657967151    2.73859094170940   -0.64085462379562
C        -2.93268006008313   -0.70780151312027   -1.83061809265390
C        -1.94057193133765   -1.42681525675463   -2.58986934147460
C        -1.56415018878617   -2.59459337959548   -1.83067180926336
C        -2.32837388460163   -2.59549826184186   -0.60930817516217
C        -3.17354296784371   -1.43212896939309   -0.61518267259166
C        -0.98448315987234   -0.72941092555944   -3.31189538988236
C        -0.98239455008955    0.71208253135270   -3.30555277779302
C         0.38206818144008    1.15430446321039   -3.30648991244799
C         1.23291696438085   -0.00888843616910   -3.31095131872867
C         0.38761462554487   -1.17487506298974   -3.31257077681492
Cl       -1.92615076152437    0.00928988729980    5.25976114751033
Cl       -3.71795385309564    4.08181677956674   -0.95447379250049
62
 energy: -137.563034008278 gnorm: 0.008679275317 xtb: 6.4.1 (a3dbbd7)
C        -1.29238635172441    0.00526118557189    3.53090656597246
C        -0.36920776863197   -1.17102047128894    3.31034872019486
C         0.98577006915410   -0.72217354403110    3.28483240824018
C         0.99279650650027    0.71933958480553    3.28827667465108
C        -0.36061863630897    1.17575001350163    3.31184953664467
C         2.33732632078757   -2.58543747549060    0.58309169883912
C         3.18603174477772   -1.42173862135089    0.58284987048336
C         2.95110848534786   -0.69880323622882    1.80948011259759
C         1.95417069532564   -1.41714311827467    2.56270686607634
C         1.57849772880851   -2.57814399035241    1.80868145697536
C         3.19404898730107    1.41134948205828    0.58637518630814
C         2.35204115190486    2.58054396849182    0.59246300690276
C         1.59786559285705    2.57706376910156    1.81769740072903
C         1.96578658069611    1.41053160621234    2.56866225272441
C         2.95827675699088    0.68766273822940    1.81237588437057
C        -0.35371053846514    3.42921838823765    0.59365439522657
C        -1.73171772364443    2.99477392815769    0.61333584645641
C        -1.95280969773472    2.29709263256831    1.78840016636767
C        -0.71520503022504    2.27374461813388    2.56813946105016
C         0.27178792668617    2.99310015204662    1.81578304446559
C        -3.38648299727657    0.70580769544117    0.56455041068468
C        -3.38806441568571   -0.72874059134347    0.56486895837609
C        -2.77056117155378   -1.15861776078742    1.79283626152425
C        -2.41200242894501    0.01762772571305    2.55153799253724
C        -2.77221441130287    1.13655428296896    1.82034405315673
C        -1.73308529406015   -3.00620607846449    0.58055589417354
C        -0.36152504211257   -3.44294868820485    0.58285154471719
C         0.25246257419888   -2.99115637796476    1.80826237139475
C        -0.73069855563439   -2.26989960248408    2.56657198400520
C        -1.97207355921388   -2.28481128656951    1.80066691698276
C        -0.24227845708464   -3.01850367563344   -1.82546324752764
C         0.75232336996207   -2.29776860630803   -2.58194736954705
C         1.97647066184214   -2.29640927921982   -1.82226258182872
C         1.74326976814652   -3.01329614276345   -0.59714065866549
C         0.36966797441843   -3.45593629957258   -0.59607347467661
C         2.79434448431572   -1.17050950441718   -1.82271287990982
C         2.41365256609102   -0.00738973877270   -2.57866138929483
C         2.79009811832769    1.15975511968855   -1.81791450844970
C         3.41094332451316    0.71576114111593   -0.59540721317244
C         3.40974225549514   -0.72677644898379   -0.59797034691983
C         1.96683229171730    2.27643764241268   -1.80894888203569
C         0.73671034500180    2.27239073835480   -2.56340096370068
C        -0.25617751122073    2.98792106696152   -1.81209537693894
C         0.37433314994170    3.44711966621865   -0.57926669538044
C         1.74073158808291    3.00100543559864   -0.58598639698727
C        -1.56997022640391    2.58141056485530   -1.82870550004972
C        -1.93097006482199    1.41028631929767   -2.56115450688167
C        -2.92559302975961    0.68597900196313   -1.81024428117309
C        -3.18481509068559    1.40146650330996   -0.60164614201705
C        -2.49442390396200    2.74535164664321   -0.64268112156212
C        -2.93266440855897   -0.70746102826892   -1.82933056069777
C        -1.94087356860966   -1.42686670993936   -2.58938225852485
C        -1.56460173127882   -2.59566010196089   -1.83123477304095
C        -2.32901054004914   -2.59735770921506   -0.60980248465759
C        -3.17318954324044   -1.43231616978190   -0.61411402847563
C        -0.98430062343176   -0.72993695849535   -3.31163483189910
C        -0.98203918931788    0.71123743643484   -3.30455865450026
C         0.38244204752059    1.15369807538954   -3.30627566564802
C         1.23388021088107   -0.00946469851831   -3.31140297602833
C         0.38820376276844   -1.17538731655461   -3.31347945655178
Cl       -1.92928401865431    0.01015309106973    5.25758525062950
Cl       -3.71235807150542    4.08094531706096   -0.94953101607112
62
 energy: -137.563139700761 gnorm: 0.003868719799 xtb: 6.4.1 (a3dbbd7)
C        -1.29388179408260    0.00518148821188    3.53547783798933
C        -0.36949888711400   -1.17051896347487    3.30636611778615
C         0.98517603082814   -0.72195762263876    3.28303065469010
C         0.99190715932424    0.71964020220483    3.28623052380324
C        -0.36129884040090    1.17549309071578    3.30813216539378
C         2.33718567868693   -2.58520710554747    0.58321942431406
C         3.18558946855994   -1.42126147949048    0.58310449869014
C         2.95056618635289   -0.69826206621786    1.80959525868292
C         1.95389022569405   -1.41699707371011    2.56236990778595
C         1.57825446738395   -2.57846866974419    1.80871130112018
C         3.19334905034173    1.41216860276143    0.58657373309925
C         2.35152404305550    2.58139595717301    0.59238776212516
C         1.59731843506011    2.57818014646897    1.81774761452984
C         1.96503082345279    1.41118967984223    2.56813443834332
C         2.95751992826556    0.68821863181022    1.81238812353059
C        -0.35348637931114    3.42926741709842    0.59366421136804
C        -1.73053038513504    2.99281382565636    0.61359610208944
C        -1.95297800741209    2.29746034151246    1.78797302176932
C        -0.71543876840638    2.27488598425451    2.56764360968243
C         0.27151760016230    2.99400871447755    1.81594226640269
C        -3.38544858219594    0.70501595966401    0.56532404212577
C        -3.38891808086575   -0.72890906160477    0.56550110482620
C        -2.77065169761821   -1.15884640166187    1.79307451444819
C        -2.41128954759326    0.01757657658172    2.55113818471705
C        -2.77170753838090    1.13560374775180    1.82140578598362
C        -1.73375378265782   -3.00725504611324    0.58082210680499
C        -0.36196776917241   -3.44368870124750    0.58301293539950
C         0.25238157946618   -2.99192806378707    1.80820709229513
C        -0.73088208233530   -2.27064277264394    2.56569058107701
C        -1.97313298266050   -2.28601394324470    1.80079340471820
C        -0.24255983346259   -3.01811805592890   -1.82506780116998
C         0.75210212044808   -2.29740097463342   -2.58154953387664
C         1.97622635930145   -2.29592963664705   -1.82190426544291
C         1.74300849214023   -3.01300037912222   -0.59687962170632
C         0.36940535760148   -3.45601305626675   -0.59587527372091
C         2.79406990594703   -1.16993154655042   -1.82229072066235
C         2.41343425484967   -0.00686862509693   -2.57838072224036
C         2.79008783916080    1.16048558692711   -1.81782472525802
C         3.41048833095956    0.71647577869011   -0.59508518055074
C         3.40935443411530   -0.72611262629895   -0.59756478589061
C         1.96710587316031    2.27739042440518   -1.80927608106827
C         0.73720809131215    2.27286894443259   -2.56425356549883
C        -0.25541502371080    2.98720434404127   -1.81250624881457
C         0.37441261747405    3.44780748142723   -0.57957493916959
C         1.74082627001930    3.00216236022732   -0.58632621697988
C        -1.56773921288132    2.57789338342239   -1.82723060619246
C        -1.93067720833122    1.40892862501396   -2.56071156362296
C        -2.92527285312457    0.68528135640309   -1.80890241213516
C        -3.18338492712918    1.40063542512866   -0.60002680140024
C        -2.49378882129727    2.74684550292016   -0.64233235265403
C        -2.93331191678100   -0.70768979829023   -1.82855052955070
C        -1.94122560317075   -1.42654380841715   -2.58879407443824
C        -1.56492021668649   -2.59527827569375   -1.83066753829827
C        -2.32936967522406   -2.59747577483514   -0.60938348256826
C        -3.17389380314430   -1.43256565340275   -0.61326021703787
C        -0.98463100885561   -0.73002310409985   -3.31143996993701
C        -0.98204576157620    0.71091395390279   -3.30484844746445
C         0.38247035462067    1.15394964740936   -3.30659809916926
C         1.23377552881238   -0.00926338761129   -3.31122414467349
C         0.38801291694297   -1.17513256538916   -3.31314396576042
Cl       -1.92865969419559    0.00940550143294    5.25153620177022
Cl       -3.70473529932863    4.07941486381493   -0.94720868976494
62
 energy: -137.563162597339 gnorm: 0.001542323195 xtb: 6.4.1 (a3dbbd7)
C        -1.29404218163138    0.00523268701666    3.53521916828877
C        -0.36872957540761   -1.17061430418693    3.30469549478036
C         0.98552166069443   -0.72184232024046    3.28282700768280
C         0.99216750541518    0.71983472491481    3.28606276233376
C        -0.36072451375177    1.17585191359257    3.30682667316973