2
 energy: -0.982210269800 gnorm: 0.024243566152 xtb: 6.4.1 (a3dbbd7)
H         0.00000000000000    0.00000000000000    0.37313400000000
H         0.00000000000000    0.00000000000000   -0.37313400000000
2
 energy: -0.982679611901 gnorm: 0.002677483108 xtb: 6.4.1 (a3dbbd7)
H         0.00000000000000    0.00000000000000    0.38650717314838
H         0.00000000000000    0.00000000000000   -0.38650717314838
2
 energy: -0.982686111593 gnorm: 0.000261015964 xtb: 6.4.1 (a3dbbd7)
H         0.00000000000000    0.00000000000000    0.38816745337293
H         0.00000000000000    0.00000000000000   -0.38816745337293
2
 energy: -0.982686160191 gnorm: 0.000125588305 xtb: 6.4.1 (a3dbbd7)
H         0.00000000000000    0.00000000000000    0.38843645735764
H         0.00000000000000    0.00000000000000   -0.38843645735764
